 Gaussian 16, Revision A.03,
 Gaussian 16:  ES64L-G16RevA.03 25-Dec-2016

 --------------------------------------
 #P UB3LYP/6-311++G(d,p) nosym opt freq
 --------------------------------------

 --------
 Oxidized
 --------
 Symbolic Z-matrix:
 Charge =  0 Multiplicity = 1

 SCF Done:  E(UB3LYP) =  -842.841745585     A.U. after   15 cycles
 SCF Done:  E(UB3LYP) =  -842.844687970     A.U. after   12 cycles
 SCF Done:  E(UB3LYP) =  -842.844882053     A.U. after   12 cycles
 SCF Done:  E(UB3LYP) =  -842.844865575     A.U. after   11 cycles
 SCF Done:  E(UB3LYP) =  -842.844869484     A.U. after   12 cycles
 SCF Done:  E(UB3LYP) =  -842.844896595     A.U. after   11 cycles
 SCF Done:  E(UB3LYP) =  -842.844899325     A.U. after   10 cycles
 SCF Done:  E(UB3LYP) =  -842.844899415     A.U. after   10 cycles
 SCF Done:  E(UB3LYP) =  -842.844900286     A.U. after    9 cycles
 SCF Done:  E(UB3LYP) =  -842.844900748     A.U. after   10 cycles
 SCF Done:  E(UB3LYP) =  -842.844900906     A.U. after    9 cycles
 SCF Done:  E(UB3LYP) =  -842.844900948     A.U. after    8 cycles
 SCF Done:  E(UB3LYP) =  -842.844900975     A.U. after    8 cycles
 Optimization completed.
    -- Stationary point found.
 Normal termination of Gaussian 16 at Thu Dec 21 19:40:22 2023.

 ----------------------------------------------------------------------
 #P Geom=AllCheck Guess=TCheck SCRF=Check GenChk UB3LYP/6-311++G(d,p) F
 req
 ----------------------------------------------------------------------

 Structure from the checkpoint file:  "214.chk"
 --------
 Oxidized
 --------
 Charge =  0 Multiplicity = 1

                          Input orientation:
 ---------------------------------------------------------------------
 Center     Atomic      Atomic             Coordinates (Angstroms)
 Number     Number       Type             X           Y           Z
 ---------------------------------------------------------------------
      1          6           0        5.042603   -2.234286    0.745734
      2          6           0        5.879157   -1.412929   -0.000545
      3          6           0        5.343516   -0.568343   -0.977033
      4          6           0        3.662032   -2.220122    0.523319
      5          6           0        3.123102   -1.370310   -0.459365
      6          6           0        3.972664   -0.547228   -1.204933
      7          6           0        2.788047   -3.113562    1.339223
      8          6           0        1.320401   -3.071895    1.070091
      9          6           0        0.784015   -2.221336    0.087564
     10          6           0        1.654582   -1.326787   -0.725656
     11          6           0        0.472893   -3.899362    1.810378
     12          6           0       -0.596300   -2.218770   -0.133334
     13          6           0       -1.426327   -3.046176    0.610909
     14          8           0        3.255826   -3.848646    2.193811
     15          8           0        1.187401   -0.586588   -1.576600
     16          1           0        5.435862   -2.896466    1.507106
     17          1           0        6.948765   -1.428007    0.175472
     18          1           0        5.997844    0.071545   -1.558142
     19          1           0       -2.495353   -3.039594    0.423621
     20          1           0        3.536010    0.099154   -1.956170
     21          1           0        0.918143   -4.549516    2.555041
     22          1           0       -0.996561   -1.562840   -0.896628
     23          6           0       -0.906012   -3.899552    1.596253
     24          6           0       -1.818364   -4.770768    2.426383
     25          6           0       -2.267113   -4.074788    3.712879
     26          8           0       -3.131891   -4.973656    4.405796
     27          1           0       -1.312084   -5.700924    2.697921
     28          1           0       -2.709961   -5.041269    1.853931
     29          1           0       -2.789211   -3.140022    3.468449
     30          1           0       -1.390753   -3.823536    4.324474
     31          1           0       -3.405162   -4.568981    5.234475
 ---------------------------------------------------------------------

 SCF Done:  E(UB3LYP) =  -842.844900975     A.U. after    1 cycles

 Alpha  occ. eigenvalues --  -19.13614 -19.12708 -19.12583 -10.27930 -10.27830
 Alpha  occ. eigenvalues --  -10.23367 -10.21093 -10.20946 -10.20898 -10.20895
 Alpha  occ. eigenvalues --  -10.20715 -10.20290 -10.20237 -10.20056 -10.19942
 Alpha  occ. eigenvalues --  -10.19922 -10.19900 -10.19729 -10.18798  -1.06148
 Alpha  occ. eigenvalues --   -1.05920  -1.03709  -0.89656  -0.88589  -0.82591
 Alpha  occ. eigenvalues --   -0.79488  -0.78013  -0.77674  -0.74828  -0.68915
 Alpha  occ. eigenvalues --   -0.67213  -0.65020  -0.62580  -0.61334  -0.58706
 Alpha  occ. eigenvalues --   -0.56247  -0.55395  -0.52989  -0.50710  -0.49946
 Alpha  occ. eigenvalues --   -0.48948  -0.47491  -0.47055  -0.45442  -0.45342
 Alpha  occ. eigenvalues --   -0.45158  -0.44915  -0.44285  -0.43423  -0.43343
 Alpha  occ. eigenvalues --   -0.41470  -0.39681  -0.39147  -0.38563  -0.37477
 Alpha  occ. eigenvalues --   -0.37280  -0.36791  -0.36273  -0.35099  -0.29386
 Alpha  occ. eigenvalues --   -0.28798  -0.28288  -0.28124  -0.27769  -0.27276
 Alpha  occ. eigenvalues --   -0.27084
 Alpha virt. eigenvalues --   -0.11597  -0.07473  -0.03906  -0.02912  -0.01612
 Alpha virt. eigenvalues --   -0.00878  -0.00168   0.00966   0.01297   0.01472
 Alpha virt. eigenvalues --    0.02348   0.03146   0.03308   0.03611   0.03766

  Beta  occ. eigenvalues --  -19.13614 -19.12708 -19.12583 -10.27930 -10.27830
  Beta  occ. eigenvalues --  -10.23367 -10.21093 -10.20946 -10.20898 -10.20895
  Beta  occ. eigenvalues --  -10.20715 -10.20290 -10.20237 -10.20056 -10.19942
  Beta  occ. eigenvalues --  -10.19922 -10.19900 -10.19729 -10.18798  -1.06148
  Beta  occ. eigenvalues --   -1.05920  -1.03709  -0.89656  -0.88589  -0.82591
  Beta  occ. eigenvalues --   -0.79488  -0.78013  -0.77674  -0.74828  -0.68915
  Beta  occ. eigenvalues --   -0.67213  -0.65020  -0.62580  -0.61334  -0.58706
  Beta  occ. eigenvalues --   -0.56247  -0.55395  -0.52989  -0.50710  -0.49946
  Beta  occ. eigenvalues --   -0.48948  -0.47491  -0.47055  -0.45442  -0.45342
  Beta  occ. eigenvalues --   -0.45158  -0.44915  -0.44285  -0.43423  -0.43343
  Beta  occ. eigenvalues --   -0.41470  -0.39681  -0.39147  -0.38563  -0.37477
  Beta  occ. eigenvalues --   -0.37280  -0.36791  -0.36273  -0.35099  -0.29386
  Beta  occ. eigenvalues --   -0.28798  -0.28288  -0.28124  -0.27769  -0.27276
  Beta  occ. eigenvalues --   -0.27084
  Beta virt. eigenvalues --   -0.11597  -0.07473  -0.03906  -0.02912  -0.01612
  Beta virt. eigenvalues --   -0.00878  -0.00168   0.00966   0.01297   0.01472
  Beta virt. eigenvalues --    0.02348   0.03146   0.03308   0.03611   0.03766

 Mulliken charges and spin densities:
               1          2
     1  C    0.126096   0.000000
     2  C   -0.360553   0.000000
     3  C   -0.370023  -0.000000
     4  C    0.355024  -0.000000
     5  C    0.126588   0.000000
     6  C    0.173814  -0.000000
     7  C   -0.813472   0.000000
     8  C    0.353927   0.000000
     9  C    0.066256  -0.000000
    10  C   -0.856861   0.000000
    11  C   -0.086547  -0.000000
    12  C    0.138042  -0.000000
    13  C   -0.500574   0.000000
    14  O   -0.205064  -0.000000
    15  O   -0.211368  -0.000000
    16  H    0.182222   0.000000
    17  H    0.177807  -0.000000
    18  H    0.177121  -0.000000
    19  H    0.175437   0.000000
    20  H    0.184881   0.000000
    21  H    0.188280   0.000000
    22  H    0.194493  -0.000000
    23  C    0.595483  -0.000000
    24  C    0.093737  -0.000000
    25  C   -0.527229  -0.000000
    26  O   -0.277323  -0.000000
    27  H    0.174449   0.000000
    28  H    0.168423  -0.000000
    29  H    0.152452  -0.000000
    30  H    0.153938  -0.000000
    31  H    0.250543  -0.000000
 Sum of Mulliken charges =  -0.00000   0.00000

 Dipole moment (field-independent basis, Debye):
    X=              0.1327    Y=              1.2139    Z=              0.8713  Tot=              1.5002
 Quadrupole moment (field-independent basis, Debye-Ang):
   XX=            -93.0126   YY=           -125.3036   ZZ=           -107.0776
   XY=              4.5086   XZ=             -9.3014   YZ=              4.2844

  Exact polarizability: 271.566  38.114 163.997 -23.199 -62.955 174.612
 Approx polarizability: 394.298  21.342 279.241  10.418-118.731 295.335

                      1                      2                      3
                      A                      A                      A
 Frequencies --     26.5214                31.5735                63.9023
 Red. masses --      3.6525                 6.9833                 6.7885
 Frc consts  --      0.0015                 0.0041                 0.0163
 IR Inten    --      0.9555                 2.5670                 4.1261

                      4                      5                      6
                      A                      A                      A
 Frequencies --     89.0128               112.7814               125.8036
 Red. masses --      2.6356                 4.2690                 5.1637
 Frc consts  --      0.0123                 0.0320                 0.0482
 IR Inten    --      9.1723                 0.1362                 0.2499

                      7                      8                      9
                      A                      A                      A
 Frequencies --    158.0880               188.8332               212.9509
 Red. masses --      7.1232                 4.0116                 5.3383
 Frc consts  --      0.1049                 0.0843                 0.1426
 IR Inten    --      1.1067                 0.8614                 0.3157

                     10                     11                     12
                      A                      A                      A
 Frequencies --    244.0385               266.4159               288.3450
 Red. masses --      1.0747                 5.6153                 6.8790
 Frc consts  --      0.0377                 0.2348                 0.3370
 IR Inten    --    116.0216                 0.8071                 1.4989

                     13                     14                     15
                      A                      A                      A
 Frequencies --    324.5327               373.8120               383.5049
 Red. masses --      4.4791                 3.9821                 6.7791
 Frc consts  --      0.2779                 0.3278                 0.5874
 IR Inten    --      5.2345                 1.6236                 3.6431

                     16                     17                     18
                      A                      A                      A
 Frequencies --    402.3646               414.5620               439.1741
 Red. masses --      8.2135                 3.5025                 6.1098
 Frc consts  --      0.7835                 0.3547                 0.6943
 IR Inten    --     33.4380                 0.7055                 6.6337

                     19                     20                     21
                      A                      A                      A
 Frequencies --    444.6072               459.5207               481.0506
 Red. masses --      3.5641                 4.4297                10.4093
 Frc consts  --      0.4151                 0.5511                 1.4192
 IR Inten    --      0.3373                 0.8270                 2.0953

                     22                     23                     24
                      A                      A                      A
 Frequencies --    554.6473               621.0867               647.8033
 Red. masses --      4.6569                 5.9281                 6.7820
 Frc consts  --      0.8441                 1.3473                 1.6768
 IR Inten    --      7.7685                 4.0434                 8.3567

                     25                     26                     27
                      A                      A                      A
 Frequencies --    674.0036               690.2914               701.0786
 Red. masses --      4.7974                 5.1819                 6.5000
 Frc consts  --      1.2840                 1.4548                 1.8823
 IR Inten    --      5.0847                 8.0904                 0.0474

                     28                     29                     30
                      A                      A                      A
 Frequencies --    728.5537               737.0098               769.7795
 Red. masses --      2.8715                 3.1868                 4.7196
 Frc consts  --      0.8980                 1.0199                 1.6477
 IR Inten    --     48.4376                24.3142                 3.5125

                     31                     32                     33
                      A                      A                      A
 Frequencies --    804.8035               807.5798               809.2962
 Red. masses --      2.2706                 1.5551                 1.9023
 Frc consts  --      0.8665                 0.5976                 0.7341
 IR Inten    --      0.0686                 0.1724                 7.3809

                     34                     35                     36
                      A                      A                      A
 Frequencies --    860.5399               877.0355               916.9660
 Red. masses --      3.5605                 1.8479                 1.3861
 Frc consts  --      1.5535                 0.8375                 0.6867
 IR Inten    --      6.2524                13.8990                 0.2365

                     37                     38                     39
                      A                      A                      A
 Frequencies --    944.6967               946.6534               992.9965
 Red. masses --      5.4916                 1.5721                 3.4082
 Frc consts  --      2.8876                 0.8301                 1.9800
 IR Inten    --     59.6528                13.4331                59.1848

                     40                     41                     42
                      A                      A                      A
 Frequencies --   1002.5167              1006.4354              1009.5968
 Red. masses --      1.4022                 1.6585                 1.8553
 Frc consts  --      0.8303                 0.9898                 1.1142
 IR Inten    --      0.6012                10.8717                19.2596

                     43                     44                     45
                      A                      A                      A
 Frequencies --   1018.6023              1052.6371              1056.2440
 Red. masses --      1.3254                 6.2244                 1.9155
 Frc consts  --      0.8102                 4.0635                 1.2591
 IR Inten    --      0.0130               129.6872                 2.5855

                     46                     47                     48
                      A                      A                      A
 Frequencies --   1062.6506              1111.0205              1122.1309
 Red. masses --      1.6322                 2.6738                 2.2610
 Frc consts  --      1.0860                 1.9446                 1.6774
 IR Inten    --      0.2500                 0.1839                 1.3336

                     49                     50                     51
                      A                      A                      A
 Frequencies --   1163.2944              1180.2973              1194.0902
 Red. masses --      1.4923                 1.2808                 1.9727
 Frc consts  --      1.1898                 1.0513                 1.6572
 IR Inten    --     11.9075                14.8358                 4.6494

                     52                     53                     54
                      A                      A                      A
 Frequencies --   1215.5429              1225.5382              1230.9397
 Red. masses --      1.2580                 2.6488                 1.2130
 Frc consts  --      1.0951                 2.3440                 1.0828
 IR Inten    --      0.8339                15.4439                34.7872

                     55                     56                     57
                      A                      A                      A
 Frequencies --   1239.7193              1288.5743              1306.0175
 Red. masses --      1.7045                 1.4958                 3.9015
 Frc consts  --      1.5435                 1.4633                 3.9208
 IR Inten    --      4.3375                 9.2059               569.3496

                     58                     59                     60
                      A                      A                      A
 Frequencies --   1308.8520              1321.3628              1338.3376
 Red. masses --      1.4133                 1.7057                 1.6549
 Frc consts  --      1.4265                 1.7546                 1.7465
 IR Inten    --     47.3335                29.4728                49.4009

                     61                     62                     63
                      A                      A                      A
 Frequencies --   1353.5934              1364.6752              1440.4896
 Red. masses --      6.2859                 6.4614                 1.3944
 Frc consts  --      6.7857                 7.0898                 1.7047
 IR Inten    --     56.8911                 0.0809                10.9777

                     64                     65                     66
                      A                      A                      A
 Frequencies --   1447.6855              1481.5786              1497.6350
 Red. masses --      3.4007                 2.4229                 1.1130
 Frc consts  --      4.1992                 3.1335                 1.4708
 IR Inten    --      5.5077                 0.5427                 2.1008

                     67                     68                     69
                      A                      A                      A
 Frequencies --   1503.3947              1519.0002              1523.4739
 Red. masses --      2.5746                 2.7941                 1.0911
 Frc consts  --      3.4285                 3.7985                 1.4921
 IR Inten    --      6.1834                 0.4994                 4.5784

                     70                     71                     72
                      A                      A                      A
 Frequencies --   1599.6427              1614.8454              1627.8381
 Red. masses --      6.9133                 7.1190                 5.9061
 Frc consts  --     10.4227                10.9378                 9.2209
 IR Inten    --      4.9172                 6.0289               121.4335

                     73                     74                     75
                      A                      A                      A
 Frequencies --   1636.9034              1717.5197              1728.2751
 Red. masses --      6.0054                12.5847                11.9831
 Frc consts  --      9.4806                21.8724                21.0885
 IR Inten    --     42.4237                 5.9382               321.6745

                     76                     77                     78
                      A                      A                      A
 Frequencies --   2983.4934              3016.4702              3044.5417
 Red. masses --      1.0547                 1.1079                 1.0587
 Frc consts  --      5.5314                 5.9395                 5.7821
 IR Inten    --     44.1934                26.4100                23.2209

                     79                     80                     81
                      A                      A                      A
 Frequencies --   3089.0668              3163.5574              3170.0391
 Red. masses --      1.1059                 1.0896                 1.0870
 Frc consts  --      6.2174                 6.4250                 6.4358
 IR Inten    --     16.1766                10.6553                 3.3039

                     82                     83                     84
                      A                      A                      A
 Frequencies --   3183.7104              3184.3984              3198.8925
 Red. masses --      1.0905                 1.0918                 1.0927
 Frc consts  --      6.5122                 6.5229                 6.5877
 IR Inten    --      3.2945                11.0027                 4.3104

                     85                     86                     87
                      A                      A                      A
 Frequencies --   3199.8916              3202.4581              3843.8413
 Red. masses --      1.0925                 1.0949                 1.0668
 Frc consts  --      6.5908                 6.6162                 9.2867
 IR Inten    --      0.3739                11.6086                46.6792

 - Thermochemistry -
 -------------------
 Temperature   298.150 Kelvin.  Pressure   1.00000 Atm.
 Atom     1 has atomic number  6 and mass  12.00000

 Molecular mass:   252.07864 amu.
 Principal axes and moments of inertia in atomic units:
                           1         2         3
     Eigenvalues --  1953.518559138.90476**********
           X            0.81530   0.57606  -0.05875
           Y            0.38812  -0.46836   0.79373
           Z           -0.42971   0.66993   0.60543
 This molecule is an asymmetric top.
 Rotational symmetry number  1.
 Warning -- assumption of classical behavior for rotation
           may cause significant error
 Rotational temperatures (Kelvin)      0.04434     0.00948     0.00799
 Rotational constants (GHZ):           0.92384     0.19748     0.16652
 Zero-point vibrational energy     630477.0 (Joules/Mol)
                                  150.68763 (Kcal/Mol)
 Warning -- explicit consideration of  22 degrees of freedom as
           vibrations may cause significant error
 Vibrational temperatures:     38.16    45.43    91.94   128.07   162.27
          (Kelvin)            181.00   227.45   271.69   306.39   351.12
                              383.31   414.86   466.93   537.83   551.78
                              578.91   596.46   631.87   639.69   661.15
                              692.12   798.01   893.61   932.04   969.74
                              993.18  1008.70  1048.23  1060.39  1107.54
                             1157.93  1161.93  1164.40  1238.13  1261.86
                             1319.31  1359.21  1362.02  1428.70  1442.40
                             1448.04  1452.58  1465.54  1514.51  1519.70
                             1528.92  1598.51  1614.50  1673.72  1698.18
                             1718.03  1748.90  1763.28  1771.05  1783.68
                             1853.97  1879.07  1883.15  1901.15  1925.57
                             1947.52  1963.46  2072.54  2082.90  2131.66
                             2154.76  2163.05  2185.50  2191.94  2301.53
                             2323.40  2342.10  2355.14  2471.13  2486.60
                             4292.58  4340.03  4380.42  4444.48  4551.65
                             4560.98  4580.65  4581.64  4602.49  4603.93
                             4607.62  5530.43

 Zero-point correction=                           0.240136 (Hartree/Particle)
 Thermal correction to Energy=                    0.255675
 Thermal correction to Enthalpy=                  0.256620
 Thermal correction to Gibbs Free Energy=         0.195837
 Sum of electronic and zero-point Energies=           -842.604765
 Sum of electronic and thermal Energies=              -842.589226
 Sum of electronic and thermal Enthalpies=            -842.588281
 Sum of electronic and thermal Free Energies=         -842.649064

                     E (Thermal)             CV                S
                      KCal/Mol        Cal/Mol-Kelvin    Cal/Mol-Kelvin
 Total                  160.439             60.171            127.927
 Electronic               0.000              0.000              0.000
 Translational            0.889              2.981             42.474
 Rotational               0.889              2.981             33.625
 Vibrational            158.661             54.209             51.827
 Vibration     1          0.593              1.984              6.074
 Vibration     2          0.594              1.983              5.728
 Vibration     3          0.597              1.972              4.333
 Vibration     4          0.602              1.957              3.682
 Vibration     5          0.607              1.939              3.220
 Vibration     6          0.611              1.927              3.009
 Vibration     7          0.621              1.894              2.573
 Vibration     8          0.633              1.855              2.239
 Vibration     9          0.644              1.821              2.018
 Vibration    10          0.659              1.773              1.773
 Vibration    11          0.672              1.735              1.619
 Vibration    12          0.685              1.695              1.484
 Vibration    13          0.709              1.626              1.287
 Vibration    14          0.745              1.526              1.064
 Vibration    15          0.753              1.505              1.025
 Vibration    16          0.768              1.465              0.954
 Vibration    17          0.778              1.439              0.911
 Vibration    18          0.799              1.385              0.829
 Vibration    19          0.804              1.373              0.812
 Vibration    20          0.817              1.340              0.768
 Vibration    21          0.837              1.292              0.707
 Vibration    22          0.910              1.130              0.535

 Optimization completed.
    -- Stationary point found.
 Normal termination of Gaussian 16 at Thu Dec 21 20:24:46 2023.
