 Gaussian 16, Revision A.03,
 Gaussian 16:  ES64L-G16RevA.03 25-Dec-2016

 ----------------------------------------------
 #P UB3LYP/6-311++G(d,p) nosym opt freq SCF=YQC
 ----------------------------------------------

 -------
 Reduced
 -------
 Symbolic Z-matrix:
 Charge = -2 Multiplicity = 1

 SCF Done:  E(UB3LYP) =  -925.034777464     a.u. after    9 cycles
 SCF Done:  E(UB3LYP) =  -924.854906830     A.U. after   33 cycles
 SCF Done:  E(UB3LYP) =  -925.070425426     a.u. after   42 cycles
 SCF Done:  E(UB3LYP) =  -925.099026086     a.u. after   49 cycles
 SCF Done:  E(UB3LYP) =  -925.099275099     A.U. after   24 cycles
 SCF Done:  E(UB3LYP) =  -925.107631904     a.u. after   30 cycles
 SCF Done:  E(UB3LYP) =  -925.107892890     A.U. after   24 cycles
 SCF Done:  E(UB3LYP) =  -925.110484668     a.u. after   27 cycles
 SCF Done:  E(UB3LYP) =  -925.110711997     A.U. after   24 cycles
 SCF Done:  E(UB3LYP) =  -925.110906823     a.u. after   12 cycles
 SCF Done:  E(UB3LYP) =  -925.117806456     a.u. after   18 cycles
 SCF Done:  E(UB3LYP) =  -925.117886560     A.U. after   20 cycles
 SCF Done:  E(UB3LYP) =  -925.117816023     a.u. after    6 cycles
 SCF Done:  E(UB3LYP) =  -925.117887861     A.U. after   23 cycles
 SCF Done:  E(UB3LYP) =  -925.117847217     a.u. after    1 cycles
 SCF Done:  E(UB3LYP) =  -925.117887982     A.U. after   23 cycles
 SCF Done:  E(UB3LYP) =  -925.117883271     a.u. after    1 cycles
 SCF Done:  E(UB3LYP) =  -925.117888005     A.U. after   19 cycles
 Optimization completed.
    -- Stationary point found.
 Normal termination of Gaussian 16 at Wed Dec 27 22:53:26 2023.

 ----------------------------------------------------------------------
 #P Geom=AllCheck Guess=TCheck SCRF=Check GenChk UB3LYP/6-311++G(d,p) F
 req
 ----------------------------------------------------------------------

 Structure from the checkpoint file:  "286-an.chk"
 -------
 Reduced
 -------
 Charge = -2 Multiplicity = 1

                          Input orientation:
 ---------------------------------------------------------------------
 Center     Atomic      Atomic             Coordinates (Angstroms)
 Number     Number       Type             X           Y           Z
 ---------------------------------------------------------------------
      1          6           0       -0.273973    3.829216   -0.115816
      2          6           0       -1.497312    3.237957   -0.363560
      3          6           0       -1.559426    1.881282   -0.768576
      4          6           0        0.939755    3.109041   -0.256237
      5          6           0        0.877801    1.728230   -0.670643
      6          6           0       -0.385360    1.157989   -0.914311
      7          6           0        2.202929    3.732434    0.006958
      8          6           0        3.356728    2.905220   -0.170269
      9          6           0        3.340484    1.571013   -0.563733
     10          6           0        2.088437    0.914547   -0.840817
     11          8           0        2.386420    4.960020    0.386903
     12          8           0        2.028510   -0.305339   -1.206806
     13          1           0       -0.202740    4.866612    0.195389
     14          1           0       -2.413791    3.813352   -0.248598
     15          1           0       -2.521069    1.412858   -0.964572
     16          1           0       -0.399027    0.117988   -1.224945
     17          8           0        4.533598    3.564572    0.100102
     18          6           0        4.618176    0.781936   -0.699941
     19          6           0        5.198015    0.764345   -2.129652
     20          6           0        6.485322   -0.061950   -2.247561
     21          6           0        7.099482   -0.082722   -3.654010
     22          6           0        8.389655   -0.907583   -3.756012
     23          1           0        4.177810    4.453366    0.346392
     24          1           0        4.407767   -0.253313   -0.407417
     25          1           0        5.375658    1.187904   -0.019124
     26          1           0        5.394932    1.795760   -2.447039
     27          1           0        4.435529    0.360322   -2.804434
     28          1           0        6.278510   -1.093692   -1.931322
     29          1           0        7.230225    0.328692   -1.539495
     30          1           0        7.304463    0.948104   -3.972784
     31          1           0        6.360669   -0.476847   -4.364262
     32          1           0        8.182653   -1.939287   -3.440655
     33          1           0        9.124199   -0.515546   -3.039288
     34          6           0        9.017742   -0.927169   -5.156119
     35          1           0        9.226314    0.102935   -5.474109
     36          1           0        8.288647   -1.322413   -5.875714
     37          6           0       10.309266   -1.750927   -5.245475
     38          6           0       10.941460   -1.766043   -6.640745
     39          1           0       10.100831   -2.781776   -4.930879
     40          1           0       11.036531   -1.358577   -4.522790
     41          1           0       10.259090   -2.191669   -7.385552
     42          1           0       11.860565   -2.361470   -6.666931
     43          1           0       11.202735   -0.754743   -6.973272
 ---------------------------------------------------------------------

 SCF Done:  E(UB3LYP) =  -925.117888005     a.u. after    1 cycles
 SCF Done:  E(UB3LYP) =  -925.117888005     A.U. after    3 cycles

 Alpha  occ. eigenvalues --  -18.91675 -18.83802 -18.82771 -10.01821 -10.01432
 Alpha  occ. eigenvalues --  -10.01036 -10.00927 -10.00104  -9.98902  -9.98800
 Alpha  occ. eigenvalues --   -9.98565  -9.97835  -9.96737  -9.96554  -9.96133
 Alpha  occ. eigenvalues --   -9.95741  -9.95597  -9.95475  -9.94740  -9.94427
 Alpha  occ. eigenvalues --   -9.93518  -0.83106  -0.74667  -0.73956  -0.65561
 Alpha  occ. eigenvalues --   -0.63543  -0.62177  -0.59078  -0.57005  -0.54038
 Alpha  occ. eigenvalues --   -0.53254  -0.50920  -0.47396  -0.44529  -0.43149
 Alpha  occ. eigenvalues --   -0.42239  -0.40113  -0.39080  -0.36786  -0.34397
 Alpha  occ. eigenvalues --   -0.33021  -0.31425  -0.29798  -0.28454  -0.27922
 Alpha  occ. eigenvalues --   -0.26586  -0.26128  -0.25367  -0.24242  -0.23586
 Alpha  occ. eigenvalues --   -0.22812  -0.22131  -0.21547  -0.20982  -0.19817
 Alpha  occ. eigenvalues --   -0.19320  -0.18712  -0.18502  -0.17726  -0.17615
 Alpha  occ. eigenvalues --   -0.17068  -0.16725  -0.15957  -0.15564  -0.15273
 Alpha  occ. eigenvalues --   -0.14548  -0.14471  -0.13087  -0.12060  -0.11526
 Alpha  occ. eigenvalues --   -0.10740  -0.10333  -0.03701  -0.02890  -0.01937
 Alpha  occ. eigenvalues --    0.00005   0.00250   0.09635
 Alpha virt. eigenvalues --    0.10437   0.13006   0.13415   0.13606   0.14243
 Alpha virt. eigenvalues --    0.15758   0.16009   0.16050   0.16143   0.16793
 Alpha virt. eigenvalues --    0.17870   0.18570   0.18659   0.18793   0.19206

  Beta  occ. eigenvalues --  -18.91675 -18.83802 -18.82771 -10.01821 -10.01432
  Beta  occ. eigenvalues --  -10.01036 -10.00927 -10.00104  -9.98902  -9.98800
  Beta  occ. eigenvalues --   -9.98565  -9.97835  -9.96737  -9.96554  -9.96133
  Beta  occ. eigenvalues --   -9.95741  -9.95597  -9.95475  -9.94740  -9.94427
  Beta  occ. eigenvalues --   -9.93518  -0.83106  -0.74667  -0.73956  -0.65561
  Beta  occ. eigenvalues --   -0.63543  -0.62177  -0.59078  -0.57005  -0.54038
  Beta  occ. eigenvalues --   -0.53254  -0.50920  -0.47396  -0.44529  -0.43149
  Beta  occ. eigenvalues --   -0.42239  -0.40113  -0.39080  -0.36786  -0.34397
  Beta  occ. eigenvalues --   -0.33021  -0.31425  -0.29798  -0.28454  -0.27922
  Beta  occ. eigenvalues --   -0.26586  -0.26128  -0.25367  -0.24242  -0.23586
  Beta  occ. eigenvalues --   -0.22812  -0.22131  -0.21547  -0.20982  -0.19817
  Beta  occ. eigenvalues --   -0.19320  -0.18712  -0.18502  -0.17726  -0.17615
  Beta  occ. eigenvalues --   -0.17068  -0.16725  -0.15957  -0.15564  -0.15273
  Beta  occ. eigenvalues --   -0.14548  -0.14471  -0.13087  -0.12060  -0.11526
  Beta  occ. eigenvalues --   -0.10740  -0.10333  -0.03701  -0.02890  -0.01937
  Beta  occ. eigenvalues --    0.00005   0.00250   0.09635
  Beta virt. eigenvalues --    0.10437   0.13006   0.13415   0.13606   0.14243
  Beta virt. eigenvalues --    0.15758   0.16009   0.16050   0.16143   0.16793
  Beta virt. eigenvalues --    0.17870   0.18570   0.18659   0.18793   0.19206

 Mulliken charges and spin densities:
               1          2
     1  C   -0.054120   0.000000
     2  C   -0.287925  -0.000000
     3  C   -0.403446  -0.000000
     4  C    0.697518  -0.000000
     5  C    0.010860  -0.000000
     6  C    0.041757  -0.000000
     7  C   -1.335846   0.000000
     8  C   -0.677224   0.000000
     9  C    2.348297  -0.000000
    10  C   -0.959627   0.000000
    11  O   -0.541575  -0.000000
    12  O   -0.439573  -0.000000
    13  H    0.137618  -0.000000
    14  H    0.090851  -0.000000
    15  H    0.088052  -0.000000
    16  H    0.143248   0.000000
    17  O   -0.283152   0.000000
    18  C   -0.449304  -0.000000
    19  C   -0.709248   0.000000
    20  C   -0.001480   0.000000
    21  C    0.020511  -0.000000
    22  C   -0.189929   0.000000
    23  H    0.253866  -0.000000
    24  H    0.191196  -0.000000
    25  H    0.206015  -0.000000
    26  H    0.144147  -0.000000
    27  H    0.192564  -0.000000
    28  H    0.092300   0.000000
    29  H    0.081170   0.000000
    30  H    0.086799   0.000000
    31  H    0.092104   0.000000
    32  H    0.108431  -0.000000
    33  H    0.096665  -0.000000
    34  C    0.764403  -0.000000
    35  H    0.142228  -0.000000
    36  H    0.130186  -0.000000
    37  C   -2.190958  -0.000000
    38  C    2.129212   0.000000
    39  H    0.016396  -0.000000
    40  H   -0.009558   0.000000
    41  H   -0.298802   0.000000
    42  H   -1.164879   0.000000
    43  H   -0.309748   0.000000
 Sum of Mulliken charges =  -2.00000   0.00000

 Dipole moment (field-independent basis, Debye):
    X=            -43.7508    Y=            -10.7740    Z=             20.7449  Tot=             49.6041
 Quadrupole moment (field-independent basis, Debye-Ang):
   XX=           -560.0995   YY=           -235.8185   ZZ=           -279.3447
   XY=             36.9733   XZ=            216.4091   YZ=            -43.2587

  Exact polarizability:2791.328-918.0661159.534******** 559.5511525.309
 Approx polarizability:****************8749.238************************

                      1                      2                      3
                      A                      A                      A
 Frequencies --     12.9037                25.9515                34.6964
 Red. masses --      5.3302                 5.1433                 1.6133
 Frc consts  --      0.0005                 0.0020                 0.0011
 IR Inten    --      0.7425                 1.2414                 0.6872

                      4                      5                      6
                      A                      A                      A
 Frequencies --     43.8822                65.6365                95.9878
 Red. masses --      3.4163                 4.6109                 2.0505
 Frc consts  --      0.0039                 0.0117                 0.0111
 IR Inten    --      8.0339                10.0585                 1.0118

                      7                      8                      9
                      A                      A                      A
 Frequencies --    100.8760               103.4428               123.3176
 Red. masses --      4.0099                 2.4604                 4.6892
 Frc consts  --      0.0240                 0.0155                 0.0420
 IR Inten    --      0.4739                 0.3061                 0.2517

                     10                     11                     12
                      A                      A                      A
 Frequencies --    147.6796               155.1688               160.8855
 Red. masses --      1.7814                 5.1221                 2.1433
 Frc consts  --      0.0229                 0.0727                 0.0327
 IR Inten    --      0.0976                 1.4564                 1.0290

                     13                     14                     15
                      A                      A                      A
 Frequencies --    166.7314               183.7631               251.3150
 Red. masses --      4.2733                 7.4587                 4.4978
 Frc consts  --      0.0700                 0.1484                 0.1674
 IR Inten    --      0.4025                 2.8022                 3.4242

                     16                     17                     18
                      A                      A                      A
 Frequencies --    259.4538               262.8282               295.1921
 Red. masses --      4.2741                 1.1151                 2.8407
 Frc consts  --      0.1695                 0.0454                 0.1458
 IR Inten    --      2.4701                 8.6265                 3.4764

                     19                     20                     21
                      A                      A                      A
 Frequencies --    311.2252               336.5791               356.3324
 Red. masses --      3.5927                 5.0500                 5.8643
 Frc consts  --      0.2050                 0.3371                 0.4387
 IR Inten    --      0.9443                 5.4221                13.1557

                     22                     23                     24
                      A                      A                      A
 Frequencies --    370.5698               396.6719               431.9664
 Red. masses --      8.6531                 6.0335                 7.8324
 Frc consts  --      0.7001                 0.5594                 0.8611
 IR Inten    --      2.3213                36.6973               200.1604

                     25                     26                     27
                      A                      A                      A
 Frequencies --    434.2827               458.3138               467.8376
 Red. masses --      3.9445                 3.2952                 4.2722
 Frc consts  --      0.4383                 0.4078                 0.5509
 IR Inten    --      3.1948                24.6907               296.3526

                     28                     29                     30
                      A                      A                      A
 Frequencies --    490.8500               526.8979               561.8692
 Red. masses --      4.4880                 6.1425                 5.6389
 Frc consts  --      0.6371                 1.0047                 1.0488
 IR Inten    --    267.9232               170.8334                 7.5631

                     31                     32                     33
                      A                      A                      A
 Frequencies --    641.6509               671.2442               695.2035
 Red. masses --      6.1714                 5.5302                 2.5002
 Frc consts  --      1.4970                 1.4681                 0.7120
 IR Inten    --      3.8642                 5.6522                38.4874

                     34                     35                     36
                      A                      A                      A
 Frequencies --    696.4636               704.5046               725.1349
 Red. masses --      2.7217                 4.2033                 1.0626
 Frc consts  --      0.7778                 1.2291                 0.3292
 IR Inten    --     22.7667                 8.9508                 6.9476

                     37                     38                     39
                      A                      A                      A
 Frequencies --    730.7102               742.7345               747.3722
 Red. masses --      1.1334                 2.6875                 1.2558
 Frc consts  --      0.3565                 0.8735                 0.4133
 IR Inten    --      7.7779                32.0466                 3.7228

                     40                     41                     42
                      A                      A                      A
 Frequencies --    771.3324               775.2339               787.2199
 Red. masses --      2.7595                 1.2969                 1.3386
 Frc consts  --      0.9673                 0.4592                 0.4888
 IR Inten    --     15.3361                39.9404                 2.1770

                     43                     44                     45
                      A                      A                      A
 Frequencies --    813.0606               845.6369               887.3341
 Red. masses --      1.4941                 1.6068                 1.9649
 Frc consts  --      0.5819                 0.6770                 0.9115
 IR Inten    --      0.0550                28.6035                18.8648

                     46                     47                     48
                      A                      A                      A
 Frequencies --    893.3689               940.0741               945.3875
 Red. masses --      1.9801                 5.0455                 1.2592
 Frc consts  --      0.9311                 2.6271                 0.6631
 IR Inten    --     17.0347                98.0130                 0.9791

                     49                     50                     51
                      A                      A                      A
 Frequencies --    952.4422               959.9142               982.8658
 Red. masses --      1.4726                 1.3199                 4.6123
 Frc consts  --      0.7871                 0.7166                 2.6252
 IR Inten    --     21.7605                 1.6399                 9.4673

                     52                     53                     54
                      A                      A                      A
 Frequencies --    999.0405              1019.4958              1022.4251
 Red. masses --      4.0572                 1.4218                 2.0531
 Frc consts  --      2.3858                 0.8707                 1.2645
 IR Inten    --     41.1671                89.1195               268.0671

                     55                     56                     57
                      A                      A                      A
 Frequencies --   1036.0025              1050.4696              1054.4557
 Red. masses --      2.8920                 2.8791                 2.2381
 Frc consts  --      1.8288                 1.8718                 1.4661
 IR Inten    --     19.0780                10.8069               108.2262

                     58                     59                     60
                      A                      A                      A
 Frequencies --   1057.5726              1062.9345              1098.0456
 Red. masses --      2.3742                 2.3447                 2.0644
 Frc consts  --      1.5645                 1.5608                 1.4665
 IR Inten    --      2.0740                44.3953                57.0271

                     61                     62                     63
                      A                      A                      A
 Frequencies --   1127.8832              1131.1976              1136.0423
 Red. masses --      2.1201                 2.4604                 1.3239
 Frc consts  --      1.5890                 1.8550                 1.0067
 IR Inten    --     47.3383                22.5149               141.9319

                     64                     65                     66
                      A                      A                      A
 Frequencies --   1184.3929              1191.5993              1208.2970
 Red. masses --      3.4623                 2.0032                 1.7451
 Frc consts  --      2.8616                 1.6759                 1.5012
 IR Inten    --    281.8985               234.3090                31.1641

                     67                     68                     69
                      A                      A                      A
 Frequencies --   1228.8653              1239.8151              1255.5362
 Red. masses --      1.2674                 2.4014                 1.5411
 Frc consts  --      1.1277                 2.1748                 1.4313
 IR Inten    --      5.9541                57.7356               118.6260

                     70                     71                     72
                      A                      A                      A
 Frequencies --   1275.0291              1283.8736              1297.6540
 Red. masses --      1.3656                 2.0028                 1.3701
 Frc consts  --      1.3080                 1.9451                 1.3594
 IR Inten    --      6.5433                 4.7057                59.6024

                     73                     74                     75
                      A                      A                      A
 Frequencies --   1317.9490              1321.0115              1323.8503
 Red. masses --      1.0345                 1.3559                 1.2097
 Frc consts  --      1.0588                 1.3941                 1.2491
 IR Inten    --     22.0384                 8.2518               173.3238

                     76                     77                     78
                      A                      A                      A
 Frequencies --   1328.9208              1333.0197              1339.7258
 Red. masses --      1.0772                 1.1887                 4.9689
 Frc consts  --      1.1209                 1.2445                 5.2546
 IR Inten    --     27.8688               289.0846               745.2085

                     79                     80                     81
                      A                      A                      A
 Frequencies --   1352.4571              1363.6887              1372.2248
 Red. masses --      1.5195                 1.7861                 1.5178
 Frc consts  --      1.6376                 1.9570                 1.6839
 IR Inten    --    397.6541               431.7761                 5.0458

                     82                     83                     84
                      A                      A                      A
 Frequencies --   1385.9481              1388.4476              1402.7292
 Red. masses --      1.5681                 1.5788                 1.2636
 Frc consts  --      1.7747                 1.7933                 1.4649
 IR Inten    --     46.3538               164.1802               524.5523

                     85                     86                     87
                      A                      A                      A
 Frequencies --   1425.7298              1439.6795              1446.9515
 Red. masses --      3.6875                 2.4199                 2.7344
 Frc consts  --      4.4163                 2.9552                 3.3730
 IR Inten    --   3000.5901              1222.2422                74.6303

                     88                     89                     90
                      A                      A                      A
 Frequencies --   1469.4541              1480.0058              1480.9555
 Red. masses --      1.5171                 1.0727                 1.0918
 Frc consts  --      1.9301                 1.3844                 1.4108
 IR Inten    --    760.1055                12.0340                64.6844

                     91                     92                     93
                      A                      A                      A
 Frequencies --   1483.4173              1484.8353              1488.4243
 Red. masses --      1.0822                 1.0409                 1.0986
 Frc consts  --      1.4031                 1.3521                 1.4340
 IR Inten    --     39.7652               460.4933                10.0513

                     94                     95                     96
                      A                      A                      A
 Frequencies --   1491.4943              1496.0522              1503.7578
 Red. masses --      3.1655                 1.0878                 1.0960
 Frc consts  --      4.1489                 1.4345                 1.4602
 IR Inten    --    918.7919                56.7434               105.8248

                     97                     98                     99
                      A                      A                      A
 Frequencies --   1511.0824              1514.5516              1547.7700
 Red. masses --      1.0994                 4.4979                 4.1970
 Frc consts  --      1.4791                 6.0789                 5.9238
 IR Inten    --     12.1351              1112.8589              1758.4872

                    100                    101                    102
                      A                      A                      A
 Frequencies --   1594.0112              1607.8803              2975.7208
 Red. masses --      5.0259                 5.0612                 1.0586
 Frc consts  --      7.5240                 7.7093                 5.5228
 IR Inten    --     35.1532              3666.1448                10.0830

                    103                    104                    105
                      A                      A                      A
 Frequencies --   2983.0637              2985.8212              2989.9507
 Red. masses --      1.0573                 1.0508                 1.0504
 Frc consts  --      5.5435                 5.5194                 5.5325
 IR Inten    --      0.6228                11.0444                20.4634

                    106                    107                    108
                      A                      A                      A
 Frequencies --   2990.7179              2995.7465              2997.7662
 Red. masses --      1.0544                 1.0910                 1.0598
 Frc consts  --      5.5568                 5.7689                 5.6116
 IR Inten    --      3.3379                11.6847                89.7771

                    109                    110                    111
                      A                      A                      A
 Frequencies --   2998.8679              3000.2686              3008.1505
 Red. masses --      1.0624                 1.0953                 1.0953
 Frc consts  --      5.6294                 5.8092                 5.8397
 IR Inten    --     47.3269                 9.8106                25.3441

                    112                    113                    114
                      A                      A                      A
 Frequencies --   3011.6453              3024.7890              3034.5934
 Red. masses --      1.0710                 1.1029                 1.1000
 Frc consts  --      5.7235                 5.9455                 5.9682
 IR Inten    --     71.8132                 2.5474                11.7274

                    115                    116                    117
                      A                      A                      A
 Frequencies --   3039.9319              3051.0752              3053.2260
 Red. masses --      1.1052                 1.1006                 1.1023
 Frc consts  --      6.0177                 6.0368                 6.0542
 IR Inten    --     28.1639                60.1456                 8.3262

                    118                    119                    120
                      A                      A                      A
 Frequencies --   3060.5668              3104.5255              3127.8806
 Red. masses --      1.1055                 1.0832                 1.0902
 Frc consts  --      6.1010                 6.1513                 6.2842
 IR Inten    --     54.0478                66.2546               283.6598

                    121                    122                    123
                      A                      A                      A
 Frequencies --   3161.7437              3164.4475              3377.9096
 Red. masses --      1.0906                 1.0920                 1.0636
 Frc consts  --      6.4236                 6.4430                 7.1503
 IR Inten    --     33.1305               274.5872                52.1238

 - Thermochemistry -
 -------------------
 Temperature   298.150 Kelvin.  Pressure   1.00000 Atm.
 Atom     1 has atomic number  6 and mass  12.00000

 Molecular mass:   286.15689 amu.
 Principal axes and moments of inertia in atomic units:
                           1         2         3
     Eigenvalues --  2458.19500********************
           X            0.82206   0.53923   0.18289
           Y           -0.37329   0.75291  -0.54201
           Z           -0.42997   0.37730   0.82023
 This molecule is an asymmetric top.
 Rotational symmetry number  1.
 Warning -- assumption of classical behavior for rotation
           may cause significant error
 Rotational temperatures (Kelvin)      0.03523     0.00428     0.00399
 Rotational constants (GHZ):           0.73417     0.08920     0.08304
 Zero-point vibrational energy     941084.6 (Joules/Mol)
                                  224.92462 (Kcal/Mol)
 Warning -- explicit consideration of  30 degrees of freedom as
           vibrations may cause significant error
 Vibrational temperatures:     18.57    37.34    49.92    63.14    94.44
          (Kelvin)            138.11   145.14   148.83   177.43   212.48
                              223.25   231.48   239.89   264.39   361.59
                              373.30   378.15   424.72   447.78   484.26
                              512.68   533.17   570.72   621.50   624.84
                              659.41   673.11   706.22   758.09   808.40
                              923.19   965.77  1000.24  1002.06  1013.62
                             1043.31  1051.33  1068.63  1075.30  1109.78
                             1115.39  1132.63  1169.81  1216.68  1276.68
                             1285.36  1352.56  1360.20  1370.35  1381.10
                             1414.12  1437.40  1466.83  1471.04  1490.58
                             1511.39  1517.13  1521.61  1529.33  1579.84
                             1622.77  1627.54  1634.51  1704.08  1714.45
                             1738.47  1768.06  1783.82  1806.44  1834.48
                             1847.21  1867.03  1896.23  1900.64  1904.73
                             1912.02  1917.92  1927.57  1945.88  1962.04
                             1974.33  1994.07  1997.67  2018.21  2051.31
                             2071.38  2081.84  2114.22  2129.40  2130.76
                             2134.31  2136.35  2141.51  2145.93  2152.49
                             2163.57  2174.11  2179.10  2226.90  2293.43
                             2313.38  4281.40  4291.96  4295.93  4301.87
                             4302.98  4310.21  4313.12  4314.70  4316.72
                             4328.06  4333.09  4352.00  4366.10  4373.78
                             4389.82  4392.91  4403.47  4466.72  4500.32
                             4549.04  4552.93  4860.06

 Zero-point correction=                           0.358440 (Hartree/Particle)
 Thermal correction to Energy=                    0.379312
 Thermal correction to Enthalpy=                  0.380256
 Thermal correction to Gibbs Free Energy=         0.306017
 Sum of electronic and zero-point Energies=           -924.759448
 Sum of electronic and thermal Energies=              -924.738576
 Sum of electronic and thermal Enthalpies=            -924.737632
 Sum of electronic and thermal Free Energies=         -924.811871

                     E (Thermal)             CV                S
                      KCal/Mol        Cal/Mol-Kelvin    Cal/Mol-Kelvin
 Total                  238.022             78.858            156.249
 Electronic               0.000              0.000              0.000
 Translational            0.889              2.981             42.852
 Rotational               0.889              2.981             35.334
 Vibrational            236.244             72.897             78.063
 Vibration     1          0.593              1.987              7.505
 Vibration     2          0.593              1.985              6.117
 Vibration     3          0.594              1.983              5.541
 Vibration     4          0.595              1.980              5.076
 Vibration     5          0.597              1.971              4.280
 Vibration     6          0.603              1.952              3.534
 Vibration     7          0.604              1.948              3.437
 Vibration     8          0.605              1.946              3.388
 Vibration     9          0.610              1.930              3.048
 Vibration    10          0.617              1.905              2.702
 Vibration    11          0.620              1.897              2.608
 Vibration    12          0.622              1.890              2.539
 Vibration    13          0.624              1.883              2.472
 Vibration    14          0.631              1.862              2.290
 Vibration    15          0.663              1.761              1.721
 Vibration    16          0.668              1.747              1.665
 Vibration    17          0.670              1.741              1.643
 Vibration    18          0.689              1.683              1.444
 Vibration    19          0.700              1.652              1.356
 Vibration    20          0.717              1.602              1.228
 Vibration    21          0.732              1.562              1.138
 Vibration    22          0.743              1.533              1.077
 Vibration    23          0.763              1.477              0.975
 Vibration    24          0.793              1.401              0.852
 Vibration    25          0.795              1.396              0.845
 Vibration    26          0.816              1.343              0.771
 Vibration    27          0.825              1.321              0.744
 Vibration    28          0.847              1.270              0.681
 Vibration    29          0.882              1.190              0.594
 Vibration    30          0.918              1.114              0.520

 Optimization completed.
    -- Stationary point found.
 Normal termination of Gaussian 16 at Thu Dec 28 00:09:17 2023.
