 Q-Chem 5.4, Q-Chem, Inc., Pleasanton, CA (2021)
 Q-Chem 5.4.0 for Intel X86 EM64T Linux

User input:
--------------------------------------------------------------
$molecule
0 1
O                  2.7290710000     -2.7081710000     -1.3568140000
C                  2.2231930000     -1.7371550000     -0.8138060000
C                  0.7552560000     -1.5923460000     -0.7503020000
C                  0.1114840000     -0.5571600000     -0.1735920000
C                 -1.3997970000     -0.4894150000     -0.1552140000
C                 -1.9618410000      0.7183770000     -0.9440990000
C                 -3.4966100000      0.6873410000     -0.9749910000
C                 -4.0913110000      0.6278210000      0.4386710000
C                 -3.5267250000     -0.5585900000      1.2319810000
C                 -1.9920570000     -0.5342930000      1.2745560000
C                  0.9195320000      0.5410020000      0.4569420000
O                  0.3793500000      1.4960620000      0.9918400000
C                  2.4107660000      0.4350550000      0.4151820000
C                  3.1833580000      1.4452630000      0.9949400000
C                  4.5716450000      1.3640910000      0.9652280000
C                  5.1994300000      0.2741290000      0.3567910000
C                  4.4378450000     -0.7355290000     -0.2223540000
C                  3.0438920000     -0.6591010000     -0.1954000000
H                  0.2032110000     -2.4034450000     -1.2156020000
H                 -1.7451390000     -1.3950700000     -0.6712480000
H                 -1.6206430000      1.6446280000     -0.4749120000
H                 -1.5648280000      0.7061070000     -1.9647500000
H                 -3.8705330000      1.5677720000     -1.5075120000
H                 -3.8331040000     -0.1877280000     -1.5466650000
H                 -3.8571850000      1.5600260000      0.9681050000
H                 -5.1830170000      0.5626540000      0.3870260000
H                 -3.8647660000     -1.4961830000      0.7710540000
H                 -3.9219670000     -0.5552210000      2.2529290000
H                 -1.6163740000     -1.4192170000      1.7992010000
H                 -1.6519850000      0.3418050000      1.8324960000
H                  2.6789650000      2.2822030000      1.4617390000
H                  5.1676050000      2.1496060000      1.4158380000
H                  6.2816890000      0.2148430000      0.3358370000
H                  4.9015920000     -1.5901650000     -0.6996880000
$end
$rem
MAX_SCF_CYCLES=200
BASIS  =  6-311++G(d,p)
GUI  =  2
JOB_TYPE  =  SP
METHOD  =  B3LYP
SOLVENT_METHOD = PCM
$end
$pcm
theory = CPCM
$end
$solvent
dielectric 37.219
opticaldielectric 1.43
$end

--------------------------------------------------------------

             Standard Nuclear Orientation (Angstroms)
    I     Atom           X                Y                Z
 ----------------------------------------------------------------
    1      O       2.7290710000    -2.7081710000    -1.3568140000
    2      C       2.2231930000    -1.7371550000    -0.8138060000
    3      C       0.7552560000    -1.5923460000    -0.7503020000
    4      C       0.1114840000    -0.5571600000    -0.1735920000
    5      C      -1.3997970000    -0.4894150000    -0.1552140000
    6      C      -1.9618410000     0.7183770000    -0.9440990000
    7      C      -3.4966100000     0.6873410000    -0.9749910000
    8      C      -4.0913110000     0.6278210000     0.4386710000
    9      C      -3.5267250000    -0.5585900000     1.2319810000
   10      C      -1.9920570000    -0.5342930000     1.2745560000
   11      C       0.9195320000     0.5410020000     0.4569420000
   12      O       0.3793500000     1.4960620000     0.9918400000
   13      C       2.4107660000     0.4350550000     0.4151820000
   14      C       3.1833580000     1.4452630000     0.9949400000
   15      C       4.5716450000     1.3640910000     0.9652280000
   16      C       5.1994300000     0.2741290000     0.3567910000
   17      C       4.4378450000    -0.7355290000    -0.2223540000
   18      C       3.0438920000    -0.6591010000    -0.1954000000
   19      H       0.2032110000    -2.4034450000    -1.2156020000
   20      H      -1.7451390000    -1.3950700000    -0.6712480000
   21      H      -1.6206430000     1.6446280000    -0.4749120000
   22      H      -1.5648280000     0.7061070000    -1.9647500000
   23      H      -3.8705330000     1.5677720000    -1.5075120000
   24      H      -3.8331040000    -0.1877280000    -1.5466650000
   25      H      -3.8571850000     1.5600260000     0.9681050000
   26      H      -5.1830170000     0.5626540000     0.3870260000
   27      H      -3.8647660000    -1.4961830000     0.7710540000
   28      H      -3.9219670000    -0.5552210000     2.2529290000
   29      H      -1.6163740000    -1.4192170000     1.7992010000
   30      H      -1.6519850000     0.3418050000     1.8324960000
   31      H       2.6789650000     2.2822030000     1.4617390000
   32      H       5.1676050000     2.1496060000     1.4158380000
   33      H       6.2816890000     0.2148430000     0.3358370000
   34      H       4.9015920000    -1.5901650000    -0.6996880000
 ----------------------------------------------------------------

    8    -770.0118900914      8.12e-06  Convergence criterion met
 Total energy in the final basis set =     -770.0118900914

                    Orbital Energies (a.u.)
 --------------------------------------------------------------

 Alpha MOs
 -- Occupied --
-19.1359 -19.1340 -10.2853 -10.2814 -10.2160 -10.2067 -10.2056 -10.2006
-10.1965 -10.1962 -10.1959 -10.1955 -10.1839 -10.1625 -10.1625 -10.1596
-10.1596 -10.1579  -1.0698  -1.0659  -0.8894  -0.8538  -0.8218  -0.7806
 -0.7770  -0.7397  -0.7395  -0.6924  -0.6514  -0.6401  -0.6081  -0.6031
 -0.5824  -0.5593  -0.5339  -0.5284  -0.5000  -0.4832  -0.4695  -0.4638
 -0.4528  -0.4505  -0.4499  -0.4374  -0.4374  -0.4313  -0.4203  -0.4197
 -0.3877  -0.3876  -0.3786  -0.3773  -0.3743  -0.3677  -0.3442  -0.3424
 -0.3208  -0.3104  -0.3085  -0.2904  -0.2841  -0.2779  -0.2752  -0.2725

          Ground-State Mulliken Net Atomic Charges

     Atom                 Charge (a.u.)
  ----------------------------------------
      1 O                    -0.309872
      2 C                    -0.533978
      3 C                    -0.222506
      4 C                     0.545184
      5 C                     0.661061
      6 C                    -0.568310
      7 C                    -0.380174
      8 C                    -0.427744
      9 C                    -0.379735
     10 C                    -0.566243
     11 C                    -0.656002
     12 O                    -0.250636
     13 C                    -0.200173
     14 C                     0.175411
     15 C                    -0.457074
     16 C                    -0.344449
     17 C                     0.121678
     18 C                     0.816084
     19 H                     0.256286
     20 H                     0.211870
     21 H                     0.181015
     22 H                     0.182583
     23 H                     0.180697
     24 H                     0.138298
     25 H                     0.122121
     26 H                     0.182633
     27 H                     0.138185
     28 H                     0.180816
     29 H                     0.182499
     30 H                     0.181180
     31 H                     0.198879
     32 H                     0.224076
     33 H                     0.225940
     34 H                     0.190401
  ----------------------------------------
  Sum of atomic charges =     0.000000

                    Cartesian Multipole Moments
 -----------------------------------------------------------------
    Charge (ESU x 10^10)
                 0.0000
    Dipole Moment (Debye)
         X       0.2826      Y       1.3581      Z       0.7635
       Tot       1.5835
    Quadrupole Moments (Debye-Ang)
        XX     -88.1984     XY      14.1651     YY    -116.8095
        XZ       8.2743     YZ      -4.4647     ZZ    -110.6083

 Total job time:  65.64s(wall), 422.80s(cpu)
        *  Thank you very much for using Q-Chem.  Have a nice day.  *
