 Gaussian 16, Revision A.03,
 Gaussian 16:  ES64L-G16RevA.03 25-Dec-2016

 --------------------------------------
 #P UB3LYP/6-311++G(d,p) nosym opt freq
 --------------------------------------

 --------
 Oxidized
 --------
 Symbolic Z-matrix:
 Charge =  0 Multiplicity = 1

 SCF Done:  E(UB3LYP) =  -770.000394173     A.U. after   16 cycles
 SCF Done:  E(UB3LYP) =  -770.000394036     A.U. after    9 cycles
 Optimization completed.
    -- Stationary point found.
 Normal termination of Gaussian 16 at Sun Jan  7 20:20:57 2024.

 ----------------------------------------------------------------------
 #P Geom=AllCheck Guess=TCheck SCRF=Check GenChk UB3LYP/6-311++G(d,p) F
 req
 ----------------------------------------------------------------------

 Structure from the checkpoint file:  "240.chk"
 --------
 Oxidized
 --------
 Charge =  0 Multiplicity = 1

                          Input orientation:
 ---------------------------------------------------------------------
 Center     Atomic      Atomic             Coordinates (Angstroms)
 Number     Number       Type             X           Y           Z
 ---------------------------------------------------------------------
      1          8           0        2.729071   -2.708171   -1.356814
      2          6           0        2.223193   -1.737155   -0.813806
      3          6           0        0.755256   -1.592346   -0.750302
      4          6           0        0.111484   -0.557160   -0.173592
      5          6           0       -1.399797   -0.489415   -0.155214
      6          6           0       -1.961841    0.718377   -0.944099
      7          6           0       -3.496610    0.687341   -0.974991
      8          6           0       -4.091311    0.627821    0.438671
      9          6           0       -3.526725   -0.558590    1.231981
     10          6           0       -1.992057   -0.534293    1.274556
     11          6           0        0.919532    0.541002    0.456942
     12          8           0        0.379350    1.496062    0.991840
     13          6           0        2.410766    0.435055    0.415182
     14          6           0        3.183358    1.445263    0.994940
     15          6           0        4.571645    1.364091    0.965228
     16          6           0        5.199430    0.274129    0.356791
     17          6           0        4.437845   -0.735529   -0.222354
     18          6           0        3.043892   -0.659101   -0.195400
     19          1           0        0.203211   -2.403445   -1.215602
     20          1           0       -1.745139   -1.395070   -0.671248
     21          1           0       -1.620643    1.644628   -0.474912
     22          1           0       -1.564828    0.706107   -1.964750
     23          1           0       -3.870533    1.567772   -1.507512
     24          1           0       -3.833104   -0.187728   -1.546665
     25          1           0       -3.857185    1.560026    0.968105
     26          1           0       -5.183017    0.562654    0.387026
     27          1           0       -3.864766   -1.496183    0.771054
     28          1           0       -3.921967   -0.555221    2.252929
     29          1           0       -1.616374   -1.419217    1.799201
     30          1           0       -1.651985    0.341805    1.832496
     31          1           0        2.678965    2.282203    1.461739
     32          1           0        5.167605    2.149606    1.415838
     33          1           0        6.281689    0.214843    0.335837
     34          1           0        4.901592   -1.590165   -0.699688
 ---------------------------------------------------------------------

 SCF Done:  E(UB3LYP) =  -770.000394036     A.U. after    2 cycles

 Alpha  occ. eigenvalues --  -19.13375 -19.12857 -10.28393 -10.27736 -10.21849
 Alpha  occ. eigenvalues --  -10.20964 -10.20827 -10.20471 -10.20333 -10.20277
 Alpha  occ. eigenvalues --  -10.20061 -10.20029 -10.19191 -10.16920 -10.16917
 Alpha  occ. eigenvalues --  -10.16792 -10.16791 -10.16573  -1.06723  -1.05950
 Alpha  occ. eigenvalues --   -0.89276  -0.85900  -0.82764  -0.78595  -0.78063
 Alpha  occ. eigenvalues --   -0.74700  -0.74571  -0.69439  -0.65651  -0.64434
 Alpha  occ. eigenvalues --   -0.61554  -0.60873  -0.58602  -0.56528  -0.53780
 Alpha  occ. eigenvalues --   -0.53197  -0.50100  -0.48944  -0.47633  -0.46035
 Alpha  occ. eigenvalues --   -0.45394  -0.45291  -0.45227  -0.44446  -0.44049
 Alpha  occ. eigenvalues --   -0.43705  -0.42410  -0.41671  -0.39466  -0.39313
 Alpha  occ. eigenvalues --   -0.38495  -0.38378  -0.37751  -0.37247  -0.35141
 Alpha  occ. eigenvalues --   -0.34939  -0.32784  -0.31608  -0.31490  -0.29272
 Alpha  occ. eigenvalues --   -0.28087  -0.28031  -0.28002  -0.27008
 Alpha virt. eigenvalues --   -0.12420  -0.05867  -0.03551  -0.01086  -0.00731
 Alpha virt. eigenvalues --    0.00301   0.00844   0.01026   0.01362   0.02279
 Alpha virt. eigenvalues --    0.02897   0.03046   0.03284   0.03648   0.03909

  Beta  occ. eigenvalues --  -19.13375 -19.12857 -10.28393 -10.27736 -10.21849
  Beta  occ. eigenvalues --  -10.20964 -10.20827 -10.20471 -10.20333 -10.20277
  Beta  occ. eigenvalues --  -10.20061 -10.20029 -10.19191 -10.16920 -10.16917
  Beta  occ. eigenvalues --  -10.16792 -10.16791 -10.16573  -1.06723  -1.05950
  Beta  occ. eigenvalues --   -0.89276  -0.85900  -0.82764  -0.78595  -0.78063
  Beta  occ. eigenvalues --   -0.74700  -0.74571  -0.69439  -0.65651  -0.64434
  Beta  occ. eigenvalues --   -0.61554  -0.60873  -0.58602  -0.56528  -0.53780
  Beta  occ. eigenvalues --   -0.53197  -0.50100  -0.48944  -0.47633  -0.46035
  Beta  occ. eigenvalues --   -0.45394  -0.45291  -0.45227  -0.44446  -0.44049
  Beta  occ. eigenvalues --   -0.43705  -0.42410  -0.41671  -0.39466  -0.39313
  Beta  occ. eigenvalues --   -0.38495  -0.38378  -0.37751  -0.37247  -0.35141
  Beta  occ. eigenvalues --   -0.34939  -0.32784  -0.31608  -0.31490  -0.29272
  Beta  occ. eigenvalues --   -0.28087  -0.28031  -0.28002  -0.27008
  Beta virt. eigenvalues --   -0.12420  -0.05867  -0.03551  -0.01086  -0.00731
  Beta virt. eigenvalues --    0.00301   0.00844   0.01026   0.01362   0.02279
  Beta virt. eigenvalues --    0.02897   0.03046   0.03284   0.03648   0.03909

 Mulliken charges and spin densities:
               1          2
     1  O   -0.224718  -0.000000
     2  C   -0.680776  -0.000000
     3  C   -0.203561  -0.000000
     4  C    0.597393   0.000000
     5  C    0.659426   0.000000
     6  C   -0.551039  -0.000000
     7  C   -0.355554   0.000000
     8  C   -0.405040   0.000000
     9  C   -0.354912   0.000000
    10  C   -0.551066  -0.000000
    11  C   -0.745557  -0.000000
    12  O   -0.184447  -0.000000
    13  C   -0.159332   0.000000
    14  C    0.161332  -0.000000
    15  C   -0.396539  -0.000000
    16  C   -0.270639  -0.000000
    17  C    0.109082  -0.000000
    18  C    0.810309  -0.000000
    19  H    0.222228  -0.000000
    20  H    0.179852   0.000000
    21  H    0.196787  -0.000000
    22  H    0.166633   0.000000
    23  H    0.174674  -0.000000
    24  H    0.125978  -0.000000
    25  H    0.118912  -0.000000
    26  H    0.175402   0.000000
    27  H    0.125968   0.000000
    28  H    0.174676  -0.000000
    29  H    0.166568   0.000000
    30  H    0.196876  -0.000000
    31  H    0.183524   0.000000
    32  H    0.177902  -0.000000
    33  H    0.179643   0.000000
    34  H    0.180011  -0.000000
 Sum of Mulliken charges =  -0.00000   0.00000

 Dipole moment (field-independent basis, Debye):
    X=              0.1382    Y=              1.1650    Z=              0.6547  Tot=              1.3436
 Quadrupole moment (field-independent basis, Debye-Ang):
   XX=            -92.7828   YY=           -115.0885   ZZ=           -110.2223
   XY=             10.3302   XZ=              6.0419   YZ=             -3.4918

  Exact polarizability: 256.858  -8.626 180.316  -3.251  31.729 141.842
 Approx polarizability: 342.837 -34.507 334.257 -17.665  82.378 234.075

                      1                      2                      3
                      A                      A                      A
 Frequencies --     34.2619                48.6623                73.7860
 Red. masses --      5.0954                 3.9695                 3.5641
 Frc consts  --      0.0035                 0.0055                 0.0114
 IR Inten    --      2.9129                 0.0836                 0.0964

                      4                      5                      6
                      A                      A                      A
 Frequencies --    115.6983               125.3415               183.2729
 Red. masses --      4.9932                 5.2439                 5.5124
 Frc consts  --      0.0394                 0.0485                 0.1091
 IR Inten    --      2.5708                 2.9017                 0.0588

                      7                      8                      9
                      A                      A                      A
 Frequencies --    187.1148               217.7536               225.4914
 Red. masses --      3.2383                 3.6532                 5.2257
 Frc consts  --      0.0668                 0.1021                 0.1566
 IR Inten    --      0.5810                 0.4380                 0.3022

                     10                     11                     12
                      A                      A                      A
 Frequencies --    233.1906               280.3545               335.6411
 Red. masses --      1.9356                 6.0972                 1.8284
 Frc consts  --      0.0620                 0.2824                 0.1214
 IR Inten    --      0.1055                 0.2441                 0.0060

                     13                     14                     15
                      A                      A                      A
 Frequencies --    381.6114               406.6617               438.5314
 Red. masses --     10.6791                 3.5668                 3.2316
 Frc consts  --      0.9163                 0.3475                 0.3662
 IR Inten    --     16.8556                 0.2701                 0.0356

                     16                     17                     18
                      A                      A                      A
 Frequencies --    439.7612               455.5278               459.4447
 Red. masses --      2.9808                 4.2910                 4.7620
 Frc consts  --      0.3396                 0.5246                 0.5923
 IR Inten    --      5.0322                 0.2233                 5.6339

                     19                     20                     21
                      A                      A                      A
 Frequencies --    465.4822               500.5030               511.2689
 Red. masses --      4.2435                 2.9006                 4.0449
 Frc consts  --      0.5417                 0.4281                 0.6230
 IR Inten    --      0.5283                 1.1187                 0.5574

                     22                     23                     24
                      A                      A                      A
 Frequencies --    568.5397               654.4536               684.5879
 Red. masses --      3.6107                 4.4808                 3.7233
 Frc consts  --      0.6876                 1.1308                 1.0281
 IR Inten    --     16.4372                 0.6515                 7.3678

                     25                     26                     27
                      A                      A                      A
 Frequencies --    695.9040               729.0017               744.7723
 Red. masses --      5.6279                 3.2085                 4.8574
 Frc consts  --      1.6058                 1.0046                 1.5875
 IR Inten    --      0.3509                32.0492                 2.2469

                     28                     29                     30
                      A                      A                      A
 Frequencies --    789.8534               790.4325               798.2556
 Red. masses --      3.9283                 1.6552                 1.5092
 Frc consts  --      1.4439                 0.6093                 0.5666
 IR Inten    --      0.8022                35.9964                 0.0590

                     31                     32                     33
                      A                      A                      A
 Frequencies --    814.8818               817.9953               848.0598
 Red. masses --      3.9081                 3.1744                 2.2547
 Frc consts  --      1.5290                 1.2514                 0.9554
 IR Inten    --      3.1602                 0.4519                 0.9917

                     34                     35                     36
                      A                      A                      A
 Frequencies --    898.7240               902.7305               915.6945
 Red. masses --      1.9484                 1.8075                 1.3719
 Frc consts  --      0.9272                 0.8678                 0.6777
 IR Inten    --     10.9398                 0.1840                 0.2533

                     37                     38                     39
                      A                      A                      A
 Frequencies --    926.1743               941.7877               947.6560
 Red. masses --      1.3928                 1.6362                 3.5918
 Frc consts  --      0.7039                 0.8550                 1.9005
 IR Inten    --      2.0282                 5.6802                52.0287

                     40                     41                     42
                      A                      A                      A
 Frequencies --   1001.1699              1017.5894              1024.3139
 Red. masses --      1.3847                 1.3262                 3.0490
 Frc consts  --      0.8177                 0.8091                 1.8849
 IR Inten    --      0.8935                 0.0014                14.3321

                     43                     44                     45
                      A                      A                      A
 Frequencies --   1036.6997              1053.0704              1054.7740
 Red. masses --      1.9258                 2.2768                 1.7537
 Frc consts  --      1.2195                 1.4876                 1.1495
 IR Inten    --      4.8286                 3.1136                 0.1970

                     46                     47                     48
                      A                      A                      A
 Frequencies --   1087.2081              1096.3371              1097.8182
 Red. masses --      2.7414                 1.0764                 3.2144
 Frc consts  --      1.9092                 0.7623                 2.2825
 IR Inten    --      0.1862                 0.0491                11.9948

                     49                     50                     51
                      A                      A                      A
 Frequencies --   1124.9872              1158.3506              1180.2288
 Red. masses --      2.1423                 2.3333                 1.6176
 Frc consts  --      1.5975                 1.8446                 1.3276
 IR Inten    --     11.5393                13.0157                16.9743

                     52                     53                     54
                      A                      A                      A
 Frequencies --   1185.5457              1198.5646              1242.3781
 Red. masses --      1.3762                 1.3785                 1.6671
 Frc consts  --      1.1396                 1.1667                 1.5161
 IR Inten    --      3.3002                 0.6450                36.5712

                     55                     56                     57
                      A                      A                      A
 Frequencies --   1261.9581              1280.0690              1290.6253
 Red. masses --      1.6821                 1.7949                 1.2790
 Frc consts  --      1.5783                 1.7329                 1.2552
 IR Inten    --     17.3504               122.0760                 0.8575

                     58                     59                     60
                      A                      A                      A
 Frequencies --   1295.5175              1316.8492              1331.0489
 Red. masses --      1.2986                 2.8707                 1.7505
 Frc consts  --      1.2842                 2.9330                 1.8273
 IR Inten    --      2.0804               201.3095                14.1336

                     61                     62                     63
                      A                      A                      A
 Frequencies --   1334.0361              1358.9646              1359.4384
 Red. masses --      1.2664                 6.1252                 1.2850
 Frc consts  --      1.3279                 6.6648                 1.3992
 IR Inten    --      0.1027                 8.6375                 0.1255

                     64                     65                     66
                      A                      A                      A
 Frequencies --   1367.0639              1370.0505              1378.8506
 Red. masses --      1.3508                 1.7229                 1.4350
 Frc consts  --      1.4874                 1.9054                 1.6075
 IR Inten    --      0.0679                18.5781                 0.0056

                     67                     68                     69
                      A                      A                      A
 Frequencies --   1382.9613              1407.4100              1482.3833
 Red. masses --      1.4477                 1.4369                 2.3771
 Frc consts  --      1.6314                 1.6770                 3.0777
 IR Inten    --      7.0643                 3.1104                 0.1434

                     70                     71                     72
                      A                      A                      A
 Frequencies --   1487.3059              1488.2396              1495.8095
 Red. masses --      1.0886                 1.0894                 1.0898
 Frc consts  --      1.4187                 1.4216                 1.4366
 IR Inten    --      1.5064                 4.3569                 4.0415

                     73                     74                     75
                      A                      A                      A
 Frequencies --   1496.3429              1505.8129              1510.6366
 Red. masses --      1.0860                 2.6184                 1.0930
 Frc consts  --      1.4326                 3.4981                 1.4695
 IR Inten    --     11.4378                 3.4514                 1.7967

                     76                     77                     78
                      A                      A                      A
 Frequencies --   1613.0052              1628.7801              1655.7365
 Red. masses --      6.6880                 5.8532                 8.6768
 Frc consts  --     10.2522                 9.1488                14.0150
 IR Inten    --      2.6133                70.6709                69.8770

                     79                     80                     81
                      A                      A                      A
 Frequencies --   1713.9052              1719.2556              2993.2138
 Red. masses --     11.1702                11.6612                 1.0808
 Frc consts  --     19.3324                20.3084                 5.7050
 IR Inten    --     10.9305               414.2051                 2.7705

                     82                     83                     84
                      A                      A                      A
 Frequencies --   2997.4959              2998.2040              3007.6954
 Red. masses --      1.0671                 1.0730                 1.0610
 Frc consts  --      5.6489                 5.6828                 5.6551
 IR Inten    --     14.1093                49.6818                31.1085

                     85                     86                     87
                      A                      A                      A
 Frequencies --   3026.0421              3027.7465              3047.0549
 Red. masses --      1.0647                 1.0660                 1.0944
 Frc consts  --      5.7444                 5.7577                 5.9867
 IR Inten    --     35.8013                18.0901                72.8012

                     88                     89                     90
                      A                      A                      A
 Frequencies --   3049.2597              3052.2422              3080.2967
 Red. masses --      1.0894                 1.1038                 1.0994
 Frc consts  --      5.9680                 6.0588                 6.1457
 IR Inten    --     63.4931                37.4331                 0.7787

                     91                     92                     93
                      A                      A                      A
 Frequencies --   3085.0314              3163.9622              3170.1017
 Red. masses --      1.0984                 1.0911                 1.0869
 Frc consts  --      6.1592                 6.4352                 6.4358
 IR Inten    --     42.8974                 6.6933                 3.1434

                     94                     95                     96
                      A                      A                      A
 Frequencies --   3184.2786              3198.5278              3201.7762
 Red. masses --      1.0915                 1.0929                 1.0948
 Frc consts  --      6.5210                 6.5876                 6.6128
 IR Inten    --      9.2797                 1.4854                 9.9521

 - Thermochemistry -
 -------------------
 Temperature   298.150 Kelvin.  Pressure   1.00000 Atm.
 Atom     1 has atomic number  8 and mass  15.99491

 Molecular mass:   240.11503 amu.
 Principal axes and moments of inertia in atomic units:
                           1         2         3
     Eigenvalues --  1866.474567642.441758770.25462
           X            0.99879   0.04796  -0.01102
           Y           -0.04717   0.86942  -0.49181
           Z           -0.01401   0.49174   0.87063
 This molecule is an asymmetric top.
 Rotational symmetry number  1.
 Warning -- assumption of classical behavior for rotation
           may cause significant error
 Rotational temperatures (Kelvin)      0.04641     0.01133     0.00988
 Rotational constants (GHZ):           0.96693     0.23615     0.20578
 Zero-point vibrational energy     741462.7 (Joules/Mol)
                                  177.21384 (Kcal/Mol)
 Warning -- explicit consideration of  22 degrees of freedom as
           vibrations may cause significant error
 Vibrational temperatures:     49.30    70.01   106.16   166.46   180.34
          (Kelvin)            263.69   269.22   313.30   324.43   335.51
                              403.37   482.91   549.05   585.10   630.95
                              632.72   655.40   661.04   669.73   720.11
                              735.60   818.00   941.61   984.97  1001.25
                             1048.87  1071.56  1136.42  1137.26  1148.51
                             1172.43  1176.91  1220.17  1293.06  1298.83
                             1317.48  1332.56  1355.02  1363.47  1440.46
                             1464.08  1473.76  1491.58  1515.13  1517.58
                             1564.25  1577.38  1579.52  1618.61  1666.61
                             1698.09  1705.74  1724.47  1787.50  1815.68
                             1841.73  1856.92  1863.96  1894.65  1915.08
                             1919.38  1955.25  1955.93  1966.90  1971.20
                             1983.86  1989.77  2024.95  2132.82  2139.90
                             2141.24  2152.14  2152.90  2166.53  2173.47
                             2320.75  2343.45  2382.24  2465.93  2473.63
                             4306.57  4312.73  4313.75  4327.40  4353.80
                             4356.25  4384.03  4387.20  4391.50  4431.86
                             4438.67  4552.24  4561.07  4581.47  4601.97
                             4606.64

 Zero-point correction=                           0.282408 (Hartree/Particle)
 Thermal correction to Energy=                    0.297125
 Thermal correction to Enthalpy=                  0.298069
 Thermal correction to Gibbs Free Energy=         0.240159
 Sum of electronic and zero-point Energies=           -769.717986
 Sum of electronic and thermal Energies=              -769.703269
 Sum of electronic and thermal Enthalpies=            -769.702325
 Sum of electronic and thermal Free Energies=         -769.760235

                     E (Thermal)             CV                S
                      KCal/Mol        Cal/Mol-Kelvin    Cal/Mol-Kelvin
 Total                  186.449             59.111            121.882
 Electronic               0.000              0.000              0.000
 Translational            0.889              2.981             42.329
 Rotational               0.889              2.981             33.192
 Vibrational            184.671             53.149             46.361
 Vibration     1          0.594              1.983              5.566
 Vibration     2          0.595              1.978              4.871
 Vibration     3          0.599              1.966              4.050
 Vibration     4          0.608              1.936              3.171
 Vibration     5          0.610              1.928              3.016
 Vibration     6          0.631              1.863              2.295
 Vibration     7          0.632              1.858              2.256
 Vibration     8          0.646              1.814              1.978
 Vibration     9          0.650              1.802              1.915
 Vibration    10          0.654              1.790              1.854
 Vibration    11          0.680              1.710              1.532
 Vibration    12          0.717              1.604              1.233
 Vibration    13          0.751              1.509              1.033
 Vibration    14          0.771              1.456              0.938
 Vibration    15          0.799              1.386              0.831
 Vibration    16          0.800              1.383              0.827
 Vibration    17          0.814              1.349              0.779
 Vibration    18          0.817              1.340              0.768
 Vibration    19          0.823              1.327              0.750
 Vibration    20          0.856              1.249              0.657
 Vibration    21          0.866              1.225              0.631
 Vibration    22          0.925              1.099              0.507

 Optimization completed.
    -- Stationary point found.
 Normal termination of Gaussian 16 at Sun Jan  7 21:10:43 2024.
