 Q-Chem 5.4, Q-Chem, Inc., Pleasanton, CA (2021)
 Q-Chem 5.4.0 for Intel X86 EM64T Linux

User input:
--------------------------------------------------------------
$molecule
-1 2
C                 -1.6308160000      2.7947060000      0.0396650000
C                 -2.8862450000      2.2256300000      0.0778340000
C                 -3.0112500000      0.8269210000      0.0929510000
C                 -0.4775470000      1.9873580000      0.0157810000
C                 -0.5955380000      0.5660840000      0.0308210000
C                 -1.9022150000     -0.0121910000      0.0704870000
C                  0.8304330000      2.6639910000     -0.0245200000
C                  2.0012300000      1.8192000000     -0.0483300000
C                  1.9007980000      0.4365970000     -0.0341360000
C                  0.6268860000     -0.2593270000      0.0052290000
O                  0.9050390000      3.9255900000     -0.0371460000
O                  0.5788890000     -1.5232310000      0.0168690000
C                  3.3446900000      2.5048080000     -0.0894280000
C                  3.1416860000     -0.4226350000     -0.0595720000
C                 -2.1537100000     -1.5044800000      0.0897760000
H                 -1.4856960000      3.8683020000      0.0267780000
H                 -3.7754760000      2.8495640000      0.0962440000
H                 -4.0017200000      0.3803770000      0.1231150000
H                  3.1973470000      3.5850120000     -0.0949540000
H                  3.9175020000      2.2230080000     -0.9821710000
H                  3.9634940000      2.2382700000      0.7769110000
H                  3.7910860000     -0.2211770000      0.8020520000
H                  3.7454060000     -0.2351160000     -0.9567930000
H                  2.8548890000     -1.4738570000     -0.0437080000
H                 -1.6799960000     -1.9826210000      0.9490720000
H                 -1.7267910000     -1.9972410000     -0.7856290000
H                 -3.2326560000     -1.6939430000      0.1204810000
$end
$rem
MAX_SCF_CYCLES=200
BASIS  =  6-311++G(d,p)
GUI  =  2
JOB_TYPE  =  SP
METHOD  =  B3LYP
SOLVENT_METHOD = COSMO
$end
$solvent
dielectric 37.219
opticaldielectric 1.43
$end

--------------------------------------------------------------

             Standard Nuclear Orientation (Angstroms)
    I     Atom           X                Y                Z
 ----------------------------------------------------------------
    1      C      -1.3470055806    -2.0936010336     0.0000460255
    2      C      -2.6933368750    -1.7956104857    -0.0000935325
    3      C      -3.1043182132    -0.4527270313    -0.0001830160
    4      C      -0.3846938517    -1.0658039946     0.0001361445
    5      C      -0.7934633306     0.3006056709     0.0001267949
    6      C      -2.1918596401     0.5970308225    -0.0000748624
    7      C       1.0352673335    -1.4582046821     0.0001145279
    8      C       2.0070043473    -0.3901543448    -0.0000200557
    9      C       1.6234039504     0.9420355234     0.0000274387
   10      C       0.2328157215     1.3603367682     0.0002439206
   11      O       1.3686225683    -2.6773157470     0.0001967663
   12      O      -0.0749600784     2.5871890545     0.0004618615
   13      C       3.4635417520    -0.7840209189    -0.0002598121
   14      C       2.6607680971     2.0386691066    -0.0002172223
   15      C      -2.7459689564     2.0054026164    -0.0002011349
   16      H      -0.9834204833    -3.1142087618     0.0000956872
   17      H      -3.4350356522    -2.5894916192    -0.0001691439
   18      H      -4.1660064455    -0.2200033832    -0.0003640202
   19      H       3.5422162499    -1.8713991215     0.0001222440
   20      H       3.9904258450    -0.3925688740     0.8793272162
   21      H       3.9899328850    -0.3932125262    -0.8804219188
   22      H       3.3136764749     1.9778449175    -0.8803948585
   23      H       3.3147407495     1.9772590258     0.8790980276
   24      H       2.1631326398     3.0081692559     0.0003222492
   25      H      -2.4049151665     2.5733168251    -0.8677085695
   26      H      -2.4057492751     2.5732332329     0.8676848651
   27      H      -3.8412262657     1.9683264676    -0.0007320980
 ----------------------------------------------------------------

   10    -653.3070705546      7.43e-06  Convergence criterion met
 Total energy in the final basis set =     -653.3070705546
    4    -653.3880215330      9.81e-06  Convergence criterion met
 Total energy in the final basis set =     -653.3880215330

                    Orbital Energies (a.u.)
 --------------------------------------------------------------

 Alpha MOs
 -- Occupied --
-19.0727 -19.0701 -10.2181 -10.2161 -10.1809 -10.1716 -10.1682 -10.1676
-10.1643 -10.1640 -10.1633 -10.1620 -10.1508 -10.1495 -10.1488  -0.9979
 -0.9952  -0.8550  -0.8139  -0.7668  -0.7531  -0.7204  -0.6836  -0.6662
 -0.6450  -0.5861  -0.5826  -0.5357  -0.5070  -0.4843  -0.4650  -0.4436
 -0.4343  -0.4261  -0.4139  -0.4106  -0.3994  -0.3932  -0.3829  -0.3818
 -0.3803  -0.3740  -0.3667  -0.3627  -0.3508  -0.3404  -0.3349  -0.3311
 -0.2655  -0.2454  -0.2430  -0.2372  -0.2295  -0.1472

 Beta MOs
 -- Occupied --
-19.0667 -19.0638 -10.2165 -10.2143 -10.1808 -10.1711 -10.1676 -10.1672
-10.1636 -10.1628 -10.1621 -10.1619 -10.1508 -10.1496 -10.1489  -0.9874
 -0.9841  -0.8530  -0.8096  -0.7656  -0.7510  -0.7168  -0.6822  -0.6640
 -0.6395  -0.5838  -0.5799  -0.5328  -0.5054  -0.4819  -0.4628  -0.4426
 -0.4267  -0.4235  -0.4088  -0.4087  -0.3983  -0.3869  -0.3817  -0.3790
 -0.3735  -0.3729  -0.3660  -0.3496  -0.3411  -0.3332  -0.3301  -0.3296
 -0.2439  -0.2385  -0.2375  -0.2275  -0.2240

          Ground-State Mulliken Net Atomic Charges

     Atom                 Charge (a.u.)    Spin (a.u.)
  --------------------------------------------------------
      1 C                    -0.211766       0.029361
      2 C                    -0.393965       0.026192
      3 C                    -0.598518       0.033332
      4 C                     0.415749       0.012881
      5 C                     0.540028       0.028258
      6 C                     0.594245       0.015578
      7 C                    -0.991652       0.099274
      8 C                     0.743583       0.091844
      9 C                     0.788039       0.135234
     10 C                    -1.487005       0.074903
     11 O                    -0.521950       0.213315
     12 O                    -0.466557       0.225842
     13 C                    -0.548461       0.001324
     14 C                    -0.390355      -0.000047
     15 C                    -0.485369       0.005361
     16 H                     0.171509      -0.002256
     17 H                     0.210628      -0.002217
     18 H                     0.142587      -0.003241
     19 H                     0.183018      -0.001166
     20 H                     0.158303       0.003899
     21 H                     0.158280       0.003903
     22 H                     0.158013       0.004942
     23 H                     0.157852       0.004935
     24 H                     0.190335      -0.000993
     25 H                     0.164496      -0.000055
     26 H                     0.164177      -0.000055
     27 H                     0.154755      -0.000348
  --------------------------------------------------------
  Sum of atomic charges =    -1.000000

                    Cartesian Multipole Moments
 -----------------------------------------------------------------
    Charge (ESU x 10^10)
                -4.8032
    Dipole Moment (Debye)
         X      -2.4203      Y       1.3449      Z      -0.0024
       Tot       2.7689
    Quadrupole Moments (Debye-Ang)
        XX     -91.8406     XY      10.5806     YY    -127.3609
        XZ      -0.0008     YZ      -0.0041     ZZ     -94.4453

 Total job time:  67.25s(wall), 507.47s(cpu)
        *  Thank you very much for using Q-Chem.  Have a nice day.  *
