 Gaussian 16, Revision A.03,
 Gaussian 16:  ES64L-G16RevA.03 25-Dec-2016

 --------------------------------------
 #P UB3LYP/6-311++G(d,p) nosym opt freq
 --------------------------------------

 --------
 Oxidized
 --------
 Symbolic Z-matrix:
 Charge =  0 Multiplicity = 1

 SCF Done:  E(UB3LYP) =  -766.795718272     A.U. after   16 cycles
 SCF Done:  E(UB3LYP) =  -766.809904858     A.U. after   14 cycles
 SCF Done:  E(UB3LYP) =  -766.811974146     A.U. after   14 cycles
 SCF Done:  E(UB3LYP) =  -766.812897921     A.U. after   13 cycles
 SCF Done:  E(UB3LYP) =  -766.813585086     A.U. after   14 cycles
 SCF Done:  E(UB3LYP) =  -766.815780971     A.U. after   17 cycles
 SCF Done:  E(UB3LYP) =  -766.816820686     A.U. after   17 cycles
 SCF Done:  E(UB3LYP) =  -766.817451826     A.U. after   15 cycles
 SCF Done:  E(UB3LYP) =  -766.818606684     A.U. after   17 cycles
 SCF Done:  E(UB3LYP) =  -766.818812011     A.U. after   13 cycles
 SCF Done:  E(UB3LYP) =  -766.819707014     A.U. after   11 cycles
 SCF Done:  E(UB3LYP) =  -766.819707455     A.U. after   11 cycles
 SCF Done:  E(UB3LYP) =  -766.819707771     A.U. after    9 cycles
 SCF Done:  E(UB3LYP) =  -766.819679371     A.U. after   10 cycles
 SCF Done:  E(UB3LYP) =  -766.819680282     A.U. after   10 cycles
 SCF Done:  E(UB3LYP) =  -766.819681314     A.U. after   10 cycles
 SCF Done:  E(UB3LYP) =  -766.819682505     A.U. after   10 cycles
 SCF Done:  E(UB3LYP) =  -766.819683147     A.U. after   10 cycles
 SCF Done:  E(UB3LYP) =  -766.819683315     A.U. after    9 cycles
 Optimization completed.
    -- Stationary point found.
 Normal termination of Gaussian 16 at Mon Dec 18 00:07:01 2023.

 ----------------------------------------------------------------------
 #P Geom=AllCheck Guess=TCheck SCRF=Check GenChk UB3LYP/6-311++G(d,p) F
 req
 ----------------------------------------------------------------------

 Structure from the checkpoint file:  "042.chk"
 --------
 Oxidized
 --------
 Charge =  0 Multiplicity = 1

                          Input orientation:
 ---------------------------------------------------------------------
 Center     Atomic      Atomic             Coordinates (Angstroms)
 Number     Number       Type             X           Y           Z
 ---------------------------------------------------------------------
      1          6           0        1.167896    1.329378   -1.388615
      2          6           0       -0.149954    0.665362   -1.504306
      3          6           0       -0.512196   -0.368175   -0.731599
      4          6           0        0.456423   -0.883907    0.289829
      5          6           0        1.769775   -0.182375    0.459648
      6          6           0        2.116838    0.851626   -0.342000
      7          6           0        3.434614    1.565301   -0.233224
      8          6           0        2.678789   -0.709721    1.534639
      9          8           0        1.449626    2.253295   -2.137560
     10          8           0        0.188306   -1.863863    0.964916
     11          1           0       -0.808750    1.078016   -2.261814
     12          1           0        4.269469    0.860088   -0.277111
     13          1           0        3.512748    2.095880    0.721851
     14          1           0        3.541060    2.291618   -1.037238
     15          1           0        2.159771   -1.439920    2.152613
     16          1           0        3.047817    0.101243    2.168247
     17          1           0        3.555736   -1.199015    1.096317
     18          6           0       -1.868619   -1.018683   -0.892065
     19          6           0       -1.835059   -2.496181   -1.277848
     20          8           0       -2.565096   -0.841322    0.374700
     21          6           0       -3.908182   -0.671114    0.325888
     22          6           0       -4.471855   -0.501320    1.712943
     23          8           0       -4.546565   -0.657353   -0.698186
     24          1           0       -2.424394   -0.463205   -1.649002
     25          1           0       -2.853090   -2.847414   -1.455349
     26          1           0       -1.372929   -3.090788   -0.491623
     27          1           0       -1.266698   -2.624188   -2.203263
     28          1           0       -4.047730    0.391922    2.177612
     29          1           0       -4.196184   -1.355474    2.334842
     30          1           0       -5.554515   -0.410811    1.656209
 ---------------------------------------------------------------------

 SCF Done:  E(UB3LYP) =  -766.819683315     A.U. after    1 cycles

 Alpha  occ. eigenvalues --  -19.17426 -19.14104 -19.13975 -19.11970 -10.31206
 Alpha  occ. eigenvalues --  -10.28854 -10.28476 -10.25625 -10.22565 -10.21928
 Alpha  occ. eigenvalues --  -10.21801 -10.21524 -10.18623 -10.18376 -10.18373
 Alpha  occ. eigenvalues --  -10.17277  -1.11589  -1.07389  -1.06963  -1.03113
 Alpha  occ. eigenvalues --   -0.87726  -0.84012  -0.78840  -0.75833  -0.74905
 Alpha  occ. eigenvalues --   -0.70543  -0.69664  -0.65604  -0.60873  -0.60167
 Alpha  occ. eigenvalues --   -0.56903  -0.53438  -0.51342  -0.50009  -0.48840
 Alpha  occ. eigenvalues --   -0.48467  -0.47141  -0.46716  -0.45428  -0.44339
 Alpha  occ. eigenvalues --   -0.43862  -0.43282  -0.42976  -0.42581  -0.41969
 Alpha  occ. eigenvalues --   -0.41651  -0.41000  -0.40701  -0.39680  -0.38889
 Alpha  occ. eigenvalues --   -0.38291  -0.37894  -0.36016  -0.31825  -0.31191
 Alpha  occ. eigenvalues --   -0.29140  -0.28911  -0.28436  -0.27607
 Alpha virt. eigenvalues --   -0.13506  -0.03593  -0.01740  -0.00902  -0.00656
 Alpha virt. eigenvalues --   -0.00449   0.00476   0.01093   0.01791   0.02250
 Alpha virt. eigenvalues --    0.02403   0.03332   0.03896   0.04181   0.04358

  Beta  occ. eigenvalues --  -19.17426 -19.14104 -19.13975 -19.11970 -10.31206
  Beta  occ. eigenvalues --  -10.28854 -10.28476 -10.25625 -10.22565 -10.21928
  Beta  occ. eigenvalues --  -10.21801 -10.21524 -10.18623 -10.18376 -10.18373
  Beta  occ. eigenvalues --  -10.17277  -1.11589  -1.07389  -1.06963  -1.03113
  Beta  occ. eigenvalues --   -0.87726  -0.84012  -0.78840  -0.75833  -0.74905
  Beta  occ. eigenvalues --   -0.70543  -0.69664  -0.65604  -0.60873  -0.60167
  Beta  occ. eigenvalues --   -0.56903  -0.53438  -0.51342  -0.50009  -0.48840
  Beta  occ. eigenvalues --   -0.48467  -0.47141  -0.46716  -0.45428  -0.44339
  Beta  occ. eigenvalues --   -0.43862  -0.43282  -0.42976  -0.42581  -0.41969
  Beta  occ. eigenvalues --   -0.41651  -0.41000  -0.40701  -0.39680  -0.38889
  Beta  occ. eigenvalues --   -0.38291  -0.37894  -0.36016  -0.31825  -0.31191
  Beta  occ. eigenvalues --   -0.29140  -0.28911  -0.28436  -0.27607
  Beta virt. eigenvalues --   -0.13506  -0.03593  -0.01740  -0.00902  -0.00656
  Beta virt. eigenvalues --   -0.00449   0.00476   0.01093   0.01791   0.02250
  Beta virt. eigenvalues --    0.02403   0.03332   0.03896   0.04181   0.04358

 Mulliken charges and spin densities:
               1          2
     1  C   -0.879810  -0.000000
     2  C   -0.374864   0.000000
     3  C    1.227334   0.000000
     4  C   -0.784888  -0.000000
     5  C    0.418500   0.000000
     6  C    0.722141   0.000000
     7  C   -0.405806   0.000000
     8  C   -0.559814  -0.000000
     9  O   -0.220399   0.000000
    10  O   -0.193358  -0.000000
    11  H    0.218533   0.000000
    12  H    0.157346   0.000000
    13  H    0.169487   0.000000
    14  H    0.208038   0.000000
    15  H    0.206730  -0.000000
    16  H    0.153538  -0.000000
    17  H    0.175533   0.000000
    18  C   -0.524622  -0.000000
    19  C   -0.546798  -0.000000
    20  O    0.139475   0.000000
    21  C    0.247433  -0.000000
    22  C   -0.561044   0.000000
    23  O   -0.264251   0.000000
    24  H    0.220596   0.000000
    25  H    0.182367   0.000000
    26  H    0.209521   0.000000
    27  H    0.135098   0.000000
    28  H    0.172629   0.000000
    29  H    0.175803  -0.000000
    30  H    0.175553  -0.000000
 Sum of Mulliken charges =  -0.00000   0.00000

 Dipole moment (field-independent basis, Debye):
    X=              2.0080    Y=             -0.4244    Z=              2.0099  Tot=              2.8727
 Quadrupole moment (field-independent basis, Debye-Ang):
   XX=            -95.7596   YY=           -101.3451   ZZ=            -96.7451
   XY=             -2.2546   XZ=             -3.7061   YZ=              8.1732

  Exact polarizability: 172.951  25.213 150.506  -0.709 -28.862 143.500
 Approx polarizability: 215.309  39.432 268.741  -8.247 -83.419 241.086

                      1                      2                      3
                      A                      A                      A
 Frequencies --     29.4917                32.0482                34.2491
 Red. masses --      1.9494                 1.9260                 1.5459
 Frc consts  --      0.0010                 0.0012                 0.0011
 IR Inten    --      0.0690                 1.4642                 0.4238

                      4                      5                      6
                      A                      A                      A
 Frequencies --     36.8675                56.9241                72.5387
 Red. masses --      2.0695                 3.1657                 1.0643
 Frc consts  --      0.0017                 0.0060                 0.0033
 IR Inten    --      1.3063                 1.9613                 0.3024

                      7                      8                      9
                      A                      A                      A
 Frequencies --     89.2648               108.9213               122.8138
 Red. masses --      5.4114                 3.6417                 3.5548
 Frc consts  --      0.0254                 0.0255                 0.0316
 IR Inten    --      5.4029                 0.4364                 4.3069

                     10                     11                     12
                      A                      A                      A
 Frequencies --    165.9741               205.4834               217.8015
 Red. masses --      3.3534                 4.1806                 4.0535
 Frc consts  --      0.0544                 0.1040                 0.1133
 IR Inten    --      1.3781                 5.5630                 0.4345

                     13                     14                     15
                      A                      A                      A
 Frequencies --    231.3775               253.5414               272.4254
 Red. masses --      1.2200                 3.3808                 4.1420
 Frc consts  --      0.0385                 0.1280                 0.1811
 IR Inten    --      0.6846                 0.3736                 0.2854

                     16                     17                     18
                      A                      A                      A
 Frequencies --    309.6357               340.2285               362.4324
 Red. masses --      2.6008                 4.0721                 3.6224
 Frc consts  --      0.1469                 0.2777                 0.2804
 IR Inten    --      0.1715                 0.8583                 3.4668

                     19                     20                     21
                      A                      A                      A
 Frequencies --    416.7943               459.9500               463.2556
 Red. masses --      8.4817                 5.2598                 5.2438
 Frc consts  --      0.8681                 0.6556                 0.6630
 IR Inten    --     25.3681                10.1576                 0.5216

                     22                     23                     24
                      A                      A                      A
 Frequencies --    475.5850               489.2801               533.5762
 Red. masses --      5.2250                 3.6390                 3.5091
 Frc consts  --      0.6963                 0.5133                 0.5886
 IR Inten    --      4.6616                 0.5508                 0.5972

                     25                     26                     27
                      A                      A                      A
 Frequencies --    566.1058               610.8314               641.4749
 Red. masses --      5.3435                 2.7863                 4.6421
 Frc consts  --      1.0089                 0.6125                 1.1254
 IR Inten    --     13.5638                 5.8997                 4.8472

                     28                     29                     30
                      A                      A                      A
 Frequencies --    669.5816               716.4216               732.0721
 Red. masses --      4.0212                 4.9096                 4.2779
 Frc consts  --      1.0622                 1.4847                 1.3508
 IR Inten    --      0.8848                 7.7161                 9.0202

                     31                     32                     33
                      A                      A                      A
 Frequencies --    803.4492               820.5359               868.8087
 Red. masses --      6.3196                 2.9264                 2.3435
 Frc consts  --      2.4036                 1.1608                 1.0422
 IR Inten    --      4.0141                 1.6698                 8.4340

                     34                     35                     36
                      A                      A                      A
 Frequencies --    903.9053               927.8151               960.2360
 Red. masses --      3.4509                 1.5080                 3.9468
 Frc consts  --      1.6612                 0.7648                 2.1441
 IR Inten    --     30.4553                17.6055                29.3920

                     37                     38                     39
                      A                      A                      A
 Frequencies --    982.7150              1021.6699              1023.5409
 Red. masses --      1.8139                 1.6532                 1.5106
 Frc consts  --      1.0321                 1.0167                 0.9324
 IR Inten    --     10.2256                20.8911                 3.8989

                     40                     41                     42
                      A                      A                      A
 Frequencies --   1050.8727              1058.9506              1065.6242
 Red. masses --      2.8403                 1.5729                 1.7936
 Frc consts  --      1.8480                 1.0392                 1.2000
 IR Inten    --    145.9031                 2.0122                 6.3793

                     43                     44                     45
                      A                      A                      A
 Frequencies --   1086.2645              1105.8951              1124.5899
 Red. masses --      2.0564                 2.4832                 2.2421
 Frc consts  --      1.4296                 1.7893                 1.6707
 IR Inten    --     37.6605                49.4040                 4.5935

                     46                     47                     48
                      A                      A                      A
 Frequencies --   1138.4308              1216.7087              1248.9025
 Red. masses --      2.3924                 1.7551                 3.9848
 Frc consts  --      1.8268                 1.5308                 3.6620
 IR Inten    --     39.9498                28.4659               537.9376

                     49                     50                     51
                      A                      A                      A
 Frequencies --   1261.5067              1320.3414              1352.1957
 Red. masses --      4.3875                 3.7210                 2.7599
 Frc consts  --      4.1138                 3.8219                 2.9732
 IR Inten    --     34.2357                72.8575                25.3966

                     52                     53                     54
                      A                      A                      A
 Frequencies --   1377.9984              1386.4415              1401.6485
 Red. masses --      1.1848                 1.4831                 1.3500
 Frc consts  --      1.3256                 1.6797                 1.5627
 IR Inten    --      2.6014                 2.8000                46.1943

                     55                     56                     57
                      A                      A                      A
 Frequencies --   1403.4358              1405.6923              1409.2811
 Red. masses --      1.2857                 1.3448                 1.2064
 Frc consts  --      1.4921                 1.5656                 1.4117
 IR Inten    --     28.9143                 5.2261                19.8772

                     58                     59                     60
                      A                      A                      A
 Frequencies --   1471.5719              1476.2881              1479.7005
 Red. masses --      1.0507                 1.0455                 1.0659
 Frc consts  --      1.3405                 1.3425                 1.3750
 IR Inten    --     14.5331                11.5178                 2.2858

                     61                     62                     63
                      A                      A                      A
 Frequencies --   1480.6564              1487.9993              1492.1502
 Red. masses --      1.1046                 1.0473                 1.0438
 Frc consts  --      1.4268                 1.3662                 1.3693
 IR Inten    --     33.5321                 1.4109                 8.7567

                     64                     65                     66
                      A                      A                      A
 Frequencies --   1500.7370              1503.2021              1652.4462
 Red. masses --      1.0449                 1.0549                 8.9096
 Frc consts  --      1.3865                 1.4044                14.3338
 IR Inten    --     21.8568                 4.4428                38.5518

                     67                     68                     69
                      A                      A                      A
 Frequencies --   1691.6597              1711.6300              1716.0107
 Red. masses --     10.5769                11.4467                 9.8940
 Frc consts  --     17.8333                19.7583                17.1658
 IR Inten    --      6.8395               428.3733                 8.3636

                     70                     71                     72
                      A                      A                      A
 Frequencies --   1788.6724              3023.2877              3026.2139
 Red. masses --     11.0542                 1.0421                 1.0428
 Frc consts  --     20.8372                 5.6120                 5.6268
 IR Inten    --    300.9585                25.4542                 1.7782

                     73                     74                     75
                      A                      A                      A
 Frequencies --   3042.9084              3050.6501              3069.3685
 Red. masses --      1.0379                 1.0363                 1.0965
 Frc consts  --      5.6619                 5.6822                 6.0862
 IR Inten    --     13.5573                 2.0276                20.6725

                     76                     77                     78
                      A                      A                      A
 Frequencies --   3077.0748              3082.2951              3107.0108
 Red. masses --      1.0964                 1.0854                 1.0996
 Frc consts  --      6.1165                 6.0755                 6.2541
 IR Inten    --      2.7963                 4.2270                19.2957

                     79                     80                     81
                      A                      A                      A
 Frequencies --   3111.6268              3137.5356              3141.1977
 Red. masses --      1.0997                 1.0975                 1.0973
 Frc consts  --      6.2734                 6.3656                 6.3793
 IR Inten    --      4.3085                 3.2342                 3.2184

                     82                     83                     84
                      A                      A                      A
 Frequencies --   3146.9713              3155.7850              3171.4986
 Red. masses --      1.1017                 1.1034                 1.0923
 Frc consts  --      6.4285                 6.4745                 6.4735
 IR Inten    --      2.8471                 7.8034                 2.9132

 - Thermochemistry -
 -------------------
 Temperature   298.150 Kelvin.  Pressure   1.00000 Atm.
 Atom     1 has atomic number  6 and mass  12.00000

 Molecular mass:   222.08921 amu.
 Principal axes and moments of inertia in atomic units:
                           1         2         3
     Eigenvalues --  1910.863016047.688466827.21741
           X            0.95294   0.25372  -0.16595
           Y            0.29268  -0.62712   0.72184
           Z           -0.07907   0.73644   0.67187
 This molecule is an asymmetric top.
 Rotational symmetry number  1.
 Warning -- assumption of classical behavior for rotation
           may cause significant error
 Rotational temperatures (Kelvin)      0.04533     0.01432     0.01269
 Rotational constants (GHZ):           0.94446     0.29842     0.26435
 Zero-point vibrational energy     623497.0 (Joules/Mol)
                                  149.01935 (Kcal/Mol)
 Warning -- explicit consideration of  26 degrees of freedom as
           vibrations may cause significant error
 Vibrational temperatures:     42.43    46.11    49.28    53.04    81.90
          (Kelvin)            104.37   128.43   156.71   176.70   238.80
                              295.64   313.37   332.90   364.79   391.96
                              445.50   489.51   521.46   599.67   661.77
                              666.52   684.26   703.96   767.70   814.50
                              878.85   922.94   963.38  1030.77  1053.29
                             1155.98  1180.57  1250.02  1300.52  1334.92
                             1381.57  1413.91  1469.96  1472.65  1511.97
                             1523.59  1533.20  1562.89  1591.14  1618.03
                             1637.95  1750.57  1796.89  1815.03  1899.68
                             1945.51  1982.63  1994.78  2016.66  2019.23
                             2022.48  2027.64  2117.26  2124.05  2128.96
                             2130.33  2140.90  2146.87  2159.23  2162.77
                             2377.50  2433.92  2462.65  2468.96  2573.50
                             4349.84  4354.05  4378.07  4389.21  4416.14
                             4427.22  4434.74  4470.30  4476.94  4514.21
                             4519.48  4527.79  4540.47  4563.08

 Zero-point correction=                           0.237477 (Hartree/Particle)
 Thermal correction to Energy=                    0.254932
 Thermal correction to Enthalpy=                  0.255876
 Thermal correction to Gibbs Free Energy=         0.189307
 Sum of electronic and zero-point Energies=           -766.582206
 Sum of electronic and thermal Energies=              -766.564751
 Sum of electronic and thermal Enthalpies=            -766.563807
 Sum of electronic and thermal Free Energies=         -766.630376

                     E (Thermal)             CV                S
                      KCal/Mol        Cal/Mol-Kelvin    Cal/Mol-Kelvin
 Total                  159.972             61.207            140.107
 Electronic               0.000              0.000              0.000
 Translational            0.889              2.981             42.096
 Rotational               0.889              2.981             32.734
 Vibrational            158.195             55.246             65.277
 Vibration     1          0.593              1.984              5.863
 Vibration     2          0.594              1.983              5.698
 Vibration     3          0.594              1.983              5.567
 Vibration     4          0.594              1.982              5.421
 Vibration     5          0.596              1.975              4.561
 Vibration     6          0.599              1.967              4.083
 Vibration     7          0.602              1.957              3.676
 Vibration     8          0.606              1.942              3.288
 Vibration     9          0.610              1.930              3.056
 Vibration    10          0.624              1.884              2.481
 Vibration    11          0.640              1.832              2.083
 Vibration    12          0.646              1.814              1.977
 Vibration    13          0.653              1.793              1.868
 Vibration    14          0.665              1.757              1.706
 Vibration    15          0.675              1.724              1.581
 Vibration    16          0.699              1.655              1.364
 Vibration    17          0.720              1.595              1.211
 Vibration    18          0.736              1.550              1.112
 Vibration    19          0.780              1.434              0.903
 Vibration    20          0.818              1.339              0.766
 Vibration    21          0.821              1.332              0.757
 Vibration    22          0.832              1.304              0.722
 Vibration    23          0.845              1.274              0.685
 Vibration    24          0.889              1.176              0.579
 Vibration    25          0.922              1.105              0.512
 Vibration    26          0.970              1.009              0.431

                           ! Non-Optimized Parameters !
 Normal termination of Gaussian 16 at Mon Dec 18 00:37:40 2023.
