 Gaussian 16, Revision A.03,
 Gaussian 16:  ES64L-G16RevA.03 25-Dec-2016

 ----------------------------------------------------------------------
 #P UB3LYP/6-311++G(d,p) nosym opt freq SCRF=(PCM,Solvent=n,n-DiMethylF
 ormamide)
 ----------------------------------------------------------------------

 -------
 Radical
 -------
 Symbolic Z-matrix:
 Charge = -1 Multiplicity = 2

 SCF Done:  E(UB3LYP) =  -754.536063953     A.U. after   19 cycles
 SCF Done:  E(UB3LYP) =  -754.536490762     A.U. after   14 cycles
 SCF Done:  E(UB3LYP) =  -754.536555839     A.U. after   14 cycles
 SCF Done:  E(UB3LYP) =  -754.536559482     A.U. after   12 cycles
 Optimization completed.
    -- Stationary point found.
 Normal termination of Gaussian 16 at Sun Feb 11 15:52:11 2024.

 ----------------------------------------------------------------------
 #P Geom=AllCheck Guess=TCheck SCRF=Check GenChk UB3LYP/6-311++G(d,p) F
 req
 ----------------------------------------------------------------------

 Structure from the checkpoint file:  "348-rad.chk"
 -------
 Radical
 -------
 Charge = -1 Multiplicity = 2

                          Input orientation:
 ---------------------------------------------------------------------
 Center     Atomic      Atomic             Coordinates (Angstroms)
 Number     Number       Type             X           Y           Z
 ---------------------------------------------------------------------
      1          8           0        3.893917    2.723627    1.017664
      2          6           0        3.001759    1.877061    1.044984
      3          7           0        2.922466    0.899681    2.006037
      4          6           0        1.943094   -0.117361    2.127552
      5          8           0        2.045675   -0.914259    3.071134
      6          6           0        0.922248   -0.102185    1.113188
      7          7           0       -0.072515   -1.038165    1.134491
      8          6           0       -0.997088   -0.954794    0.138773
      9          6           0       -2.064458   -1.885415    0.086899
     10          6           0       -3.021918   -1.826241   -0.915229
     11          6           0       -2.950088   -0.834631   -1.905260
     12          6           0       -1.912321    0.094580   -1.880722
     13          6           0       -0.931679    0.058095   -0.878572
     14          7           0        0.086964    0.997779   -0.879731
     15          6           0        0.962849    0.889713    0.095962
     16          7           0        1.995748    1.824959    0.113699
     17          1           0        3.648544    0.905713    2.710156
     18          1           0       -2.110793   -2.648412    0.856728
     19          1           0       -3.829130   -2.550664   -0.932439
     20          1           0       -3.699172   -0.790332   -2.687777
     21          1           0       -1.842391    0.868028   -2.638482
     22          1           0        2.008286    2.523221   -0.618017
 ---------------------------------------------------------------------

 SCF Done:  E(UB3LYP) =  -754.536559482     A.U. after    1 cycles

 Alpha  occ. eigenvalues --  -19.10279 -19.09056 -14.36286 -14.35750 -14.29976
 Alpha  occ. eigenvalues --  -14.29538 -10.31923 -10.27423 -10.25604 -10.20357
 Alpha  occ. eigenvalues --  -10.20099 -10.19840 -10.16860 -10.16784 -10.16465
 Alpha  occ. eigenvalues --  -10.16464  -1.07420  -1.03409  -0.98802  -0.94499
 Alpha  occ. eigenvalues --   -0.91839  -0.88522  -0.83929  -0.76360  -0.74259
 Alpha  occ. eigenvalues --   -0.69640  -0.66962  -0.64706  -0.60332  -0.59369
 Alpha  occ. eigenvalues --   -0.55780  -0.55394  -0.51570  -0.49400  -0.48107
 Alpha  occ. eigenvalues --   -0.47010  -0.46422  -0.44221  -0.43607  -0.42509
 Alpha  occ. eigenvalues --   -0.42480  -0.42005  -0.40535  -0.36505  -0.36071
 Alpha  occ. eigenvalues --   -0.35769  -0.33396  -0.30397  -0.30193  -0.30098
 Alpha  occ. eigenvalues --   -0.28893  -0.26764  -0.24993  -0.24724  -0.23351
 Alpha  occ. eigenvalues --   -0.13762
 Alpha virt. eigenvalues --   -0.02805  -0.00375  -0.00200   0.00485   0.00696
 Alpha virt. eigenvalues --    0.01348   0.02374   0.02744   0.03368   0.04044
 Alpha virt. eigenvalues --    0.04423   0.04989   0.05049   0.06180   0.06440

  Beta  occ. eigenvalues --  -19.10239 -19.08825 -14.36309 -14.35730 -14.29629
  Beta  occ. eigenvalues --  -14.28737 -10.31904 -10.27278 -10.25671 -10.20259
  Beta  occ. eigenvalues --  -10.20207 -10.19696 -10.16894 -10.16616 -10.16468
  Beta  occ. eigenvalues --  -10.16280  -1.07338  -1.03038  -0.98575  -0.94088
  Beta  occ. eigenvalues --   -0.91508  -0.87641  -0.83634  -0.75947  -0.74019
  Beta  occ. eigenvalues --   -0.68946  -0.66900  -0.64538  -0.60118  -0.59123
  Beta  occ. eigenvalues --   -0.55593  -0.55223  -0.51334  -0.49299  -0.47703
  Beta  occ. eigenvalues --   -0.46830  -0.46268  -0.44123  -0.43406  -0.42324
  Beta  occ. eigenvalues --   -0.41841  -0.41457  -0.39591  -0.35950  -0.35913
  Beta  occ. eigenvalues --   -0.35658  -0.31077  -0.30053  -0.29762  -0.29431
  Beta  occ. eigenvalues --   -0.28232  -0.26436  -0.24404  -0.23558  -0.22310
  Beta virt. eigenvalues --   -0.07197  -0.02432  -0.00183   0.00488   0.00501
  Beta virt. eigenvalues --    0.01360   0.01932   0.02392   0.02753   0.04069
  Beta virt. eigenvalues --    0.04308   0.04621   0.05003   0.05059   0.06264

 Mulliken charges and spin densities:
               1          2
     1  O   -0.443456   0.013418
     2  C    0.395388   0.012549
     3  N   -0.456209  -0.000390
     4  C    0.293214   0.068801
     5  O   -0.480163   0.087658
     6  C   -0.130013   0.094664
     7  N   -0.205332   0.386229
     8  C   -0.035642  -0.072517
     9  C   -0.203542   0.106648
    10  C   -0.343045  -0.029157
    11  C   -0.264480   0.142972
    12  C   -0.223151  -0.042029
    13  C    0.084782   0.121836
    14  N   -0.220060   0.159219
    15  C    0.225485  -0.021332
    16  N   -0.457301  -0.007786
    17  H    0.405425  -0.000812
    18  H    0.179095  -0.010334
    19  H    0.176615   0.001743
    20  H    0.178679  -0.009752
    21  H    0.170151  -0.001104
    22  H    0.353559  -0.000522
 Sum of Mulliken charges =  -1.00000   1.00000

 Dipole moment (field-independent basis, Debye):
    X=             -5.0629    Y=              0.9257    Z=             -6.4099  Tot=              8.2205
 Quadrupole moment (field-independent basis, Debye-Ang):
   XX=           -117.3708   YY=           -111.6701   ZZ=           -115.8755
   XY=             -8.9855   XZ=            -11.1610   YZ=              7.1638

  Exact polarizability: 328.076  87.426 213.695 119.132 -23.103 252.896
 Approx polarizability: 337.410  82.470 242.497 117.886 -41.651 287.478

                      1                      2                      3
                      A                      A                      A
 Frequencies --     68.6989                82.4564               143.1673
 Red. masses --      7.8612                 5.5205                11.1104
 Frc consts  --      0.0219                 0.0221                 0.1342
 IR Inten    --      0.6483                 0.0221                 5.8981

                      4                      5                      6
                      A                      A                      A
 Frequencies --    156.0579               199.4260               218.2595
 Red. masses --      7.3696                 7.2387                 7.5457
 Frc consts  --      0.1057                 0.1696                 0.2118
 IR Inten    --      0.9271                 7.1125                 0.1422

                      7                      8                      9
                      A                      A                      A
 Frequencies --    314.0589               335.2614               376.5654
 Red. masses --      5.8729                10.7165                 7.2876
 Frc consts  --      0.3413                 0.7097                 0.6089
 IR Inten    --      0.0690                14.2016                 5.5257

                     10                     11                     12
                      A                      A                      A
 Frequencies --    380.2190               415.2321               475.6947
 Red. masses --      8.5782                 9.5959                 3.2760
 Frc consts  --      0.7307                 0.9748                 0.4368
 IR Inten    --      9.8682                41.4963                 0.5208

                     13                     14                     15
                      A                      A                      A
 Frequencies --    522.6873               529.5907               538.5819
 Red. masses --      9.1680                 1.1356                 9.8218
 Frc consts  --      1.4757                 0.1877                 1.6786
 IR Inten    --     50.4662                 1.7312                25.9433

                     16                     17                     18
                      A                      A                      A
 Frequencies --    557.4249               580.3615               592.2818
 Red. masses --      3.9388                 6.9422                 1.1070
 Frc consts  --      0.7211                 1.3777                 0.2288
 IR Inten    --     17.5109                 9.3324               287.1934

                     19                     20                     21
                      A                      A                      A
 Frequencies --    613.4878               652.1397               672.1685
 Red. masses --      7.8616                 6.8362                 9.7062
 Frc consts  --      1.7433                 1.7129                 2.5838
 IR Inten    --      2.7458                 0.1974                43.0763

                     22                     23                     24
                      A                      A                      A
 Frequencies --    698.6187               711.1947               740.2522
 Red. masses --     10.1317                 6.1683                 9.9976
 Frc consts  --      2.9135                 1.8382                 3.2278
 IR Inten    --     11.1922                12.7868                18.7782

                     25                     26                     27
                      A                      A                      A
 Frequencies --    747.5424               748.8683               781.0738
 Red. masses --      5.5910                 1.2752                 6.6966
 Frc consts  --      1.8408                 0.4213                 2.4071
 IR Inten    --      4.2189               154.0124                 2.9712

                     28                     29                     30
                      A                      A                      A
 Frequencies --    842.9367               861.1371               910.5834
 Red. masses --      1.4494                 6.5012                 6.1242
 Frc consts  --      0.6068                 2.8405                 2.9918
 IR Inten    --      0.0865                 8.5470                16.7926

                     31                     32                     33
                      A                      A                      A
 Frequencies --    928.7995               960.8436              1035.8202
 Red. masses --      1.3570                 1.2460                 2.8090
 Frc consts  --      0.6897                 0.6777                 1.7757
 IR Inten    --      8.2092                 0.0002                78.1791

                     34                     35                     36
                      A                      A                      A
 Frequencies --   1042.8180              1105.2852              1134.9624
 Red. masses --      2.1746                 3.0450                 1.8325
 Frc consts  --      1.3933                 2.1918                 1.3908
 IR Inten    --      7.8968                43.1648                59.2891

                     37                     38                     39
                      A                      A                      A
 Frequencies --   1161.4040              1214.6278              1240.8368
 Red. masses --      1.1353                 3.8397                 4.7983
 Frc consts  --      0.9023                 3.3376                 4.3528
 IR Inten    --      0.9380               233.3550               138.9129

                     40                     41                     42
                      A                      A                      A
 Frequencies --   1264.3128              1294.2302              1311.9175
 Red. masses --      4.8698                 2.4426                 4.2784
 Frc consts  --      4.5864                 2.4106                 4.3385
 IR Inten    --     86.2126                16.1051               218.3195

                     43                     44                     45
                      A                      A                      A
 Frequencies --   1343.2955              1367.4809              1398.8468
 Red. masses --      5.4576                 2.3488                 3.5277
 Frc consts  --      5.8022                 2.5879                 4.0671
 IR Inten    --    672.3555               243.6184               121.5755

                     46                     47                     48
                      A                      A                      A
 Frequencies --   1411.8697              1450.5151              1468.3122
 Red. masses --      2.7750                 4.9817                 2.8989
 Frc consts  --      3.2592                 6.1755                 3.6823
 IR Inten    --     21.7100                49.0017               144.4796

                     49                     50                     51
                      A                      A                      A
 Frequencies --   1490.3481              1520.6883              1570.0471
 Red. masses --      4.2696                 3.4864                 5.5705
 Frc consts  --      5.5874                 4.7502                 8.0903
 IR Inten    --    565.5284               469.9990               151.6158

                     52                     53                     54
                      A                      A                      A
 Frequencies --   1610.6519              1636.5740              1698.6754
 Red. masses --      5.7869                 7.1377                 6.7058
 Frc consts  --      8.8451                11.2637                11.4004
 IR Inten    --    408.5319              1369.9489              2256.0842

                     55                     56                     57
                      A                      A                      A
 Frequencies --   3155.9046              3162.4387              3172.1384
 Red. masses --      1.0849                 1.0882                 1.0927
 Frc consts  --      6.3660                 6.4122                 6.4783
 IR Inten    --      4.6908                 8.4646                54.8743

                     58                     59                     60
                      A                      A                      A
 Frequencies --   3183.9625              3603.6330              3608.2553
 Red. masses --      1.0971                 1.0776                 1.0783
 Frc consts  --      6.5529                 8.2446                 8.2716
 IR Inten    --     48.1180               122.6069               118.9088

 - Thermochemistry -
 -------------------
 Temperature   298.150 Kelvin.  Pressure   1.00000 Atm.
 Atom     1 has atomic number  8 and mass  15.99491

 Molecular mass:   214.04908 amu.
 Principal axes and moments of inertia in atomic units:
                           1         2         3
     Eigenvalues --  1323.739935187.755006511.49095
           X            0.82977  -0.03165  -0.55721
           Y            0.37972  -0.69967   0.60521
           Z            0.40901   0.71377   0.56855
 This molecule is an asymmetric top.
 Rotational symmetry number  1.
 Warning -- assumption of classical behavior for rotation
           may cause significant error
 Rotational temperatures (Kelvin)      0.06543     0.01670     0.01330
 Rotational constants (GHZ):           1.36337     0.34788     0.27716
 Zero-point vibrational energy     400841.9 (Joules/Mol)
                                   95.80350 (Kcal/Mol)
 Warning -- explicit consideration of  19 degrees of freedom as
           vibrations may cause significant error
 Vibrational temperatures:     98.84   118.64   205.99   224.53   286.93
          (Kelvin)            314.03   451.86   482.37   541.79   547.05
                              597.43   684.42   752.03   761.96   774.90
                              802.01   835.01   852.16   882.67   938.28
                              967.10  1005.16  1023.25  1065.06  1075.55
                             1077.45  1123.79  1212.80  1238.98  1310.13
                             1336.34  1382.44  1490.31  1500.38  1590.26
                             1632.96  1671.00  1747.58  1785.29  1819.06
                             1862.11  1887.56  1932.70  1967.50  2012.63
                             2031.37  2086.97  2112.57  2144.28  2187.93
                             2258.95  2317.37  2354.66  2444.02  4540.64
                             4550.04  4564.00  4581.01  5184.82  5191.47

 Zero-point correction=                           0.152673 (Hartree/Particle)
 Thermal correction to Energy=                    0.164096
 Thermal correction to Enthalpy=                  0.165040
 Thermal correction to Gibbs Free Energy=         0.114375
 Sum of electronic and zero-point Energies=           -754.383887
 Sum of electronic and thermal Energies=              -754.372463
 Sum of electronic and thermal Enthalpies=            -754.371519
 Sum of electronic and thermal Free Energies=         -754.422185

                     E (Thermal)             CV                S
                      KCal/Mol        Cal/Mol-Kelvin    Cal/Mol-Kelvin
 Total                  102.972             46.277            106.634
 Electronic               0.000              0.000              1.377
 Translational            0.889              2.981             41.987
 Rotational               0.889              2.981             32.170
 Vibrational            101.194             40.316             31.101
 Vibration     1          0.598              1.969              4.190
 Vibration     2          0.600              1.961              3.832
 Vibration     3          0.616              1.910              2.761
 Vibration     4          0.620              1.896              2.597
 Vibration     5          0.638              1.841              2.138
 Vibration     6          0.646              1.813              1.973
 Vibration     7          0.702              1.647              1.341
 Vibration     8          0.716              1.605              1.235
 Vibration     9          0.747              1.520              1.053
 Vibration    10          0.750              1.512              1.038
 Vibration    11          0.779              1.437              0.908
 Vibration    12          0.832              1.304              0.722
 Vibration    13          0.878              1.200              0.604
 Vibration    14          0.885              1.185              0.588
 Vibration    15          0.894              1.165              0.568
 Vibration    16          0.913              1.123              0.529
 Vibration    17          0.937              1.074              0.485
 Vibration    18          0.950              1.048              0.463
 Vibration    19          0.973              1.003              0.427

 Optimization completed.
    -- Stationary point found.
 Normal termination of Gaussian 16 at Sun Feb 11 16:28:24 2024.
