 Gaussian 16, Revision A.03,
 Gaussian 16:  ES64L-G16RevA.03 25-Dec-2016

 ----------------------------------------------------------------------
 #P UB3LYP/6-311++G(d,p) nosym opt freq SCRF=(PCM,Solvent=n,n-DiMethylF
 ormamide)
 ----------------------------------------------------------------------

 --------
 Oxidized
 --------
 Symbolic Z-matrix:
 Charge =  0 Multiplicity = 1

 SCF Done:  E(UB3LYP) =  -769.991398254     A.U. after   14 cycles
 SCF Done:  E(UB3LYP) =  -769.991572376     A.U. after   10 cycles
 SCF Done:  E(UB3LYP) =  -769.991593376     A.U. after   10 cycles
 SCF Done:  E(UB3LYP) =  -769.991598933     A.U. after    9 cycles
 SCF Done:  E(UB3LYP) =  -769.991599473     A.U. after    8 cycles
 Optimization completed.
    -- Stationary point found.
 Normal termination of Gaussian 16 at Sun Feb 11 15:38:55 2024.

 ----------------------------------------------------------------------
 #P Geom=AllCheck Guess=TCheck SCRF=Check GenChk UB3LYP/6-311++G(d,p) F
 req
 ----------------------------------------------------------------------

 Structure from the checkpoint file:  "332.chk"
 --------
 Oxidized
 --------
 Charge =  0 Multiplicity = 1

                          Input orientation:
 ---------------------------------------------------------------------
 Center     Atomic      Atomic             Coordinates (Angstroms)
 Number     Number       Type             X           Y           Z
 ---------------------------------------------------------------------
      1          6           0        3.446649    2.748244   -0.032760
      2          6           0        2.741446    1.425681    0.013548
      3          6           0        1.391209    1.314141   -0.022893
      4          6           0        0.699687    0.041111    0.020339
      5          6           0        1.530897   -1.142944    0.107762
      6          6           0        2.884830   -1.097019    0.148306
      7          6           0        3.734379   -2.329368    0.239655
      8          6           0        3.575105    0.208753    0.102545
      9          8           0        4.808278    0.280893    0.137931
     10          6           0       -0.699702   -0.040838   -0.020362
     11          6           0       -1.391061   -1.313947    0.022864
     12          6           0       -2.741283   -1.425660   -0.013557
     13          6           0       -3.446316   -2.748314    0.032717
     14          6           0       -3.575100   -0.208837   -0.102539
     15          8           0       -4.808263   -0.281136   -0.137880
     16          6           0       -2.884993    1.097025   -0.148266
     17          6           0       -1.531065    1.143124   -0.107751
     18          6           0       -3.734704    2.329264   -0.239593
     19          1           0        4.067027    2.888921    0.857221
     20          1           0        2.733766    3.571194   -0.097082
     21          1           0        4.120639    2.798892   -0.892969
     22          1           0        0.813703    2.225584   -0.087317
     23          1           0        1.060431   -2.115381    0.143332
     24          1           0        3.118161   -3.228823    0.268986
     25          1           0        4.414637   -2.396689   -0.614476
     26          1           0        4.361541   -2.303242    1.135632
     27          1           0       -0.813412   -2.225310    0.087263
     28          1           0       -4.120565   -2.798941    0.892719
     29          1           0       -4.066396   -2.889196   -0.857442
     30          1           0       -2.733337   -3.571157    0.097351
     31          1           0       -1.060750    2.115628   -0.143302
     32          1           0       -3.118615    3.228819   -0.268549
     33          1           0       -4.361584    2.303244   -1.135775
     34          1           0       -4.415237    2.396288    0.614339
 ---------------------------------------------------------------------

 SCF Done:  E(UB3LYP) =  -769.991599473     A.U. after    1 cycles

 Alpha  occ. eigenvalues --  -19.12070 -19.12070 -10.26548 -10.26548 -10.22730
 Alpha  occ. eigenvalues --  -10.22679 -10.20444 -10.20444 -10.20441 -10.20441
 Alpha  occ. eigenvalues --  -10.19968 -10.19968 -10.19964 -10.19964 -10.17309
 Alpha  occ. eigenvalues --  -10.17309 -10.17306 -10.17306  -1.04785  -1.04784
 Alpha  occ. eigenvalues --   -0.89410  -0.86264  -0.81171  -0.80729  -0.79900
 Alpha  occ. eigenvalues --   -0.73991  -0.71312  -0.70145  -0.69452  -0.67676
 Alpha  occ. eigenvalues --   -0.63248  -0.60734  -0.58324  -0.57844  -0.52735
 Alpha  occ. eigenvalues --   -0.52707  -0.48381  -0.48023  -0.47753  -0.45394
 Alpha  occ. eigenvalues --   -0.44967  -0.44515  -0.43795  -0.43202  -0.42272
 Alpha  occ. eigenvalues --   -0.42257  -0.42250  -0.41999  -0.41757  -0.39636
 Alpha  occ. eigenvalues --   -0.39335  -0.38814  -0.38644  -0.38429  -0.38247
 Alpha  occ. eigenvalues --   -0.37884  -0.37386  -0.35789  -0.32536  -0.27884
 Alpha  occ. eigenvalues --   -0.27240  -0.27150  -0.26735  -0.23621
 Alpha virt. eigenvalues --   -0.14176  -0.04697  -0.03208  -0.01068  -0.00484
 Alpha virt. eigenvalues --   -0.00151   0.00200   0.01293   0.01634   0.02290
 Alpha virt. eigenvalues --    0.02576   0.02653   0.03168   0.03211   0.04004

  Beta  occ. eigenvalues --  -19.12070 -19.12070 -10.26548 -10.26548 -10.22730
  Beta  occ. eigenvalues --  -10.22679 -10.20444 -10.20444 -10.20441 -10.20441
  Beta  occ. eigenvalues --  -10.19968 -10.19968 -10.19964 -10.19964 -10.17309
  Beta  occ. eigenvalues --  -10.17309 -10.17306 -10.17306  -1.04785  -1.04784
  Beta  occ. eigenvalues --   -0.89410  -0.86264  -0.81171  -0.80729  -0.79900
  Beta  occ. eigenvalues --   -0.73991  -0.71312  -0.70145  -0.69452  -0.67676
  Beta  occ. eigenvalues --   -0.63248  -0.60734  -0.58324  -0.57844  -0.52735
  Beta  occ. eigenvalues --   -0.52707  -0.48381  -0.48023  -0.47753  -0.45394
  Beta  occ. eigenvalues --   -0.44967  -0.44515  -0.43795  -0.43202  -0.42272
  Beta  occ. eigenvalues --   -0.42257  -0.42250  -0.41999  -0.41757  -0.39636
  Beta  occ. eigenvalues --   -0.39335  -0.38814  -0.38644  -0.38429  -0.38247
  Beta  occ. eigenvalues --   -0.37884  -0.37386  -0.35789  -0.32536  -0.27884
  Beta  occ. eigenvalues --   -0.27240  -0.27150  -0.26735  -0.23621
  Beta virt. eigenvalues --   -0.14176  -0.04697  -0.03208  -0.01068  -0.00484
  Beta virt. eigenvalues --   -0.00151   0.00200   0.01293   0.01634   0.02290
  Beta virt. eigenvalues --    0.02576   0.02653   0.03168   0.03211   0.04004

 Mulliken charges and spin densities:
               1          2
     1  C   -0.196296   0.000000
     2  C    0.425285  -0.000000
     3  C   -0.644986   0.000000
     4  C    1.511625  -0.000000
     5  C   -0.646001   0.000000
     6  C    0.426212  -0.000000
     7  C   -0.197008   0.000000
     8  C   -1.502900   0.000000
     9  O   -0.315792   0.000000
    10  C    1.511628  -0.000000
    11  C   -0.645079  -0.000000
    12  C    0.425126  -0.000000
    13  C   -0.196342   0.000000
    14  C   -1.502898   0.000000
    15  O   -0.315792  -0.000000
    16  C    0.426364  -0.000000
    17  C   -0.645909   0.000000
    18  C   -0.196961   0.000000
    19  H    0.185065   0.000000
    20  H    0.174312  -0.000000
    21  H    0.185352   0.000000
    22  H    0.025069   0.000000
    23  H    0.025149  -0.000000
    24  H    0.174526  -0.000000
    25  H    0.185318   0.000000
    26  H    0.185070   0.000000
    27  H    0.025003   0.000000
    28  H    0.185330  -0.000000
    29  H    0.185087  -0.000000
    30  H    0.174313  -0.000000
    31  H    0.025218   0.000000
    32  H    0.174524   0.000000
    33  H    0.185095   0.000000
    34  H    0.185294   0.000000
 Sum of Mulliken charges =  -0.00000  -0.00000

 Dipole moment (field-independent basis, Debye):
    X=             -0.0000    Y=              0.0006    Z=             -0.0002  Tot=              0.0007
 Quadrupole moment (field-independent basis, Debye-Ang):
   XX=           -160.7611   YY=            -88.2322   ZZ=           -108.5506
   XY=             -4.2302   XZ=             -1.4415   YZ=             -1.1865

  Exact polarizability: 843.864  34.359 260.697  20.353  -4.655 150.147
 Approx polarizability:1133.174  50.673 271.112  27.751  -3.339 176.198

                      1                      2                      3
                      A                      A                      A
 Frequencies --     23.5071                42.4051                74.0457
 Red. masses --      3.4190                 6.9588                 5.5184
 Frc consts  --      0.0011                 0.0074                 0.0178
 IR Inten    --      0.0282                10.4651                 0.0000

                      4                      5                      6
                      A                      A                      A
 Frequencies --    103.0693               113.0524               142.7596
 Red. masses --      3.7851                 4.0737                 1.0945
 Frc consts  --      0.0237                 0.0307                 0.0131
 IR Inten    --     14.3005                 3.1445                 0.0000

                      7                      8                      9
                      A                      A                      A
 Frequencies --    145.6707               148.2932               154.8636
 Red. masses --      1.0389                 1.1723                 1.0429
 Frc consts  --      0.0130                 0.0152                 0.0147
 IR Inten    --      0.3302                 0.0000                 1.8876

                     10                     11                     12
                      A                      A                      A
 Frequencies --    180.1043               219.3191               233.0226
 Red. masses --      2.5304                 2.7097                 3.3461
 Frc consts  --      0.0484                 0.0768                 0.1070
 IR Inten    --      0.0000                 0.0000                 0.0000

                     13                     14                     15
                      A                      A                      A
 Frequencies --    257.5603               264.2116               276.6526
 Red. masses --      2.6936                 3.3776                 2.6306
 Frc consts  --      0.1053                 0.1389                 0.1186
 IR Inten    --      0.0096                 0.0000                10.3336

                     16                     17                     18
                      A                      A                      A
 Frequencies --    299.4316               308.7373               324.9386
 Red. masses --      4.1853                 4.6963                 3.8301
 Frc consts  --      0.2211                 0.2637                 0.2383
 IR Inten    --      1.2229                 0.0000                 0.0000

                     19                     20                     21
                      A                      A                      A
 Frequencies --    334.2647               351.6458               444.3562
 Red. masses --      4.6207                 6.2813                 2.9549
 Frc consts  --      0.3042                 0.4576                 0.3438
 IR Inten    --     29.8533                 0.0000                 0.0016

                     22                     23                     24
                      A                      A                      A
 Frequencies --    450.6766               473.5371               492.3846
 Red. masses --      3.1249                 6.2106                 4.6187
 Frc consts  --      0.3739                 0.8205                 0.6597
 IR Inten    --      0.0000               196.1054                 5.0057

                     25                     26                     27
                      A                      A                      A
 Frequencies --    511.1862               514.3608               558.3031
 Red. masses --      4.8791                 6.0340                 3.6224
 Frc consts  --      0.7512                 0.9406                 0.6653
 IR Inten    --      0.0000                 0.0000                 0.0440

                     28                     29                     30
                      A                      A                      A
 Frequencies --    605.2703               620.6497               650.1491
 Red. masses --      4.6550                 3.3701                 3.2103
 Frc consts  --      1.0048                 0.7649                 0.7995
 IR Inten    --      7.8433                 0.0000                 0.0000

                     31                     32                     33
                      A                      A                      A
 Frequencies --    675.3701               776.1092               780.4419
 Red. masses --      5.8400                 5.2526                 6.1368
 Frc consts  --      1.5695                 1.8641                 2.2023
 IR Inten    --      3.0462                13.9007                 0.0000

                     34                     35                     36
                      A                      A                      A
 Frequencies --    781.5807               835.9211               871.2539
 Red. masses --      4.1768                 4.9591                 1.4118
 Frc consts  --      1.5033                 2.0417                 0.6314
 IR Inten    --      0.0000               186.0408                 0.0210

                     37                     38                     39
                      A                      A                      A
 Frequencies --    879.4394               900.0007               916.4828
 Red. masses --      1.2920                 1.5735                 1.4018
 Frc consts  --      0.5887                 0.7510                 0.6937
 IR Inten    --      0.0001                 0.0000               103.3716

                     40                     41                     42
                      A                      A                      A
 Frequencies --    933.4465               945.0658               952.5585
 Red. masses --      3.9533                 3.7667                 3.5312
 Frc consts  --      2.0295                 1.9821                 1.8878
 IR Inten    --      0.0000                60.5917                 0.0000

                     43                     44                     45
                      A                      A                      A
 Frequencies --    967.8145              1039.8400              1052.7116
 Red. masses --      2.1376                 1.8288                 1.5082
 Frc consts  --      1.1797                 1.1651                 0.9847
 IR Inten    --     36.2194                 0.0000                 0.3756

                     46                     47                     48
                      A                      A                      A
 Frequencies --   1054.0029              1054.2707              1054.7689
 Red. masses --      1.6345                 1.7064                 1.5189
 Frc consts  --      1.0698                 1.1175                 0.9956
 IR Inten    --      0.0002                 7.7899                 0.0000

                     49                     50                     51
                      A                      A                      A
 Frequencies --   1056.0828              1057.8963              1067.1555
 Red. masses --      1.5585                 1.5507                 1.6821
 Frc consts  --      1.0241                 1.0225                 1.1286
 IR Inten    --      0.0001                13.7029               438.5323

                     52                     53                     54
                      A                      A                      A
 Frequencies --   1204.3527              1227.8861              1247.3856
 Red. masses --      2.5338                 4.1524                 1.7890
 Frc consts  --      2.1654                 3.6886                 1.6400
 IR Inten    --      0.0000               847.0862                 0.0001

                     55                     56                     57
                      A                      A                      A
 Frequencies --   1261.6915              1295.4662              1368.1680
 Red. masses --      8.6909                 1.8426                 3.1670
 Frc consts  --      8.1512                 1.8220                 3.4929
 IR Inten    --     43.6264                 2.0833                 0.0000

                     58                     59                     60
                      A                      A                      A
 Frequencies --   1376.5453              1378.7544              1405.0914
 Red. masses --      1.9091                 1.6906                 1.3013
 Frc consts  --      2.1314                 1.8935                 1.5137
 IR Inten    --      0.0002                94.6811                 0.0000

                     61                     62                     63
                      A                      A                      A
 Frequencies --   1406.5362              1408.4071              1409.4847
 Red. masses --      1.2376                 1.2796                 1.3221
 Frc consts  --      1.4425                 1.4954                 1.5476
 IR Inten    --     10.1767                26.6997                 0.0000

                     64                     65                     66
                      A                      A                      A
 Frequencies --   1436.4675              1442.1879              1458.6850
 Red. masses --      4.4412                 1.8141                 1.0442
 Frc consts  --      5.3994                 2.2231                 1.3091
 IR Inten    --      0.0000                 0.0804                 0.0171

                     67                     68                     69
                      A                      A                      A
 Frequencies --   1458.7469              1459.3483              1459.3826
 Red. masses --      1.0441                 1.0439                 1.0437
 Frc consts  --      1.3090                 1.3098                 1.3097
 IR Inten    --     20.0324                 0.0699                29.6847

                     70                     71                     72
                      A                      A                      A
 Frequencies --   1467.9350              1473.1546              1477.3827
 Red. masses --      1.1621                 1.1339                 1.0871
 Frc consts  --      1.4754                 1.4498                 1.3980
 IR Inten    --      0.0000                 0.0000                36.8097

                     73                     74                     75
                      A                      A                      A
 Frequencies --   1480.6056              1529.2907              1607.9112
 Red. masses --      1.2034                 3.0480                 6.0938
 Frc consts  --      1.5543                 4.2000                 9.2825
 IR Inten    --      7.4132                 0.0000                 0.0010

                     76                     77                     78
                      A                      A                      A
 Frequencies --   1610.8563              1617.2127              1641.6427
 Red. masses --     12.2782                 6.2714                11.3863
 Frc consts  --     18.7715                 9.6638                18.0797
 IR Inten    --   5267.9382                84.6509                 0.0000

                     79                     80                     81
                      A                      A                      A
 Frequencies --   1660.9092              1683.0211              3029.7613
 Red. masses --      5.7992                 6.6847                 1.0364
 Frc consts  --      9.4256                11.1561                 5.6055
 IR Inten    --      0.0000               147.2800                 1.2221

                     82                     83                     84
                      A                      A                      A
 Frequencies --   3029.7709              3029.9934              3030.2532
 Red. masses --      1.0365                 1.0365                 1.0365
 Frc consts  --      5.6056                 5.6067                 5.6078
 IR Inten    --     64.1285                92.0186                 0.0018

                     85                     86                     87
                      A                      A                      A
 Frequencies --   3077.6182              3077.6224              3077.7771
 Red. masses --      1.0992                 1.0992                 1.0992
 Frc consts  --      6.1342                 6.1343                 6.1348
 IR Inten    --      3.4506                18.6130                 1.9715

                     88                     89                     90
                      A                      A                      A
 Frequencies --   3077.7847              3115.5410              3115.5508
 Red. masses --      1.0992                 1.1022                 1.1022
 Frc consts  --      6.1349                 6.3035                 6.3036
 IR Inten    --     46.8294                40.0863                 0.5956

                     91                     92                     93
                      A                      A                      A
 Frequencies --   3115.6846              3115.7627              3197.4878
 Red. masses --      1.1021                 1.1021                 1.0910
 Frc consts  --      6.3037                 6.3038                 6.5722
 IR Inten    --     28.0142                 0.0131                 0.0620

                     94                     95                     96
                      A                      A                      A
 Frequencies --   3198.1001              3219.5916              3221.9683
 Red. masses --      1.0914                 1.0861                 1.0876
 Frc consts  --      6.5767                 6.6332                 6.6518
 IR Inten    --     18.8018                33.7981                 0.0022

 - Thermochemistry -
 -------------------
 Temperature   298.150 Kelvin.  Pressure   1.00000 Atm.
 Atom     1 has atomic number  6 and mass  12.00000

 Molecular mass:   240.11503 amu.
 Principal axes and moments of inertia in atomic units:
                           1         2         3
     Eigenvalues --  2099.369858422.02356**********
           X            0.99789  -0.05672  -0.03172
           Y            0.05831   0.99696   0.05164
           Z            0.02870  -0.05338   0.99816
 This molecule is an asymmetric top.
 Rotational symmetry number  1.
 Warning -- assumption of classical behavior for rotation
           may cause significant error
 Rotational temperatures (Kelvin)      0.04126     0.01028     0.00827
 Rotational constants (GHZ):           0.85966     0.21429     0.17226
 Zero-point vibrational energy     721679.7 (Joules/Mol)
                                  172.48558 (Kcal/Mol)
 Warning -- explicit consideration of  29 degrees of freedom as
           vibrations may cause significant error
 Vibrational temperatures:     33.82    61.01   106.54   148.29   162.66
          (Kelvin)            205.40   209.59   213.36   222.81   259.13
                              315.55   335.27   370.57   380.14   398.04
                              430.82   444.20   467.51   480.93   505.94
                              639.33   648.42   681.31   708.43   735.48
                              740.05   803.27   870.85   892.98   935.42
                              971.71  1116.65  1122.88  1124.52  1202.70
                             1253.54  1265.32  1294.90  1318.61  1343.02
                             1359.74  1370.52  1392.47  1496.10  1514.62
                             1516.48  1516.86  1517.58  1519.47  1522.08
                             1535.40  1732.79  1766.65  1794.71  1815.29
                             1863.89  1968.49  1980.54  1983.72  2021.61
                             2023.69  2026.38  2027.93  2066.76  2074.99
                             2098.72  2098.81  2099.68  2099.73  2112.03
                             2119.54  2125.62  2130.26  2200.31  2313.43
                             2317.66  2326.81  2361.96  2389.68  2421.49
                             4359.15  4359.16  4359.48  4359.86  4428.01
                             4428.01  4428.23  4428.25  4482.57  4482.58
                             4482.78  4482.89  4600.47  4601.35  4632.27
                             4635.69

 Zero-point correction=                           0.274873 (Hartree/Particle)
 Thermal correction to Energy=                    0.292596
 Thermal correction to Enthalpy=                  0.293540
 Thermal correction to Gibbs Free Energy=         0.229090
 Sum of electronic and zero-point Energies=           -769.716726
 Sum of electronic and thermal Energies=              -769.699004
 Sum of electronic and thermal Enthalpies=            -769.698060
 Sum of electronic and thermal Free Energies=         -769.762510

                     E (Thermal)             CV                S
                      KCal/Mol        Cal/Mol-Kelvin    Cal/Mol-Kelvin
 Total                  183.606             66.752            135.647
 Electronic               0.000              0.000              0.000
 Translational            0.889              2.981             42.329
 Rotational               0.889              2.981             33.582
 Vibrational            181.829             60.791             59.736
 Vibration     1          0.593              1.985              6.313
 Vibration     2          0.595              1.980              5.143
 Vibration     3          0.599              1.966              4.043
 Vibration     4          0.605              1.947              3.395
 Vibration     5          0.607              1.939              3.216
 Vibration     6          0.616              1.910              2.767
 Vibration     7          0.617              1.907              2.728
 Vibration     8          0.618              1.905              2.694
 Vibration     9          0.620              1.897              2.612
 Vibration    10          0.629              1.867              2.327
 Vibration    11          0.647              1.812              1.965
 Vibration    12          0.654              1.790              1.856
 Vibration    13          0.667              1.750              1.678
 Vibration    14          0.671              1.739              1.634
 Vibration    15          0.678              1.717              1.554
 Vibration    16          0.692              1.675              1.420
 Vibration    17          0.698              1.657              1.369
 Vibration    18          0.709              1.626              1.285
 Vibration    19          0.716              1.607              1.239
 Vibration    20          0.728              1.572              1.159
 Vibration    21          0.804              1.373              0.813
 Vibration    22          0.809              1.359              0.794
 Vibration    23          0.830              1.309              0.728
 Vibration    24          0.848              1.267              0.677
 Vibration    25          0.866              1.225              0.631
 Vibration    26          0.869              1.218              0.623
 Vibration    27          0.914              1.122              0.527
 Vibration    28          0.964              1.021              0.441
 Vibration    29          0.981              0.988              0.415

                           ! Non-Optimized Parameters !
 Normal termination of Gaussian 16 at Sun Feb 11 17:10:07 2024.
