 Gaussian 16, Revision A.03,
 Gaussian 16:  ES64L-G16RevA.03 25-Dec-2016

 ----------------------------------------------------------------
 #P UB3LYP/6-311++G(d,p) SCRF=(PCM,Solvent=n,n-DiMethylFormamide)
 ----------------------------------------------------------------

 ------------------
 Quinone PCM in DMF
 ------------------
 Symbolic Z-matrix:
 Charge =  0 Multiplicity = 1

                         Standard orientation:
 ---------------------------------------------------------------------
 Center     Atomic      Atomic             Coordinates (Angstroms)
 Number     Number       Type             X           Y           Z
 ---------------------------------------------------------------------
      1          6           0        1.319131    1.014699   -0.000071
      2          6           0        2.505159    0.211109   -0.000003
      3          6           0        2.360089   -1.211279   -0.000079
      4          6           0        0.044087    0.452378   -0.000274
      5          6           0       -0.057395   -0.981178   -0.000297
      6          6           0        1.066528   -1.770660   -0.000214
      7          6           0       -1.217917    1.265036   -0.000420
      8          6           0       -2.525146    0.530927   -0.000094
      9          6           0       -2.605319   -0.868964    0.000033
     10          6           0       -1.373771   -1.693490   -0.000282
     11          6           0       -3.704164    1.286040    0.000071
     12          6           0       -4.940412    0.653440    0.000421
     13          6           0       -5.017127   -0.743298    0.000589
     14          6           0       -3.854419   -1.501089    0.000368
     15          6           0        3.818259    0.750197    0.000178
     16          6           0        4.919060   -0.074569    0.000334
     17          6           0        4.772217   -1.479295    0.000266
     18          6           0        3.516246   -2.033878    0.000032
     19          8           0       -1.224507    2.482459   -0.000847
     20          8           0       -1.427747   -2.913587   -0.000416
     21         17           0        1.563134    2.747437    0.000245
     22          1           0        0.938560   -2.846459   -0.000220
     23          1           0       -3.624796    2.365614   -0.000074
     24          1           0       -5.848583    1.245537    0.000576
     25          1           0       -5.983864   -1.233781    0.000871
     26          1           0       -3.884539   -2.583516    0.000452
     27          1           0        3.949444    1.822445    0.000211
     28          1           0        5.912033    0.360099    0.000492
     29          1           0        5.650828   -2.113899    0.000354
     30          1           0        3.385033   -3.110205   -0.000062
 ---------------------------------------------------------------------

 SCF Done:  E(UB3LYP) =  -1302.25064017     A.U. after   16 cycles

 The electronic state is 1-A.
 Alpha  occ. eigenvalues -- -101.56716 -19.13033 -19.13020 -10.28831 -10.28410
 Alpha  occ. eigenvalues --  -10.27103 -10.22395 -10.21988 -10.21419 -10.21345
 Alpha  occ. eigenvalues --  -10.21086 -10.20909 -10.20386 -10.20003 -10.19950
 Alpha  occ. eigenvalues --  -10.19880 -10.19786 -10.19762 -10.19735 -10.19651
 Alpha  occ. eigenvalues --  -10.19633  -9.48230  -7.24694  -7.23753  -7.23613
 Alpha  occ. eigenvalues --   -1.06956  -1.06605  -0.92379  -0.89099  -0.87712
 Alpha  occ. eigenvalues --   -0.85565  -0.80570  -0.78656  -0.77971  -0.77219
 Alpha  occ. eigenvalues --   -0.75170  -0.68741  -0.68391  -0.65089  -0.63178
 Alpha  occ. eigenvalues --   -0.61147  -0.58752  -0.58272  -0.55827  -0.53164
 Alpha  occ. eigenvalues --   -0.52270  -0.50587  -0.49046  -0.47237  -0.46904
 Alpha  occ. eigenvalues --   -0.46443  -0.46156  -0.45586  -0.45278  -0.45149
 Alpha  occ. eigenvalues --   -0.44663  -0.43686  -0.42569  -0.42092  -0.40661
 Alpha  occ. eigenvalues --   -0.38931  -0.38308  -0.37523  -0.37113  -0.37089
 Alpha  occ. eigenvalues --   -0.36263  -0.34372  -0.33549  -0.30035  -0.28758
 Alpha  occ. eigenvalues --   -0.28694  -0.27977  -0.27602  -0.26947  -0.24609
 Alpha virt. eigenvalues --   -0.11685  -0.09591  -0.04697  -0.04378  -0.00984
 Alpha virt. eigenvalues --   -0.00804  -0.00251   0.00321   0.01135   0.01246
 Alpha virt. eigenvalues --    0.01606   0.01834   0.03190   0.03254   0.03452

  Beta  occ. eigenvalues -- -101.56716 -19.13033 -19.13020 -10.28831 -10.28410
  Beta  occ. eigenvalues --  -10.27103 -10.22395 -10.21988 -10.21419 -10.21345
  Beta  occ. eigenvalues --  -10.21086 -10.20909 -10.20386 -10.20003 -10.19950
  Beta  occ. eigenvalues --  -10.19880 -10.19786 -10.19762 -10.19735 -10.19651
  Beta  occ. eigenvalues --  -10.19633  -9.48230  -7.24694  -7.23753  -7.23613
  Beta  occ. eigenvalues --   -1.06956  -1.06605  -0.92379  -0.89099  -0.87712
  Beta  occ. eigenvalues --   -0.85565  -0.80570  -0.78656  -0.77971  -0.77219
  Beta  occ. eigenvalues --   -0.75170  -0.68741  -0.68391  -0.65089  -0.63178
  Beta  occ. eigenvalues --   -0.61147  -0.58752  -0.58272  -0.55827  -0.53164
  Beta  occ. eigenvalues --   -0.52270  -0.50587  -0.49046  -0.47237  -0.46904
  Beta  occ. eigenvalues --   -0.46443  -0.46156  -0.45586  -0.45278  -0.45149
  Beta  occ. eigenvalues --   -0.44663  -0.43686  -0.42569  -0.42092  -0.40661
  Beta  occ. eigenvalues --   -0.38931  -0.38308  -0.37523  -0.37113  -0.37089
  Beta  occ. eigenvalues --   -0.36263  -0.34372  -0.33549  -0.30035  -0.28758
  Beta  occ. eigenvalues --   -0.28694  -0.27977  -0.27602  -0.26947  -0.24609
  Beta virt. eigenvalues --   -0.11685  -0.09591  -0.04697  -0.04378  -0.00984
  Beta virt. eigenvalues --   -0.00804  -0.00251   0.00321   0.01135   0.01246
  Beta virt. eigenvalues --    0.01606   0.01834   0.03190   0.03254   0.03452

 Mulliken charges and spin densities:
               1          2
     1  C    0.693882   0.000000
     2  C    0.553594   0.000000
     3  C    1.109215  -0.000000
     4  C    0.281737  -0.000000
     5  C    0.680843   0.000000
     6  C    0.150264   0.000000
     7  C   -2.042348  -0.000000
     8  C   -0.281661  -0.000000
     9  C    0.491634   0.000000
    10  C   -0.809967  -0.000000
    11  C    0.263464   0.000000
    12  C   -0.461282  -0.000000
    13  C   -0.475678  -0.000000
    14  C    0.208588   0.000000
    15  C   -1.092481  -0.000000
    16  C   -0.691524  -0.000000
    17  C   -0.254641  -0.000000
    18  C   -0.230799   0.000000
    19  O   -0.161910   0.000000
    20  O   -0.263039   0.000000
    21  Cl   0.596737   0.000000
    22  H    0.156534  -0.000000
    23  H    0.186947   0.000000
    24  H    0.209405  -0.000000
    25  H    0.210272  -0.000000
    26  H    0.181763   0.000000
    27  H    0.186684   0.000000
    28  H    0.214884   0.000000
    29  H    0.204009  -0.000000
    30  H    0.184872   0.000000
 Sum of Mulliken charges =  -0.00000   0.00000

 Dipole moment (field-independent basis, Debye):
    X=              1.4798    Y=             -1.7699    Z=              0.0022  Tot=              2.3070
 Quadrupole moment (field-independent basis, Debye-Ang):
   XX=            -82.0043   YY=           -137.7743   ZZ=           -130.5471
   XY=             -6.6099   XZ=             -0.0041   YZ=              0.0012

 Normal termination of Gaussian 16 at Sun Jan 14 01:03:39 2024.
