 Q-Chem 5.4, Q-Chem, Inc., Pleasanton, CA (2021)
 Q-Chem 5.4.0 for Intel X86 EM64T Linux

User input:
--------------------------------------------------------------
$molecule
0 1
N                 -2.8958530000     -2.5429540000     -0.0840230000
C                 -2.5707520000     -1.2409180000      0.1266480000
C                 -3.6012020000     -0.3338530000      0.5059790000
C                 -3.3473460000      0.9863870000      0.7251790000
C                 -2.0380050000      1.5315910000      0.5892900000
N                 -1.8673730000      2.8636990000      0.7921810000
C                 -0.9843960000      0.6547310000      0.2393950000
C                  0.3711350000      1.1858330000      0.1268480000
O                  0.6353760000      2.3877760000      0.2568590000
C                  1.4778460000      0.2379720000     -0.1710250000
C                  1.2090380000     -1.1082480000     -0.4684100000
C                  2.2432020000     -1.9803420000     -0.8258790000
C                  3.5508590000     -1.5247170000     -0.8947330000
C                  3.8427510000     -0.1944620000     -0.5912700000
C                  2.8140220000      0.6570090000     -0.2248220000
N                  3.2346990000      2.0349280000      0.1473980000
O                  3.3319790000      2.2755020000      1.3383670000
O                  3.5438050000      2.7825270000     -0.7655740000
C                 -0.1786870000     -1.6462260000     -0.3885720000
O                 -0.3655920000     -2.8465460000     -0.6395870000
C                 -1.2541500000     -0.7400660000     -0.0012010000
H                 -3.8552340000     -2.8381950000     -0.0281840000
H                 -2.1646140000     -3.1740370000     -0.3908260000
H                 -4.6122200000     -0.7127700000      0.6161710000
H                 -4.1588000000      1.6506820000      1.0046480000
H                 -2.6315790000      3.4209870000      1.1335530000
H                 -0.9299010000      3.2430680000      0.7258230000
H                  1.9901110000     -3.0093200000     -1.0456190000
H                  4.3515310000     -2.1974000000     -1.1783450000
H                  4.8593470000      0.1773610000     -0.6302660000
$end
$rem
MAX_SCF_CYCLES=200
BASIS  =  6-311++G(d,p)
GUI  =  2
JOB_TYPE  =  SP
METHOD  =  B3LYP
SOLVENT_METHOD = PCM
$end
$pcm
theory = CPCM
$end
$solvent
dielectric 37.219
opticaldielectric 1.43
$end

--------------------------------------------------------------

             Standard Nuclear Orientation (Angstroms)
    I     Atom           X                Y                Z
 ----------------------------------------------------------------
    1      N      -2.8958530000    -2.5429540000    -0.0840230000
    2      C      -2.5707520000    -1.2409180000     0.1266480000
    3      C      -3.6012020000    -0.3338530000     0.5059790000
    4      C      -3.3473460000     0.9863870000     0.7251790000
    5      C      -2.0380050000     1.5315910000     0.5892900000
    6      N      -1.8673730000     2.8636990000     0.7921810000
    7      C      -0.9843960000     0.6547310000     0.2393950000
    8      C       0.3711350000     1.1858330000     0.1268480000
    9      O       0.6353760000     2.3877760000     0.2568590000
   10      C       1.4778460000     0.2379720000    -0.1710250000
   11      C       1.2090380000    -1.1082480000    -0.4684100000
   12      C       2.2432020000    -1.9803420000    -0.8258790000
   13      C       3.5508590000    -1.5247170000    -0.8947330000
   14      C       3.8427510000    -0.1944620000    -0.5912700000
   15      C       2.8140220000     0.6570090000    -0.2248220000
   16      N       3.2346990000     2.0349280000     0.1473980000
   17      O       3.3319790000     2.2755020000     1.3383670000
   18      O       3.5438050000     2.7825270000    -0.7655740000
   19      C      -0.1786870000    -1.6462260000    -0.3885720000
   20      O      -0.3655920000    -2.8465460000    -0.6395870000
   21      C      -1.2541500000    -0.7400660000    -0.0012010000
   22      H      -3.8552340000    -2.8381950000    -0.0281840000
   23      H      -2.1646140000    -3.1740370000    -0.3908260000
   24      H      -4.6122200000    -0.7127700000     0.6161710000
   25      H      -4.1588000000     1.6506820000     1.0046480000
   26      H      -2.6315790000     3.4209870000     1.1335530000
   27      H      -0.9299010000     3.2430680000     0.7258230000
   28      H       1.9901110000    -3.0093200000    -1.0456190000
   29      H       4.3515310000    -2.1974000000    -1.1783450000
   30      H       4.8593470000     0.1773610000    -0.6302660000
 ----------------------------------------------------------------

   10   -1004.2937298649      3.44e-06  Convergence criterion met
 Total energy in the final basis set =    -1004.2937298649

                    Orbital Energies (a.u.)
 --------------------------------------------------------------

 Alpha MOs
 -- Occupied --
-19.1856 -19.1851 -19.1202 -19.1167 -14.5759 -14.3354 -14.3349 -10.2757
-10.2710 -10.2571 -10.2462 -10.2456 -10.2229 -10.2123 -10.2122 -10.2039
-10.2002 -10.1996 -10.1989 -10.1985 -10.1970  -1.2625  -1.0908  -1.0579
 -1.0510  -0.9484  -0.9381  -0.9088  -0.8554  -0.8261  -0.8118  -0.7773
 -0.7467  -0.7222  -0.6889  -0.6679  -0.6604  -0.6126  -0.5989  -0.5911
 -0.5700  -0.5595  -0.5519  -0.5453  -0.5353  -0.5248  -0.5071  -0.4995
 -0.4905  -0.4783  -0.4719  -0.4580  -0.4497  -0.4486  -0.4274  -0.4186
 -0.4172  -0.4143  -0.4008  -0.3957  -0.3820  -0.3808  -0.3678  -0.3439
 -0.3373  -0.3342  -0.2980  -0.2848  -0.2831  -0.2814  -0.2788  -0.2719
 -0.2037

          Ground-State Mulliken Net Atomic Charges

     Atom                 Charge (a.u.)
  ----------------------------------------
      1 N                    -0.454202
      2 C                     0.048496
      3 C                    -0.403777
      4 C                    -0.300251
      5 C                     0.020270
      6 N                    -0.450626
      7 C                     0.363188
      8 C                    -0.472946
      9 O                    -0.320518
     10 C                     0.350047
     11 C                     0.458010
     12 C                    -0.256677
     13 C                    -0.356819
     14 C                     0.019901
     15 C                    -0.271068
     16 N                    -0.128415
     17 O                    -0.022051
     18 O                    -0.018457
     19 C                    -0.386590
     20 O                    -0.363479
     21 C                     0.415439
     22 H                     0.331018
     23 H                     0.352212
     24 H                     0.227812
     25 H                     0.229533
     26 H                     0.330340
     27 H                     0.357517
     28 H                     0.200524
     29 H                     0.243511
     30 H                     0.258061
  ----------------------------------------
  Sum of atomic charges =     0.000000

                    Cartesian Multipole Moments
 -----------------------------------------------------------------
    Charge (ESU x 10^10)
                 0.0000
    Dipole Moment (Debye)
         X      -8.0314      Y      -3.9877      Z       0.3765
       Tot       8.9748
    Quadrupole Moments (Debye-Ang)
        XX     -82.7271     XY     -22.6669     YY    -127.1620
        XZ     -12.0312     YZ       3.8786     ZZ    -125.3299

 Total job time:  88.08s(wall), 554.18s(cpu)
        *  Thank you very much for using Q-Chem.  Have a nice day.  *
