 Gaussian 16, Revision A.03,
 Gaussian 16:  ES64L-G16RevA.03 25-Dec-2016

 --------------------------------------
 #P UB3LYP/6-311++G(d,p) nosym opt freq
 --------------------------------------

 --------
 Oxidized
 --------
 Symbolic Z-matrix:
 Charge =  0 Multiplicity = 1

 SCF Done:  E(UB3LYP) =  -1004.26691298     A.U. after   17 cycles
 SCF Done:  E(UB3LYP) =  -1004.26691278     A.U. after   10 cycles
 SCF Done:  E(UB3LYP) =  -1004.26691297     A.U. after   10 cycles
 Optimization completed.
    -- Stationary point found.
 Normal termination of Gaussian 16 at Wed Dec 27 20:05:34 2023.

 ----------------------------------------------------------------------
 #P Geom=AllCheck Guess=TCheck SCRF=Check GenChk UB3LYP/6-311++G(d,p) F
 req
 ----------------------------------------------------------------------

 Structure from the checkpoint file:  "176.chk"
 --------
 Oxidized
 --------
 Charge =  0 Multiplicity = 1

                          Input orientation:
 ---------------------------------------------------------------------
 Center     Atomic      Atomic             Coordinates (Angstroms)
 Number     Number       Type             X           Y           Z
 ---------------------------------------------------------------------
      1          7           0       -2.895853   -2.542954   -0.084023
      2          6           0       -2.570752   -1.240918    0.126648
      3          6           0       -3.601202   -0.333853    0.505979
      4          6           0       -3.347346    0.986387    0.725179
      5          6           0       -2.038005    1.531591    0.589290
      6          7           0       -1.867373    2.863699    0.792181
      7          6           0       -0.984396    0.654731    0.239395
      8          6           0        0.371135    1.185833    0.126848
      9          8           0        0.635376    2.387776    0.256859
     10          6           0        1.477846    0.237972   -0.171025
     11          6           0        1.209038   -1.108248   -0.468410
     12          6           0        2.243202   -1.980342   -0.825879
     13          6           0        3.550859   -1.524717   -0.894733
     14          6           0        3.842751   -0.194462   -0.591270
     15          6           0        2.814022    0.657009   -0.224822
     16          7           0        3.234699    2.034928    0.147398
     17          8           0        3.331979    2.275502    1.338367
     18          8           0        3.543805    2.782527   -0.765574
     19          6           0       -0.178687   -1.646226   -0.388572
     20          8           0       -0.365592   -2.846546   -0.639587
     21          6           0       -1.254150   -0.740066   -0.001201
     22          1           0       -3.855234   -2.838195   -0.028184
     23          1           0       -2.164614   -3.174037   -0.390826
     24          1           0       -4.612220   -0.712770    0.616171
     25          1           0       -4.158800    1.650682    1.004648
     26          1           0       -2.631579    3.420987    1.133553
     27          1           0       -0.929901    3.243068    0.725823
     28          1           0        1.990111   -3.009320   -1.045619
     29          1           0        4.351531   -2.197400   -1.178345
     30          1           0        4.859347    0.177361   -0.630266
 ---------------------------------------------------------------------

 SCF Done:  E(UB3LYP) =  -1004.26691297     A.U. after    1 cycles

 Alpha  occ. eigenvalues --  -19.16297 -19.16266 -19.11992 -19.11981 -14.55533
 Alpha  occ. eigenvalues --  -14.34454 -14.34301 -10.27647 -10.27445 -10.25512
 Alpha  occ. eigenvalues --  -10.25271 -10.25219 -10.22325 -10.21579 -10.21490
 Alpha  occ. eigenvalues --  -10.21218 -10.21148 -10.21020 -10.20480 -10.20429
 Alpha  occ. eigenvalues --  -10.20375  -1.24084  -1.06844  -1.05608  -1.05247
 Alpha  occ. eigenvalues --   -0.95721  -0.94724  -0.90892  -0.86254  -0.82609
 Alpha  occ. eigenvalues --   -0.81497  -0.78374  -0.75368  -0.71836  -0.69437
 Alpha  occ. eigenvalues --   -0.67351  -0.66529  -0.61793  -0.59712  -0.58482
 Alpha  occ. eigenvalues --   -0.57915  -0.55989  -0.54380  -0.53989  -0.52913
 Alpha  occ. eigenvalues --   -0.51993  -0.51476  -0.50609  -0.49396  -0.48498
 Alpha  occ. eigenvalues --   -0.47709  -0.46007  -0.45445  -0.44701  -0.43907
 Alpha  occ. eigenvalues --   -0.42290  -0.41995  -0.41697  -0.41022  -0.39730
 Alpha  occ. eigenvalues --   -0.38939  -0.38247  -0.37352  -0.32212  -0.31810
 Alpha  occ. eigenvalues --   -0.31296  -0.30179  -0.29218  -0.28448  -0.28143
 Alpha  occ. eigenvalues --   -0.27578  -0.27251  -0.20955
 Alpha virt. eigenvalues --   -0.11565  -0.08034  -0.06865  -0.04676  -0.02215
 Alpha virt. eigenvalues --   -0.01723  -0.01061  -0.00534   0.00782   0.01821
 Alpha virt. eigenvalues --    0.02198   0.02473   0.03327   0.03867   0.04298

  Beta  occ. eigenvalues --  -19.16297 -19.16266 -19.11992 -19.11981 -14.55533
  Beta  occ. eigenvalues --  -14.34454 -14.34301 -10.27647 -10.27445 -10.25512
  Beta  occ. eigenvalues --  -10.25271 -10.25219 -10.22325 -10.21579 -10.21490
  Beta  occ. eigenvalues --  -10.21218 -10.21148 -10.21020 -10.20480 -10.20429
  Beta  occ. eigenvalues --  -10.20375  -1.24084  -1.06844  -1.05608  -1.05247
  Beta  occ. eigenvalues --   -0.95721  -0.94724  -0.90892  -0.86254  -0.82609
  Beta  occ. eigenvalues --   -0.81497  -0.78374  -0.75368  -0.71836  -0.69437
  Beta  occ. eigenvalues --   -0.67351  -0.66529  -0.61793  -0.59712  -0.58482
  Beta  occ. eigenvalues --   -0.57915  -0.55989  -0.54380  -0.53989  -0.52913
  Beta  occ. eigenvalues --   -0.51993  -0.51476  -0.50609  -0.49396  -0.48498
  Beta  occ. eigenvalues --   -0.47709  -0.46007  -0.45445  -0.44701  -0.43907
  Beta  occ. eigenvalues --   -0.42290  -0.41995  -0.41697  -0.41022  -0.39730
  Beta  occ. eigenvalues --   -0.38939  -0.38247  -0.37352  -0.32212  -0.31810
  Beta  occ. eigenvalues --   -0.31296  -0.30179  -0.29218  -0.28448  -0.28143
  Beta  occ. eigenvalues --   -0.27578  -0.27251  -0.20955
  Beta virt. eigenvalues --   -0.11565  -0.08034  -0.06865  -0.04676  -0.02215
  Beta virt. eigenvalues --   -0.01723  -0.01061  -0.00534   0.00782   0.01821
  Beta virt. eigenvalues --    0.02198   0.02473   0.03327   0.03867   0.04298

 Mulliken charges and spin densities:
               1          2
     1  N   -0.406990  -0.000000
     2  C    0.033217   0.000000
     3  C   -0.354102  -0.000000
     4  C   -0.236668  -0.000000
     5  C    0.007197  -0.000000
     6  N   -0.405153  -0.000000
     7  C    0.355150   0.000000
     8  C   -0.528837   0.000000
     9  O   -0.231981  -0.000000
    10  C    0.359115   0.000000
    11  C    0.494839  -0.000000
    12  C   -0.246829   0.000000
    13  C   -0.292674   0.000000
    14  C    0.064400   0.000000
    15  C   -0.267779  -0.000000
    16  N   -0.191008   0.000000
    17  O    0.039364   0.000000
    18  O    0.038446   0.000000
    19  C   -0.478684  -0.000000
    20  O   -0.284544   0.000000
    21  C    0.419159   0.000000
    22  H    0.269127   0.000000
    23  H    0.335806  -0.000000
    24  H    0.155866  -0.000000
    25  H    0.158075  -0.000000
    26  H    0.268132   0.000000
    27  H    0.343454   0.000000
    28  H    0.186322  -0.000000
    29  H    0.191843  -0.000000
    30  H    0.205738  -0.000000
 Sum of Mulliken charges =   0.00000   0.00000

 Dipole moment (field-independent basis, Debye):
    X=             -5.5457    Y=             -3.0555    Z=              0.1557  Tot=              6.3336
 Quadrupole moment (field-independent basis, Debye-Ang):
   XX=            -94.0361   YY=           -125.3900   ZZ=           -125.2216
   XY=            -17.9676   XZ=             -9.1559   YZ=              3.3509

  Exact polarizability: 314.825   2.735 238.681 -33.342  28.359 119.907
 Approx polarizability: 511.757   1.769 436.139 -60.649  50.631 219.941

                      1                      2                      3
                      A                      A                      A
 Frequencies --     21.9145                44.5530                73.5474
 Red. masses --     10.5821                 6.3433                10.6958
 Frc consts  --      0.0030                 0.0074                 0.0341
 IR Inten    --      0.3739                15.5709                 0.7079

                      4                      5                      6
                      A                      A                      A
 Frequencies --     98.4300               114.6673               141.8281
 Red. masses --      5.9945                 8.7815                 7.8004
 Frc consts  --      0.0342                 0.0680                 0.0924
 IR Inten    --     31.8340                23.3356                 3.7879

                      7                      8                      9
                      A                      A                      A
 Frequencies --    158.7176               169.2252               198.5558
 Red. masses --      3.4316                 4.7868                 1.5343
 Frc consts  --      0.0509                 0.0808                 0.0356
 IR Inten    --     31.5415                18.8815                33.2324

                     10                     11                     12
                      A                      A                      A
 Frequencies --    219.2304               235.7732               253.2663
 Red. masses --      2.0125                 4.3954                 2.4620
 Frc consts  --      0.0570                 0.1440                 0.0930
 IR Inten    --     53.6642                29.1140               105.6075

                     13                     14                     15
                      A                      A                      A
 Frequencies --    319.2249               329.3266               345.7962
 Red. masses --      5.9439                 5.7047                 3.9653
 Frc consts  --      0.3569                 0.3645                 0.2794
 IR Inten    --      2.4626                 5.4679                 0.0706

                     16                     17                     18
                      A                      A                      A
 Frequencies --    370.5634               380.6664               406.3311
 Red. masses --      7.6527                 6.5194                 7.9739
 Frc consts  --      0.6191                 0.5566                 0.7757
 IR Inten    --      0.4804                 1.1550                 0.1556

                     19                     20                     21
                      A                      A                      A
 Frequencies --    409.6210               429.6733               443.0185
 Red. masses --      5.0530                 5.8793                10.0890
 Frc consts  --      0.4995                 0.6395                 1.1667
 IR Inten    --      4.7544                 0.0481                41.2537

                     22                     23                     24
                      A                      A                      A
 Frequencies --    458.9078               488.1372               491.3700
 Red. masses --      7.2041                 3.8622                 4.3767
 Frc consts  --      0.8939                 0.5422                 0.6226
 IR Inten    --      9.2484                 1.1838                 0.9090

                     25                     26                     27
                      A                      A                      A
 Frequencies --    519.5575               571.6066               599.7221
 Red. masses --      7.2735                 2.9945                 3.5833
 Frc consts  --      1.1568                 0.5765                 0.7593
 IR Inten    --      0.1784                42.4031                11.3141

                     28                     29                     30
                      A                      A                      A
 Frequencies --    609.8583               653.6542               666.7970
 Red. masses --      4.9641                 1.2607                 1.1792
 Frc consts  --      1.0878                 0.3174                 0.3089
 IR Inten    --      3.9092                 6.9286                 9.6592

                     31                     32                     33
                      A                      A                      A
 Frequencies --    687.3398               706.6062               723.7969
 Red. masses --      3.3844                 6.7907                 8.4617
 Frc consts  --      0.9421                 1.9977                 2.6118
 IR Inten    --      9.8964                 4.0767                44.4853

                     34                     35                     36
                      A                      A                      A
 Frequencies --    730.8507               749.7543               778.3172
 Red. masses --      4.0315                 7.5086                 4.3745
 Frc consts  --      1.2688                 2.4868                 1.5613
 IR Inten    --     12.3838                 4.0171                16.2768

                     37                     38                     39
                      A                      A                      A
 Frequencies --    785.6131               795.1451               832.5914
 Red. masses --      7.4321                 4.3314                 1.9457
 Frc consts  --      2.7026                 1.6135                 0.7947
 IR Inten    --      2.5789                 3.9668                39.2067

                     40                     41                     42
                      A                      A                      A
 Frequencies --    835.2169               858.4653               901.9127
 Red. masses --      1.8874                10.3837                 7.0327
 Frc consts  --      0.7757                 4.5087                 3.3705
 IR Inten    --      4.7586                17.6637                12.7828

                     43                     44                     45
                      A                      A                      A
 Frequencies --    946.0563               948.2413               961.7110
 Red. masses --      6.4275                 1.4254                 1.3055
 Frc consts  --      3.3894                 0.7551                 0.7114
 IR Inten    --      0.5591                 0.0928                 0.0089

                     46                     47                     48
                      A                      A                      A
 Frequencies --    978.8047              1011.7890              1026.3533
 Red. masses --      4.2342                 1.3313                 2.0450
 Frc consts  --      2.3901                 0.8030                 1.2692
 IR Inten    --      6.1088                 0.5360                39.3855

                     49                     50                     51
                      A                      A                      A
 Frequencies --   1090.5201              1093.8182              1161.1238
 Red. masses --      2.2296                 1.6131                 2.0414
 Frc consts  --      1.5622                 1.1371                 1.6215
 IR Inten    --     13.6237                12.5809                24.0338

                     52                     53                     54
                      A                      A                      A
 Frequencies --   1172.8723              1191.6482              1203.6903
 Red. masses --      2.2412                 1.8041                 1.2636
 Frc consts  --      1.8165                 1.5094                 1.0787
 IR Inten    --      1.1094                 2.6836               110.6798

                     55                     56                     57
                      A                      A                      A
 Frequencies --   1233.3173              1282.2933              1314.0335
 Red. masses --      2.0676                 5.6043                 4.2939
 Frc consts  --      1.8530                 5.4294                 4.3683
 IR Inten    --      2.9322               692.0235                 6.0758

                     58                     59                     60
                      A                      A                      A
 Frequencies --   1324.6504              1349.0388              1377.4636
 Red. masses --      2.3411                 8.4287                 3.1882
 Frc consts  --      2.4203                 9.0378                 3.5642
 IR Inten    --     39.3331                 1.4323                 0.5780

                     61                     62                     63
                      A                      A                      A
 Frequencies --   1411.9031              1435.9292              1444.7080
 Red. masses --     13.6686                 4.9506                 5.3922
 Frc consts  --     16.0540                 6.0141                 6.6310
 IR Inten    --    132.7345                96.1913                42.1952

                     64                     65                     66
                      A                      A                      A
 Frequencies --   1467.5853              1478.9219              1487.0239
 Red. masses --      2.3861                 3.4453                 2.5215
 Frc consts  --      3.0279                 4.4398                 3.2850
 IR Inten    --     10.5828                 2.0107                 4.0242

                     67                     68                     69
                      A                      A                      A
 Frequencies --   1565.4121              1572.0032              1605.3503
 Red. masses --      2.2990                 5.2871                 1.8052
 Frc consts  --      3.3194                 7.6980                 2.7410
 IR Inten    --     13.6275               115.9234               645.9782

                     70                     71                     72
                      A                      A                      A
 Frequencies --   1605.7723              1608.8125              1626.1525
 Red. masses --      4.7212                12.0977                 4.5561
 Frc consts  --      7.1724                18.4486                 7.0985
 IR Inten    --     15.0514               340.8304                54.8979

                     73                     74                     75
                      A                      A                      A
 Frequencies --   1643.0896              1668.3783              1692.1925
 Red. masses --      2.6660                 6.8697                 8.1171
 Frc consts  --      4.2407                11.2662                13.6946
 IR Inten    --    284.2170               189.3741                17.9467

                     76                     77                     78
                      A                      A                      A
 Frequencies --   3155.9370              3173.0523              3182.1221
 Red. masses --      1.0865                 1.0958                 1.0882
 Frc consts  --      6.3761                 6.5005                 6.4921
 IR Inten    --      7.7798                18.2251                 3.9659

                     79                     80                     81
                      A                      A                      A
 Frequencies --   3198.2072              3210.2894              3494.1321
 Red. masses --      1.0938                 1.0939                 1.0543
 Frc consts  --      6.5916                 6.6420                 7.5837
 IR Inten    --      1.2290                 4.4440                 6.1937

                     82                     83                     84
                      A                      A                      A
 Frequencies --   3496.9889              3696.8529              3699.5417
 Red. masses --      1.0540                 1.0967                 1.0966
 Frc consts  --      7.5939                 8.8306                 8.8432
 IR Inten    --    106.3939                71.1701                88.5540

 - Thermochemistry -
 -------------------
 Temperature   298.150 Kelvin.  Pressure   1.00000 Atm.
 Atom     1 has atomic number  7 and mass  14.00307

 Molecular mass:   283.05931 amu.
 Principal axes and moments of inertia in atomic units:
                           1         2         3
     Eigenvalues --  3435.764276735.486989896.82134
           X            0.95702  -0.25763   0.13321
           Y            0.28238   0.93247  -0.22528
           Z           -0.06618   0.25321   0.96514
 This molecule is an asymmetric top.
 Rotational symmetry number  1.
 Warning -- assumption of classical behavior for rotation
           may cause significant error
 Rotational temperatures (Kelvin)      0.02521     0.01286     0.00875
 Rotational constants (GHZ):           0.52528     0.26795     0.18236
 Zero-point vibrational energy     561628.4 (Joules/Mol)
                                  134.23241 (Kcal/Mol)
 Warning -- explicit consideration of  28 degrees of freedom as
           vibrations may cause significant error
 Vibrational temperatures:     31.53    64.10   105.82   141.62   164.98
          (Kelvin)            204.06   228.36   243.48   285.68   315.42
                              339.22   364.39   459.29   473.83   497.52
                              533.16   547.69   584.62   589.35   618.20
                              637.40   660.27   702.32   706.97   747.53
                              822.41   862.87   877.45   940.46   959.37
                              988.93  1016.65  1041.38  1051.53  1078.73
                             1119.82  1130.32  1144.04  1197.91  1201.69
                             1235.14  1297.65  1361.16  1364.31  1383.69
                             1408.28  1455.74  1476.69  1569.02  1573.76
                             1670.60  1687.50  1714.52  1731.84  1774.47
                             1844.93  1890.60  1905.88  1940.97  1981.86
                             2031.41  2065.98  2078.61  2111.53  2127.84
                             2139.50  2252.28  2261.76  2309.74  2310.35
                             2314.72  2339.67  2364.04  2400.42  2434.69
                             4540.69  4565.31  4578.36  4601.51  4618.89
                             5027.28  5031.39  5318.95  5322.82

 Zero-point correction=                           0.213913 (Hartree/Particle)
 Thermal correction to Energy=                    0.230869
 Thermal correction to Enthalpy=                  0.231813
 Thermal correction to Gibbs Free Energy=         0.168846
 Sum of electronic and zero-point Energies=          -1004.053000
 Sum of electronic and thermal Energies=             -1004.036044
 Sum of electronic and thermal Enthalpies=           -1004.035100
 Sum of electronic and thermal Free Energies=        -1004.098067

                     E (Thermal)             CV                S
                      KCal/Mol        Cal/Mol-Kelvin    Cal/Mol-Kelvin
 Total                  144.873             66.195            132.527
 Electronic               0.000              0.000              0.000
 Translational            0.889              2.981             42.819
 Rotational               0.889              2.981             33.793
 Vibrational            143.095             60.233             55.915
 Vibration     1          0.593              1.985              6.453
 Vibration     2          0.595              1.980              5.046
 Vibration     3          0.599              1.966              4.056
 Vibration     4          0.604              1.950              3.485
 Vibration     5          0.608              1.937              3.188
 Vibration     6          0.615              1.911              2.779
 Vibration     7          0.621              1.893              2.565
 Vibration     8          0.625              1.880              2.444
 Vibration     9          0.637              1.842              2.146
 Vibration    10          0.647              1.812              1.965
 Vibration    11          0.655              1.786              1.835
 Vibration    12          0.664              1.757              1.708
 Vibration    13          0.705              1.637              1.314
 Vibration    14          0.712              1.617              1.263
 Vibration    15          0.724              1.584              1.185
 Vibration    16          0.743              1.533              1.077
 Vibration    17          0.750              1.511              1.037
 Vibration    18          0.771              1.456              0.940
 Vibration    19          0.774              1.449              0.928
 Vibration    20          0.791              1.406              0.860
 Vibration    21          0.803              1.376              0.817
 Vibration    22          0.817              1.341              0.769
 Vibration    23          0.844              1.276              0.688
 Vibration    24          0.847              1.269              0.680
 Vibration    25          0.875              1.207              0.611
 Vibration    26          0.928              1.093              0.501
 Vibration    27          0.958              1.032              0.450
 Vibration    28          0.969              1.011              0.433

 Optimization completed.
    -- Stationary point found.
 Normal termination of Gaussian 16 at Wed Dec 27 21:31:54 2023.
