 Q-Chem 5.4, Q-Chem, Inc., Pleasanton, CA (2021)
 Q-Chem 5.4.0 for Intel X86 EM64T Linux

User input:
--------------------------------------------------------------
$molecule
0 1
Cl                 2.3036300000     -2.0604200000      0.0548880000
C                  1.0518560000     -0.8772180000      0.0239180000
C                  1.2928540000      0.4520720000      0.0020060000
Cl                 2.8808390000      1.1207340000      0.0024780000
C                  0.1648900000      1.4446470000     -0.0245980000
O                  0.3670920000      2.6401820000     -0.0444800000
C                 -1.2139150000      0.8985850000     -0.0255640000
C                 -1.4523420000     -0.4150840000     -0.0038960000
C                 -0.3535300000     -1.4104280000      0.0224910000
O                 -0.5842350000     -2.6007630000      0.0419890000
H                 -2.0044010000      1.6398340000     -0.0450010000
H                 -2.4527400000     -0.8321410000     -0.0042310000
$end
$rem
MAX_SCF_CYCLES=200
BASIS  =  6-311++G(d,p)
GUI  =  2
JOB_TYPE  =  SP
METHOD  =  B3LYP
SOLVENT_METHOD = PCM
$end
$pcm
theory = CPCM
$end
$solvent
dielectric 37.219
opticaldielectric 1.43
$end

--------------------------------------------------------------

             Standard Nuclear Orientation (Angstroms)
    I     Atom           X                Y                Z
 ----------------------------------------------------------------
    1      Cl      2.3036300000    -2.0604200000     0.0548880000
    2      C       1.0518560000    -0.8772180000     0.0239180000
    3      C       1.2928540000     0.4520720000     0.0020060000
    4      Cl      2.8808390000     1.1207340000     0.0024780000
    5      C       0.1648900000     1.4446470000    -0.0245980000
    6      O       0.3670920000     2.6401820000    -0.0444800000
    7      C      -1.2139150000     0.8985850000    -0.0255640000
    8      C      -1.4523420000    -0.4150840000    -0.0038960000
    9      C      -0.3535300000    -1.4104280000     0.0224910000
   10      O      -0.5842350000    -2.6007630000     0.0419890000
   11      H      -2.0044010000     1.6398340000    -0.0450010000
   12      H      -2.4527400000    -0.8321410000    -0.0042310000
 ----------------------------------------------------------------

    8   -1300.8090498500      7.20e-06  Convergence criterion met
 Total energy in the final basis set =    -1300.8090498500

                    Orbital Energies (a.u.)
 --------------------------------------------------------------

 Alpha MOs
 -- Occupied --
********-101.5866 -19.1595 -19.1595 -10.3095 -10.3095 -10.2849 -10.2842
-10.2235 -10.2226  -9.5011  -9.5011  -7.2661  -7.2659  -7.2563  -7.2563
 -7.2550  -7.2549  -1.0951  -1.0932  -0.9399  -0.8867  -0.8594  -0.7760
 -0.7212  -0.6422  -0.6263  -0.5530  -0.5255  -0.5024  -0.4801  -0.4788
 -0.4704  -0.4565  -0.4423  -0.4313  -0.4027  -0.3652  -0.3562  -0.3353
 -0.3239  -0.3113  -0.3025  -0.2866

          Ground-State Mulliken Net Atomic Charges

     Atom                 Charge (a.u.)
  ----------------------------------------
      1 Cl                    0.395874
      2 C                     0.451588
      3 C                     0.452336
      4 Cl                    0.395711
      5 C                    -0.961056
      6 O                    -0.242088
      7 C                     0.079799
      8 C                     0.081180
      9 C                    -0.960473
     10 O                    -0.241412
     11 H                     0.274292
     12 H                     0.274249
  ----------------------------------------
  Sum of atomic charges =     0.000000

                    Cartesian Multipole Moments
 -----------------------------------------------------------------
    Charge (ESU x 10^10)
                 0.0000
    Dipole Moment (Debye)
         X      -2.4316      Y       0.4346      Z      -0.0265
       Tot       2.4703
    Quadrupole Moments (Debye-Ang)
        XX     -64.6238     XY      -4.6150     YY     -89.1927
        XZ       0.1165     YZ       0.3254     ZZ     -69.0311

 Total job time:  43.05s(wall), 62.20s(cpu)
        *  Thank you very much for using Q-Chem.  Have a nice day.  *
