 Q-Chem 5.4, Q-Chem, Inc., Pleasanton, CA (2021)
 Q-Chem 5.4.0 for Intel X86 EM64T Linux

User input:
--------------------------------------------------------------
$molecule
0 1
C                 -2.2574540000      3.2351400000      4.1119890000
C                 -3.4949630000      2.6700290000      4.3809410000
C                 -3.9238420000      1.5438580000      3.6871750000
C                 -3.1131730000      0.9602760000      2.7041360000
C                 -1.8401770000      1.5260640000      2.4140790000
C                 -1.4360990000      2.6681740000      3.1364150000
C                 -0.1129070000      3.3332080000      2.9001670000
C                 -0.9353100000      0.9518460000      1.3812390000
C                  0.7816810000      2.7772350000      1.8892660000
C                  0.3898460000      1.6311390000      1.1558120000
C                  2.0533550000      3.3727560000      1.6254350000
C                  2.8763830000      2.7893350000      0.6346970000
C                  2.4657490000      1.6721660000     -0.0629940000
C                  1.2218700000      1.0841930000      0.1903830000
O                  0.1795110000      4.3315080000      3.5686230000
O                 -1.2208760000     -0.0322270000      0.7203820000
N                  2.4858590000      4.4724840000      2.2948570000
O                 -3.4942790000     -0.1308370000      2.0114900000
C                 -4.7608300000     -0.7237430000      2.2733820000
H                 -1.9053310000      4.1105600000      4.6400330000
H                 -4.1389000000      3.1047210000      5.1373800000
H                 -4.8921060000      1.1203850000      3.9134310000
H                  3.8434140000      3.2376980000      0.4304300000
H                  3.1182860000      1.2463470000     -0.8174040000
H                  0.8891220000      0.2085080000     -0.3498370000
H                  1.8834030000      4.8762970000      3.0007760000
H                  3.3859500000      4.8683670000      2.0864490000
H                 -4.8256830000     -1.5719360000      1.5946620000
H                 -5.5802270000     -0.0279000000      2.0650510000
H                 -4.8315730000     -1.0788210000      3.3067950000
$end
$rem
MAX_SCF_CYCLES=200
BASIS  =  6-311++G(d,p)
GUI  =  2
JOB_TYPE  =  SP
METHOD  =  B3LYP
SOLVENT_METHOD = PCM
$end
$pcm
theory = CPCM
$end
$solvent
dielectric 37.219
opticaldielectric 1.43
$end

--------------------------------------------------------------

             Standard Nuclear Orientation (Angstroms)
    I     Atom           X                Y                Z
 ----------------------------------------------------------------
    1      C      -2.2574540000     3.2351400000     4.1119890000
    2      C      -3.4949630000     2.6700290000     4.3809410000
    3      C      -3.9238420000     1.5438580000     3.6871750000
    4      C      -3.1131730000     0.9602760000     2.7041360000
    5      C      -1.8401770000     1.5260640000     2.4140790000
    6      C      -1.4360990000     2.6681740000     3.1364150000
    7      C      -0.1129070000     3.3332080000     2.9001670000
    8      C      -0.9353100000     0.9518460000     1.3812390000
    9      C       0.7816810000     2.7772350000     1.8892660000
   10      C       0.3898460000     1.6311390000     1.1558120000
   11      C       2.0533550000     3.3727560000     1.6254350000
   12      C       2.8763830000     2.7893350000     0.6346970000
   13      C       2.4657490000     1.6721660000    -0.0629940000
   14      C       1.2218700000     1.0841930000     0.1903830000
   15      O       0.1795110000     4.3315080000     3.5686230000
   16      O      -1.2208760000    -0.0322270000     0.7203820000
   17      N       2.4858590000     4.4724840000     2.2948570000
   18      O      -3.4942790000    -0.1308370000     2.0114900000
   19      C      -4.7608300000    -0.7237430000     2.2733820000
   20      H      -1.9053310000     4.1105600000     4.6400330000
   21      H      -4.1389000000     3.1047210000     5.1373800000
   22      H      -4.8921060000     1.1203850000     3.9134310000
   23      H       3.8434140000     3.2376980000     0.4304300000
   24      H       3.1182860000     1.2463470000    -0.8174040000
   25      H       0.8891220000     0.2085080000    -0.3498370000
   26      H       1.8834030000     4.8762970000     3.0007760000
   27      H       3.3859500000     4.8683670000     2.0864490000
   28      H      -4.8256830000    -1.5719360000     1.5946620000
   29      H      -5.5802270000    -0.0279000000     2.0650510000
   30      H      -4.8315730000    -1.0788210000     3.3067950000
 ----------------------------------------------------------------

    9    -858.9051968091      2.31e-06  Convergence criterion met
 Total energy in the final basis set =     -858.9051968091

                    Orbital Energies (a.u.)
 --------------------------------------------------------------

 Alpha MOs
 -- Occupied --
-19.1688 -19.1217 -19.1186 -14.3302 -10.2765 -10.2748 -10.2627 -10.2441
-10.2226 -10.2058 -10.2044 -10.2012 -10.1961 -10.1954 -10.1925 -10.1901
-10.1863 -10.1845 -10.1805  -1.0896  -1.0567  -1.0549  -0.9403  -0.8834
 -0.8625  -0.8063  -0.7795  -0.7670  -0.7525  -0.7136  -0.6831  -0.6567
 -0.6476  -0.6054  -0.5817  -0.5718  -0.5564  -0.5303  -0.5131  -0.5085
 -0.4915  -0.4880  -0.4812  -0.4701  -0.4681  -0.4512  -0.4492  -0.4478
 -0.4301  -0.4208  -0.4150  -0.3999  -0.3960  -0.3871  -0.3807  -0.3777
 -0.3691  -0.3494  -0.3392  -0.3297  -0.2859  -0.2794  -0.2728  -0.2625
 -0.2453  -0.2233

          Ground-State Mulliken Net Atomic Charges

     Atom                 Charge (a.u.)
  ----------------------------------------
      1 C                    -0.176162
      2 C                    -0.422109
      3 C                    -0.176494
      4 C                     0.055475
      5 C                     0.206751
      6 C                     0.262767
      7 C                    -0.477025
      8 C                    -0.557224
      9 C                     0.107694
     10 C                     0.639681
     11 C                     0.326430
     12 C                    -0.220384
     13 C                    -0.462257
     14 C                    -0.020681
     15 O                    -0.339327
     16 O                    -0.313473
     17 N                    -0.483680
     18 O                    -0.148597
     19 C                    -0.309896
     20 H                     0.184768
     21 H                     0.234506
     22 H                     0.225871
     23 H                     0.206015
     24 H                     0.225561
     25 H                     0.184423
     26 H                     0.348191
     27 H                     0.336545
     28 H                     0.209506
     29 H                     0.176629
     30 H                     0.176496
  ----------------------------------------
  Sum of atomic charges =     0.000000

                    Cartesian Multipole Moments
 -----------------------------------------------------------------
    Charge (ESU x 10^10)
                -0.0000
    Dipole Moment (Debye)
         X      -0.3124      Y       1.3851      Z       1.3588
       Tot       1.9653
    Quadrupole Moments (Debye-Ang)
        XX     -64.5844     XY      13.0734     YY    -105.1298
        XZ     -18.5581     YZ      -0.6833     ZZ    -102.9999

 Total job time:  74.19s(wall), 438.51s(cpu)
        *  Thank you very much for using Q-Chem.  Have a nice day.  *
