 Q-Chem 5.4, Q-Chem, Inc., Pleasanton, CA (2021)
 Q-Chem 5.4.0 for Intel X86 EM64T Linux

User input:
--------------------------------------------------------------
$molecule
0 1
C                  2.2801830000     -0.0691360000      0.0788370000
C                  0.7898110000      0.0770140000      0.0334840000
C                  0.1498720000      1.2574710000      0.0831850000
C                 -1.3225570000      1.3666660000      0.0360270000
O                 -1.8852850000      2.4488480000      0.0819850000
C                 -2.1075370000      0.1120000000     -0.0697150000
C                 -1.4934500000     -1.0765830000     -0.1205570000
Br                -2.4670240000     -2.7001590000     -0.2551880000
C                  0.0030810000     -1.1976780000     -0.0743320000
O                  0.5626410000     -2.2725600000     -0.1213110000
H                  2.5803900000     -0.6884810000      0.9283430000
H                  2.7641170000      0.9047350000      0.1573560000
H                  2.6441330000     -0.5793100000     -0.8170800000
H                  0.6861300000      2.1973010000      0.1610130000
H                 -3.1845020000      0.2198720000     -0.1020470000
$end

$rem
BASIS  =  6-311++G(d,p)
GUI  =  2
JOB_TYPE  =  SP
METHOD  =  B3LYP
SCF_CONVERGENCE  = 8
SOLVENT_METHOD = sm12
$end

$smx
solvent dimethylformamide
charges CM5
$end

--------------------------------------------------------------

             Standard Nuclear Orientation (Angstroms)
    I     Atom           X                Y                Z
 ----------------------------------------------------------------
    1      C       2.2801830000    -0.0691360000     0.0788370000
    2      C       0.7898110000     0.0770140000     0.0334840000
    3      C       0.1498720000     1.2574710000     0.0831850000
    4      C      -1.3225570000     1.3666660000     0.0360270000
    5      O      -1.8852850000     2.4488480000     0.0819850000
    6      C      -2.1075370000     0.1120000000    -0.0697150000
    7      C      -1.4934500000    -1.0765830000    -0.1205570000
    8      Br     -2.4670240000    -2.7001590000    -0.2551880000
    9      C       0.0030810000    -1.1976780000    -0.0743320000
   10      O       0.5626410000    -2.2725600000    -0.1213110000
   11      H       2.5803900000    -0.6884810000     0.9283430000
   12      H       2.7641170000     0.9047350000     0.1573560000
   13      H       2.6441330000    -0.5793100000    -0.8170800000
   14      H       0.6861300000     2.1973010000     0.1610130000
   15      H      -3.1845020000     0.2198720000    -0.1020470000
 ----------------------------------------------------------------

   16   -2994.4310635969      3.24e-09  Convergence criterion met
 Total energy in the final basis set =    -2994.4459537514

                    Orbital Energies (a.u.)
 --------------------------------------------------------------

 Alpha MOs
 -- Occupied --
******** -62.5021 -56.3226 -56.3188 -56.3184 -19.1515 -19.1427 -10.2997
-10.2901 -10.2688 -10.2270 -10.2213 -10.2083 -10.1772  -8.7109  -6.5427
 -6.5296  -6.5284  -2.6536  -2.6501  -2.6491  -2.6387  -2.6387  -1.0858
 -1.0728  -0.8854  -0.8409  -0.7827  -0.7291  -0.6997  -0.6202  -0.6031
 -0.5406  -0.5132  -0.4757  -0.4689  -0.4555  -0.4487  -0.4310  -0.4306
 -0.4147  -0.4074  -0.3930  -0.3564  -0.3090  -0.3041  -0.2989  -0.2846
 -0.2819

          Ground-State Mulliken Net Atomic Charges

     Atom                 Charge (a.u.)
  ----------------------------------------
      1 C                     0.146876
      2 C                     1.848499
      3 C                    -0.445952
      4 C                    -0.753187
      5 O                    -0.327936
      6 C                     0.200554
      7 C                     0.793656
      8 Br                   -0.187150
      9 C                    -2.267934
     10 O                    -0.205888
     11 H                     0.191204
     12 H                     0.237361
     13 H                     0.191169
     14 H                     0.271581
     15 H                     0.307147
  ----------------------------------------
  Sum of atomic charges =     0.000000

                    Cartesian Multipole Moments
 -----------------------------------------------------------------
    Charge (ESU x 10^10)
                 0.0000
    Dipole Moment (Debye)
         X       1.9773      Y       0.4954      Z       0.1057
       Tot       2.0411
    Quadrupole Moments (Debye-Ang)
        XX     -67.0794     XY       8.5477     YY     -84.1463
        XZ       0.6224     YZ      -0.5854     ZZ     -69.6975

 Total job time:  157.31s(wall), 1018.56s(cpu)
        *  Thank you very much for using Q-Chem.  Have a nice day.  *
