 Q-Chem 5.4, Q-Chem, Inc., Pleasanton, CA (2021)
 Q-Chem 5.4.0 for Intel X86 EM64T Linux

User input:
--------------------------------------------------------------
$molecule
-1 2
O                 -2.7379070000      2.5093970000     -0.4540640000
C                 -2.6604000000      1.1802000000     -0.2206510000
C                 -3.8349910000      0.4503250000     -0.0988750000
C                 -3.7833140000     -0.9313060000      0.1435360000
C                 -2.5695940000     -1.5848170000      0.2644710000
C                 -1.3631960000     -0.8717880000      0.1458620000
C                 -0.0904020000     -1.6099090000      0.2819490000
O                 -0.1055760000     -2.8361240000      0.4966770000
C                  1.1496270000     -0.8287620000      0.1513730000
C                  2.4290540000     -1.4327790000      0.2638970000
O                  2.5397930000     -2.7832160000      0.5013000000
C                  3.5830800000     -0.6708850000      0.1362170000
C                  3.5283070000      0.7065770000     -0.1056460000
C                  2.3046390000      1.3423970000     -0.2234610000
O                  2.2912790000      2.6762790000     -0.4575600000
C                  1.0933320000      0.5898070000     -0.0976630000
C                 -0.1687310000      1.2739680000     -0.2240830000
O                 -0.2110580000      2.5597610000     -0.4497380000
C                 -1.3919970000      0.5268380000     -0.0994620000
H                 -1.7897700000      2.8239650000     -0.5042480000
H                 -4.7798500000      0.9735020000     -0.1955280000
H                 -4.7108580000     -1.4886040000      0.2363200000
H                 -2.5093550000     -2.6492850000      0.4513030000
H                  3.4806090000     -2.9851710000      0.5414970000
H                  4.5509010000     -1.1600810000      0.2269690000
H                  4.4336280000      1.2942460000     -0.2040830000
H                  1.3227500000      2.9254630000     -0.5063100000
$end
$rem
MAX_SCF_CYCLES=200
BASIS  =  6-311++G(d,p)
GUI  =  2
JOB_TYPE  =  SP
METHOD  =  B3LYP
SOLVENT_METHOD = COSMO
$end
$solvent
dielectric 37.219
opticaldielectric 1.43
$end

--------------------------------------------------------------

             Standard Nuclear Orientation (Angstroms)
    I     Atom           X                Y                Z
 ----------------------------------------------------------------
    1      O       3.1097297397    -2.0641014925     0.0000852949
    2      C       2.8306698087    -0.7414605051     0.0000430708
    3      C       3.8809971827     0.1662967993    -0.0000612174
    4      C       3.6194956886     1.5454105666    -0.0001640707
    5      C       2.3198056663     2.0204094956    -0.0001061480
    6      C       1.2354595446     1.1248269761     0.0000458073
    7      C      -0.1355301718     1.6759476902     0.0001142216
    8      O      -0.3072566191     2.9090136181    -0.0000739278
    9      C      -1.2427521332     0.7069419242     0.0000712050
   10      C      -2.5998758482     1.1224498751     0.0000565427
   11      O      -2.9150341600     2.4614713975     0.0001064979
   12      C      -3.6249861179     0.1855883125    -0.0000197483
   13      C      -3.3610529272    -1.1889074571    -0.0000813011
   14      C      -2.0542222578    -1.6446534635    -0.0000705328
   15      O      -1.8378734661    -2.9815959449    -0.0002225083
   16      C      -0.9710551745    -0.7085815924     0.0000513789
   17      C       0.3811013101    -1.2071135786     0.0001310177
   18      O       0.6187652774    -2.4914387833     0.0001391365
   19      C       1.4769302083    -0.2747658098     0.0000976346
   20      H       2.2200832635    -2.5212277068     0.0001389220
   21      H       4.8949791666    -0.2179622819    -0.0000837787
   22      H       4.4518164655     2.2430995473    -0.0002824105
   23      H       2.0981380864     3.0798860299    -0.0002225965
   24      H      -3.8760967647     2.5238815610     0.0000170076
   25      H      -4.6564969053     0.5323038068    -0.0000582747
   26      H      -4.1667671771    -1.9138042420    -0.0001724533
   27      H      -0.8422109825    -3.0873024708    -0.0002595233
 ----------------------------------------------------------------

   11    -914.7822152068      6.09e-06  Convergence criterion met
 Total energy in the final basis set =     -914.7822152068
    5    -914.8674691380      4.22e-06  Convergence criterion met
 Total energy in the final basis set =     -914.8674691380

                    Orbital Energies (a.u.)
 --------------------------------------------------------------

 Alpha MOs
 -- Occupied --
-19.1507 -19.1385 -19.1347 -19.1046 -19.0813 -10.2418 -10.2399 -10.2381
-10.2377 -10.2354 -10.1863 -10.1851 -10.1820 -10.1792 -10.1763 -10.1763
-10.1717 -10.1679 -10.1650  -1.0651  -1.0626  -1.0550  -1.0140  -1.0095
 -0.8653  -0.8490  -0.7933  -0.7515  -0.7493  -0.7380  -0.6785  -0.6497
 -0.6423  -0.5956  -0.5905  -0.5620  -0.5407  -0.5298  -0.5130  -0.4922
 -0.4792  -0.4730  -0.4524  -0.4467  -0.4431  -0.4308  -0.4263  -0.4192
 -0.4167  -0.4065  -0.3979  -0.3891  -0.3873  -0.3755  -0.3734  -0.3649
 -0.3596  -0.3499  -0.3348  -0.3150  -0.2783  -0.2703  -0.2563  -0.2416
 -0.2366  -0.2195  -0.1478

 Beta MOs
 -- Occupied --
-19.1505 -19.1382 -19.1341 -19.1003 -19.0766 -10.2394 -10.2386 -10.2380
-10.2367 -10.2348 -10.1865 -10.1843 -10.1823 -10.1780 -10.1755 -10.1750
-10.1709 -10.1675 -10.1650  -1.0631  -1.0619  -1.0539  -1.0060  -1.0024
 -0.8627  -0.8475  -0.7894  -0.7495  -0.7463  -0.7363  -0.6719  -0.6475
 -0.6403  -0.5943  -0.5887  -0.5607  -0.5387  -0.5285  -0.5117  -0.4900
 -0.4774  -0.4716  -0.4514  -0.4419  -0.4382  -0.4280  -0.4247  -0.4154
 -0.4134  -0.3991  -0.3967  -0.3883  -0.3770  -0.3725  -0.3640  -0.3589
 -0.3583  -0.3486  -0.3276  -0.3082  -0.2671  -0.2622  -0.2518  -0.2372
 -0.2274  -0.2112

          Ground-State Mulliken Net Atomic Charges

     Atom                 Charge (a.u.)    Spin (a.u.)
  --------------------------------------------------------
      1 O                    -0.422506       0.010389
      2 C                     0.004724       0.051646
      3 C                    -0.291949       0.025353
      4 C                    -0.388258       0.063080
      5 C                    -0.203680       0.024111
      6 C                     0.293799       0.074236
      7 C                    -0.287410       0.054962
      8 O                    -0.464641       0.176171
      9 C                     0.164453       0.040874
     10 C                    -0.294520       0.020855
     11 O                    -0.274882       0.006741
     12 C                    -0.195691       0.093614
     13 C                    -0.159830       0.045530
     14 C                    -0.262906       0.065465
     15 O                    -0.437473       0.017033
     16 C                     0.590603      -0.042293
     17 C                    -0.352826       0.190833
     18 O                    -0.598910       0.148168
     19 C                     0.430722      -0.040516
     20 H                     0.413242      -0.002200
     21 H                     0.206110      -0.002793
     22 H                     0.213092      -0.004547
     23 H                     0.171498      -0.001224
     24 H                     0.314593      -0.000611
     25 H                     0.200032      -0.007924
     26 H                     0.217143      -0.004463
     27 H                     0.415472      -0.002490
  --------------------------------------------------------
  Sum of atomic charges =    -1.000000

                    Cartesian Multipole Moments
 -----------------------------------------------------------------
    Charge (ESU x 10^10)
                -4.8032
    Dipole Moment (Debye)
         X      -3.1240      Y       0.3763      Z       0.0004
       Tot       3.1466
    Quadrupole Moments (Debye-Ang)
        XX    -105.7397     XY       2.4504     YY    -152.2764
        XZ       0.0011     YZ       0.0003     ZZ    -115.5110

 Total job time:  111.96s(wall), 783.00s(cpu)
        *  Thank you very much for using Q-Chem.  Have a nice day.  *
