 Q-Chem 5.4, Q-Chem, Inc., Pleasanton, CA (2021)
 Q-Chem 5.4.0 for Intel X86 EM64T Linux

User input:
--------------------------------------------------------------
$molecule
0 1
C                 -1.8256780000      0.3069460000     -1.0900260000
C                 -1.1979400000      0.1390470000      0.3168200000
C                 -1.8963980000     -1.0454030000      1.0110560000
C                 -1.4520710000      1.4093740000      1.1671580000
C                  0.3097660000     -0.1076000000      0.1876470000
C                  0.9164700000     -1.2215860000      0.6312060000
C                  2.3643420000     -1.4926850000      0.5235930000
O                  2.8337390000     -2.5282730000      0.9513190000
C                  3.2154930000     -0.4459040000     -0.1283950000
C                  2.6504350000      0.6870040000     -0.5876680000
Br                 3.6295710000      2.0700980000     -1.4242180000
C                  1.1663820000      0.9441390000     -0.4675880000
O                  0.7008340000      1.9787300000     -0.8955310000
Br                 5.0572870000     -0.8395210000     -0.2413300000
H                 -2.9068480000      0.4356900000     -0.9880120000
H                 -1.6523900000     -0.5823630000     -1.7031210000
H                 -1.4260310000      1.1748310000     -1.6116780000
H                 -1.7845120000     -1.9766430000      0.4488840000
H                 -2.9655540000     -0.8337080000      1.0844380000
H                 -1.5235370000     -1.2056970000      2.0264580000
H                 -1.0124250000      1.3060960000      2.1635660000
H                 -2.5295740000      1.5489520000      1.2913550000
H                 -1.0441520000      2.3017100000      0.6955740000
H                  0.3727920000     -2.0232340000      1.1128030000
$end

$rem
BASIS  =  6-311++G(d,p)
GUI  =  2
JOB_TYPE  =  SP
METHOD  =  B3LYP
SCF_CONVERGENCE  = 8
SOLVENT_METHOD = sm12
$end

$smx
solvent dimethylformamide
charges CM5
$end

--------------------------------------------------------------

             Standard Nuclear Orientation (Angstroms)
    I     Atom           X                Y                Z
 ----------------------------------------------------------------
    1      C      -1.8256780000     0.3069460000    -1.0900260000
    2      C      -1.1979400000     0.1390470000     0.3168200000
    3      C      -1.8963980000    -1.0454030000     1.0110560000
    4      C      -1.4520710000     1.4093740000     1.1671580000
    5      C       0.3097660000    -0.1076000000     0.1876470000
    6      C       0.9164700000    -1.2215860000     0.6312060000
    7      C       2.3643420000    -1.4926850000     0.5235930000
    8      O       2.8337390000    -2.5282730000     0.9513190000
    9      C       3.2154930000    -0.4459040000    -0.1283950000
   10      C       2.6504350000     0.6870040000    -0.5876680000
   11      Br      3.6295710000     2.0700980000    -1.4242180000
   12      C       1.1663820000     0.9441390000    -0.4675880000
   13      O       0.7008340000     1.9787300000    -0.8955310000
   14      Br      5.0572870000    -0.8395210000    -0.2413300000
   15      H      -2.9068480000     0.4356900000    -0.9880120000
   16      H      -1.6523900000    -0.5823630000    -1.7031210000
   17      H      -1.4260310000     1.1748310000    -1.6116780000
   18      H      -1.7845120000    -1.9766430000     0.4488840000
   19      H      -2.9655540000    -0.8337080000     1.0844380000
   20      H      -1.5235370000    -1.2056970000     2.0264580000
   21      H      -1.0124250000     1.3060960000     2.1635660000
   22      H      -2.5295740000     1.5489520000     1.2913550000
   23      H      -1.0441520000     2.3017100000     0.6955740000
   24      H       0.3727920000    -2.0232340000     1.1128030000
 ----------------------------------------------------------------

   15   -5685.9317078621      7.22e-09  Convergence criterion met
 Total energy in the final basis set =    -5685.9451923743

                    Orbital Energies (a.u.)
 --------------------------------------------------------------

 Alpha MOs
 -- Occupied --
********-482.8548 -62.5085 -62.5076 -56.3291 -56.3282 -56.3252 -56.3246
-56.3243 -56.3237 -19.1541 -19.1507 -10.3072 -10.3019 -10.2767 -10.2751
-10.2303 -10.2145 -10.2093 -10.1640 -10.1637 -10.1637  -8.7173  -8.7164
 -6.5493  -6.5485  -6.5362  -6.5353  -6.5345  -6.5336  -2.6602  -2.6594
 -2.6567  -2.6557  -2.6555  -2.6546  -2.6449  -2.6449  -2.6440  -2.6439
 -1.0912  -1.0847  -0.9028  -0.8626  -0.8241  -0.8099  -0.7555  -0.7141
 -0.6939  -0.6928  -0.6379  -0.6192  -0.5613  -0.5475  -0.5070  -0.4849
 -0.4746  -0.4722  -0.4529  -0.4488  -0.4474  -0.4392  -0.4339  -0.4129
 -0.3967  -0.3861  -0.3780  -0.3698  -0.3662  -0.3479  -0.3437  -0.3276
 -0.3252  -0.3086  -0.3019  -0.3000  -0.2857  -0.2767

          Ground-State Mulliken Net Atomic Charges

     Atom                 Charge (a.u.)
  ----------------------------------------
      1 C                    -0.685170
      2 C                     0.563804
      3 C                     0.007100
      4 C                    -0.684829
      5 C                     1.805123
      6 C                    -0.016708
      7 C                    -1.357565
      8 O                    -0.230460
      9 C                     0.714782
     10 C                    -0.460451
     11 Br                   -0.137180
     12 C                    -1.015230
     13 O                    -0.148974
     14 Br                   -0.132479
     15 H                     0.194985
     16 H                     0.141575
     17 H                     0.119657
     18 H                     0.160963
     19 H                     0.207172
     20 H                     0.160936
     21 H                     0.141607
     22 H                     0.195006
     23 H                     0.119649
     24 H                     0.336687
  ----------------------------------------
  Sum of atomic charges =     0.000000

                    Cartesian Multipole Moments
 -----------------------------------------------------------------
    Charge (ESU x 10^10)
                 0.0000
    Dipole Moment (Debye)
         X      -3.0273      Y       0.0346      Z       0.4836
       Tot       3.0659
    Quadrupole Moments (Debye-Ang)
        XX    -110.8984     XY       6.9812     YY    -118.4972
        XZ      -3.3811     YZ       4.2985     ZZ    -108.7885

 Total job time:  457.11s(wall), 3388.95s(cpu)
        *  Thank you very much for using Q-Chem.  Have a nice day.  *
