 Gaussian 16, Revision A.03,
 Gaussian 16:  ES64L-G16RevA.03 25-Dec-2016

 --------------------------------------
 #P UB3LYP/6-311++G(d,p) nosym opt freq
 --------------------------------------

 --------
 Oxidized
 --------
 Symbolic Z-matrix:
 Charge =  0 Multiplicity = 1

 SCF Done:  E(UB3LYP) =  -5685.93580108     A.U. after   15 cycles
 Optimization completed.
    -- Stationary point found.
 Normal termination of Gaussian 16 at Sat Jan  6 05:41:34 2024.

 ----------------------------------------------------------------------
 #P Geom=AllCheck Guess=TCheck SCRF=Check GenChk UB3LYP/6-311++G(d,p) F
 req
 ----------------------------------------------------------------------

 Structure from the checkpoint file:  "015.chk"
 --------
 Oxidized
 --------
 Charge =  0 Multiplicity = 1

                          Input orientation:
 ---------------------------------------------------------------------
 Center     Atomic      Atomic             Coordinates (Angstroms)
 Number     Number       Type             X           Y           Z
 ---------------------------------------------------------------------
      1          6           0       -1.825678    0.306946   -1.090026
      2          6           0       -1.197940    0.139047    0.316820
      3          6           0       -1.896398   -1.045403    1.011056
      4          6           0       -1.452071    1.409374    1.167158
      5          6           0        0.309766   -0.107600    0.187647
      6          6           0        0.916470   -1.221586    0.631206
      7          6           0        2.364342   -1.492685    0.523593
      8          8           0        2.833739   -2.528273    0.951319
      9          6           0        3.215493   -0.445904   -0.128395
     10          6           0        2.650435    0.687004   -0.587668
     11         35           0        3.629571    2.070098   -1.424218
     12          6           0        1.166382    0.944139   -0.467588
     13          8           0        0.700834    1.978730   -0.895531
     14         35           0        5.057287   -0.839521   -0.241330
     15          1           0       -2.906848    0.435690   -0.988012
     16          1           0       -1.652390   -0.582363   -1.703121
     17          1           0       -1.426031    1.174831   -1.611678
     18          1           0       -1.784512   -1.976643    0.448884
     19          1           0       -2.965554   -0.833708    1.084438
     20          1           0       -1.523537   -1.205697    2.026458
     21          1           0       -1.012425    1.306096    2.163566
     22          1           0       -2.529574    1.548952    1.291355
     23          1           0       -1.044152    2.301710    0.695574
     24          1           0        0.372792   -2.023234    1.112803
 ---------------------------------------------------------------------

 SCF Done:  E(UB3LYP) =  -5685.93580108     A.U. after    2 cycles

 Alpha  occ. eigenvalues -- -482.85518-482.85474 -62.50783 -62.50740 -56.32838
 Alpha  occ. eigenvalues --  -56.32796 -56.32446 -56.32404 -56.32388 -56.32345
 Alpha  occ. eigenvalues --  -19.15582 -19.15147 -10.30929 -10.30271 -10.27700
 Alpha  occ. eigenvalues --  -10.27549 -10.23610 -10.22031 -10.21952 -10.17933
 Alpha  occ. eigenvalues --  -10.17322 -10.17321  -8.71752  -8.71711  -6.54954
 Alpha  occ. eigenvalues --   -6.54913  -6.53640  -6.53598  -6.53466  -6.53425
 Alpha  occ. eigenvalues --   -2.66042  -2.66000  -2.65695  -2.65653  -2.65562
 Alpha  occ. eigenvalues --   -2.65521  -2.64515  -2.64512  -2.64473  -2.64470
 Alpha  occ. eigenvalues --   -1.09300  -1.08514  -0.90420  -0.86869  -0.82399
 Alpha  occ. eigenvalues --   -0.81625  -0.75783  -0.71920  -0.70365  -0.70346
 Alpha  occ. eigenvalues --   -0.64165  -0.62229  -0.56868  -0.55069  -0.51151
 Alpha  occ. eigenvalues --   -0.48930  -0.47707  -0.47593  -0.45943  -0.45848
 Alpha  occ. eigenvalues --   -0.45114  -0.44014  -0.43806  -0.41679  -0.40544
 Alpha  occ. eigenvalues --   -0.40047  -0.38553  -0.37487  -0.37479  -0.35794
 Alpha  occ. eigenvalues --   -0.35393  -0.32694  -0.32485  -0.31362  -0.30208
 Alpha  occ. eigenvalues --   -0.30175  -0.28632  -0.27710
 Alpha virt. eigenvalues --   -0.14753  -0.05284  -0.04780  -0.01880  -0.01659
 Alpha virt. eigenvalues --   -0.00458   0.00191   0.00834   0.00991   0.02210
 Alpha virt. eigenvalues --    0.03155   0.03202   0.03412   0.03905   0.04127

  Beta  occ. eigenvalues -- -482.85518-482.85474 -62.50783 -62.50740 -56.32838
  Beta  occ. eigenvalues --  -56.32796 -56.32446 -56.32404 -56.32388 -56.32345
  Beta  occ. eigenvalues --  -19.15582 -19.15147 -10.30929 -10.30271 -10.27700
  Beta  occ. eigenvalues --  -10.27549 -10.23610 -10.22031 -10.21952 -10.17933
  Beta  occ. eigenvalues --  -10.17322 -10.17321  -8.71752  -8.71711  -6.54954
  Beta  occ. eigenvalues --   -6.54913  -6.53640  -6.53598  -6.53466  -6.53425
  Beta  occ. eigenvalues --   -2.66042  -2.66000  -2.65695  -2.65653  -2.65562
  Beta  occ. eigenvalues --   -2.65521  -2.64515  -2.64512  -2.64473  -2.64470
  Beta  occ. eigenvalues --   -1.09300  -1.08514  -0.90420  -0.86869  -0.82399
  Beta  occ. eigenvalues --   -0.81625  -0.75783  -0.71920  -0.70365  -0.70346
  Beta  occ. eigenvalues --   -0.64165  -0.62229  -0.56868  -0.55069  -0.51151
  Beta  occ. eigenvalues --   -0.48930  -0.47707  -0.47593  -0.45943  -0.45848
  Beta  occ. eigenvalues --   -0.45114  -0.44014  -0.43806  -0.41679  -0.40544
  Beta  occ. eigenvalues --   -0.40047  -0.38553  -0.37487  -0.37479  -0.35794
  Beta  occ. eigenvalues --   -0.35393  -0.32694  -0.32485  -0.31362  -0.30208
  Beta  occ. eigenvalues --   -0.30175  -0.28632  -0.27710
  Beta virt. eigenvalues --   -0.14753  -0.05284  -0.04780  -0.01880  -0.01659
  Beta virt. eigenvalues --   -0.00458   0.00191   0.00834   0.00991   0.02210
  Beta virt. eigenvalues --    0.03155   0.03202   0.03412   0.03905   0.04127

 Mulliken charges and spin densities:
               1          2
     1  C   -0.653665   0.000000
     2  C    0.492180   0.000000
     3  C   -0.443132  -0.000000
     4  C   -0.653690   0.000000
     5  C    1.333308  -0.000000
     6  C   -0.449699  -0.000000
     7  C   -0.871769   0.000000
     8  O   -0.151900  -0.000000
     9  C    0.888565  -0.000000
    10  C   -0.351258  -0.000000
    11  Br  -0.019944   0.000000
    12  C   -0.663671   0.000000
    13  O   -0.120518   0.000000
    14  Br  -0.006023  -0.000000
    15  H    0.159394  -0.000000
    16  H    0.141295  -0.000000
    17  H    0.192746  -0.000000
    18  H    0.135968   0.000000
    19  H    0.175344  -0.000000
    20  H    0.135995   0.000000
    21  H    0.141295  -0.000000
    22  H    0.159388  -0.000000
    23  H    0.192733  -0.000000
    24  H    0.237058   0.000000
 Sum of Mulliken charges =  -0.00000   0.00000

 Dipole moment (field-independent basis, Debye):
    X=             -2.4938    Y=              0.1302    Z=              0.3495  Tot=              2.5215
 Quadrupole moment (field-independent basis, Debye-Ang):
   XX=           -109.8615   YY=           -118.0419   ZZ=           -108.8493
   XY=              6.3235   XZ=             -3.1427   YZ=              4.1731

  Exact polarizability: 201.608 -19.562 176.110  -6.153 -30.603 122.715
 Approx polarizability: 279.413 -62.512 337.592  11.506 -74.083 198.843

                      1                      2                      3
                      A                      A                      A
 Frequencies --     28.6603                44.2961                78.6028
 Red. masses --      5.3360                 7.1937                 5.3703
 Frc consts  --      0.0026                 0.0083                 0.0195
 IR Inten    --      1.7252                 0.1968                 0.0198

                      4                      5                      6
                      A                      A                      A
 Frequencies --    131.1031               132.4545               141.9483
 Red. masses --     33.1517                 4.2964                 7.0614
 Frc consts  --      0.3357                 0.0444                 0.0838
 IR Inten    --      0.0804                 4.7835                 0.5705

                      7                      8                      9
                      A                      A                      A
 Frequencies --    206.2944               206.9258               219.3939
 Red. masses --      6.9165                 1.4917                 4.5183
 Frc consts  --      0.1734                 0.0376                 0.1281
 IR Inten    --      0.7417                 0.7022                 0.0150

                     10                     11                     12
                      A                      A                      A
 Frequencies --    242.8219               261.1670               268.8460
 Red. masses --      1.7280                 1.8604                 2.3171
 Frc consts  --      0.0600                 0.0748                 0.0987
 IR Inten    --      0.2775                 0.1940                 0.0057

                     13                     14                     15
                      A                      A                      A
 Frequencies --    287.3819               307.0130               331.2433
 Red. masses --      9.0928                 3.3606                 1.0630
 Frc consts  --      0.4425                 0.1866                 0.0687
 IR Inten    --      0.0097                 0.1860                 0.0399

                     16                     17                     18
                      A                      A                      A
 Frequencies --    357.4828               377.0320               418.2452
 Red. masses --      6.4353                 2.3035                 2.6993
 Frc consts  --      0.4845                 0.1929                 0.2782
 IR Inten    --      5.1103                 0.1416                 0.0948

                     19                     20                     21
                      A                      A                      A
 Frequencies --    453.5347               467.5414               509.1645
 Red. masses --      6.9736                 7.8841                 4.0409
 Frc consts  --      0.8451                 1.0154                 0.6172
 IR Inten    --      0.0015                 0.0261                35.1659

                     22                     23                     24
                      A                      A                      A
 Frequencies --    527.6466               576.0883               687.1263
 Red. masses --      4.5526                 5.1426                 6.2657
 Frc consts  --      0.7468                 1.0056                 1.7430
 IR Inten    --      0.0002                18.5935                 3.4803

                     25                     26                     27
                      A                      A                      A
 Frequencies --    716.6735               730.9128               795.1466
 Red. masses --      6.1683                 6.9478                 9.3752
 Frc consts  --      1.8666                 2.1869                 3.4924
 IR Inten    --      6.0656                18.5688                 4.2488

                     28                     29                     30
                      A                      A                      A
 Frequencies --    823.4603               838.0787               919.3241
 Red. masses --      3.3834                 8.5737                 1.6626
 Frc consts  --      1.3517                 3.5480                 0.8279
 IR Inten    --     24.3574                13.0278                10.5930

                     31                     32                     33
                      A                      A                      A
 Frequencies --    935.7403               937.8080               941.6370
 Red. masses --      1.5849                 1.8620                 4.1854
 Frc consts  --      0.8176                 0.9649                 2.1865
 IR Inten    --      8.1827                 0.8410                 4.8749

                     34                     35                     36
                      A                      A                      A
 Frequencies --    966.5484              1034.4652              1048.6024
 Red. masses --      1.1991                 2.0747                 1.3797
 Frc consts  --      0.6600                 1.3081                 0.8938
 IR Inten    --      0.0687               107.7236                 0.0737

                     37                     38                     39
                      A                      A                      A
 Frequencies --   1064.9718              1174.6564              1216.2013
 Red. masses --      2.3124                 3.5330                 2.6720
 Frc consts  --      1.5452                 2.8722                 2.3286
 IR Inten    --    123.2894                97.6046                 2.2540

                     40                     41                     42
                      A                      A                      A
 Frequencies --   1221.4116              1256.0063              1277.1863
 Red. masses --      3.3038                 4.1035                 2.7348
 Frc consts  --      2.9040                 3.8140                 2.6284
 IR Inten    --     27.0628               112.0985                10.7866

                     43                     44                     45
                      A                      A                      A
 Frequencies --   1342.0051              1394.9811              1399.7244
 Red. masses --      1.8686                 1.1945                 1.2235
 Frc consts  --      1.9827                 1.3695                 1.4124
 IR Inten    --     13.2547                 9.2446                12.8028

                     46                     47                     48
                      A                      A                      A
 Frequencies --   1429.8800              1481.5173              1495.6738
 Red. masses --      1.2161                 1.0458                 1.0477
 Frc consts  --      1.4649                 1.3525                 1.3809
 IR Inten    --      6.8070                 0.0080                 0.9188

                     49                     50                     51
                      A                      A                      A
 Frequencies --   1498.5610              1503.9919              1513.0593
 Red. masses --      1.0448                 1.0524                 1.0485
 Frc consts  --      1.3824                 1.4026                 1.4143
 IR Inten    --      0.3207                14.1498                 8.3641

                     52                     53                     54
                      A                      A                      A
 Frequencies --   1529.4543              1587.7394              1668.8383
 Red. masses --      1.0592                11.7460                 8.5192
 Frc consts  --      1.4598                17.4460                13.9791
 IR Inten    --     17.3510               179.4841                 6.2354

                     55                     56                     57
                      A                      A                      A
 Frequencies --   1725.6974              1731.3535              3024.5346
 Red. masses --     11.9743                12.6373                 1.0357
 Frc consts  --     21.0101                22.3190                 5.5824
 IR Inten    --     85.4593               324.4093                12.5522

                     58                     59                     60
                      A                      A                      A
 Frequencies --   3027.9979              3033.0441              3084.6455
 Red. masses --      1.0382                 1.0390                 1.1023
 Frc consts  --      5.6083                 5.6313                 6.1794
 IR Inten    --     34.4536                25.1366                 4.7962

                     61                     62                     63
                      A                      A                      A
 Frequencies --   3086.2107              3091.3016              3098.1955
 Red. masses --      1.1017                 1.1024                 1.1004
 Frc consts  --      6.1824                 6.2067                 6.2233
 IR Inten    --     19.3405                32.5766                50.6052

                     64                     65                     66
                      A                      A                      A
 Frequencies --   3137.0854              3139.6003              3209.9654
 Red. masses --      1.0984                 1.0977                 1.0907
 Frc consts  --      6.3688                 6.3753                 6.6213
 IR Inten    --      0.0450                13.5185                 0.2958

 - Thermochemistry -
 -------------------
 Temperature   298.150 Kelvin.  Pressure   1.00000 Atm.
 Atom     1 has atomic number  6 and mass  12.00000

 Molecular mass:   319.90475 amu.
 Principal axes and moments of inertia in atomic units:
                           1         2         3
     Eigenvalues --  3067.252466681.385859344.86044
           X            0.98830  -0.04019   0.14715
           Y           -0.02795   0.90061   0.43373
           Z           -0.14996  -0.43277   0.88894
 This molecule is an asymmetric top.
 Rotational symmetry number  1.
 Warning -- assumption of classical behavior for rotation
           may cause significant error
 Rotational temperatures (Kelvin)      0.02824     0.01296     0.00927
 Rotational constants (GHZ):           0.58839     0.27011     0.19313
 Zero-point vibrational energy     462930.3 (Joules/Mol)
                                  110.64300 (Kcal/Mol)
 Warning -- explicit consideration of  23 degrees of freedom as
           vibrations may cause significant error
 Vibrational temperatures:     41.24    63.73   113.09   188.63   190.57
          (Kelvin)            204.23   296.81   297.72   315.66   349.37
                              375.76   386.81   413.48   441.72   476.59
                              514.34   542.46   601.76   652.54   672.69
                              732.57   759.17   828.86   988.62  1031.13
                             1051.62  1144.04  1184.78  1205.81  1322.70
                             1346.32  1349.30  1354.81  1390.65  1488.36
                             1508.71  1532.26  1690.07  1749.84  1757.34
                             1807.11  1837.59  1930.85  2007.07  2013.89
                             2057.28  2131.57  2151.94  2156.10  2163.91
                             2176.95  2200.54  2284.40  2401.09  2482.89
                             2491.03  4351.63  4356.61  4363.87  4438.12
                             4440.37  4447.69  4457.61  4513.57  4517.18
                             4618.42

 Zero-point correction=                           0.176321 (Hartree/Particle)
 Thermal correction to Energy=                    0.191052
 Thermal correction to Enthalpy=                  0.191996
 Thermal correction to Gibbs Free Energy=         0.132813
 Sum of electronic and zero-point Energies=          -5685.759480
 Sum of electronic and thermal Energies=             -5685.744749
 Sum of electronic and thermal Enthalpies=           -5685.743805
 Sum of electronic and thermal Free Energies=        -5685.802988

                     E (Thermal)             CV                S
                      KCal/Mol        Cal/Mol-Kelvin    Cal/Mol-Kelvin
 Total                  119.887             53.508            124.561
 Electronic               0.000              0.000              0.000
 Translational            0.889              2.981             43.184
 Rotational               0.889              2.981             33.615
 Vibrational            118.110             47.546             47.762
 Vibration     1          0.593              1.984              5.920
 Vibration     2          0.595              1.980              5.057
 Vibration     3          0.600              1.964              3.925
 Vibration     4          0.612              1.922              2.930
 Vibration     5          0.613              1.921              2.910
 Vibration     6          0.615              1.911              2.777
 Vibration     7          0.641              1.831              2.076
 Vibration     8          0.641              1.830              2.071
 Vibration     9          0.647              1.812              1.964
 Vibration    10          0.659              1.775              1.782
 Vibration    11          0.669              1.744              1.654
 Vibration    12          0.673              1.730              1.604
 Vibration    13          0.685              1.697              1.489
 Vibration    14          0.697              1.660              1.378
 Vibration    15          0.714              1.613              1.254
 Vibration    16          0.733              1.560              1.133
 Vibration    17          0.748              1.519              1.051
 Vibration    18          0.781              1.431              0.898
 Vibration    19          0.812              1.353              0.785
 Vibration    20          0.825              1.322              0.744
 Vibration    21          0.864              1.230              0.636
 Vibration    22          0.883              1.189              0.592
 Vibration    23          0.933              1.083              0.493

                           ! Non-Optimized Parameters !
 Normal termination of Gaussian 16 at Sat Jan  6 06:21:11 2024.
