 Q-Chem 5.4, Q-Chem, Inc., Pleasanton, CA (2021)
 Q-Chem 5.4.0 for Intel X86 EM64T Linux

User input:
--------------------------------------------------------------
$molecule
0 1
C                 -1.2205300000      2.8592640000      0.0181060000
C                 -2.5220980000      2.3620060000      0.0164910000
C                 -2.7484890000      0.9798110000      0.0150010000
C                 -0.1424120000      1.9739960000      0.0182320000
C                 -0.3602400000      0.5883250000      0.0167490000
C                 -1.6729400000      0.1058100000      0.0151360000
C                  1.2392570000      2.5347570000      0.0199710000
C                  2.3731350000      1.5401260000      0.0199080000
C                  2.1426950000      0.2069210000      0.0184720000
C                  0.7873750000     -0.3595390000      0.0168930000
O                  1.4582720000      3.7285880000      0.0211970000
O                  0.6192840000     -1.5723950000      0.0154860000
H                 -1.0215270000      3.9259490000      0.0192770000
H                 -1.8289850000     -0.9660020000      0.0140030000
O                  3.5664080000      2.1406120000      0.0214060000
O                 -3.6174120000      3.1710410000      0.0162780000
H                 -3.7691910000      0.6172030000      0.0137630000
H                  2.9430290000     -0.5213890000      0.0184130000
C                  4.7383520000      1.3242240000      0.0215160000
H                 -3.3470120000      4.0958990000      0.0173760000
H                  5.5773940000      2.0162140000      0.0227870000
H                  4.7745890000      0.6967020000     -0.8738990000
H                  4.7732570000      0.6950270000      0.9158080000
$end

$rem
BASIS  =  6-311++G(d,p)
GUI  =  2
JOB_TYPE  =  SP
METHOD  =  B3LYP
SCF_CONVERGENCE  = 8
SOLVENT_METHOD = sm12
$end

$smx
solvent dimethylformamide
charges CM5
$end

--------------------------------------------------------------

             Standard Nuclear Orientation (Angstroms)
    I     Atom           X                Y                Z
 ----------------------------------------------------------------
    1      C      -1.2205300000     2.8592640000     0.0181060000
    2      C      -2.5220980000     2.3620060000     0.0164910000
    3      C      -2.7484890000     0.9798110000     0.0150010000
    4      C      -0.1424120000     1.9739960000     0.0182320000
    5      C      -0.3602400000     0.5883250000     0.0167490000
    6      C      -1.6729400000     0.1058100000     0.0151360000
    7      C       1.2392570000     2.5347570000     0.0199710000
    8      C       2.3731350000     1.5401260000     0.0199080000
    9      C       2.1426950000     0.2069210000     0.0184720000
   10      C       0.7873750000    -0.3595390000     0.0168930000
   11      O       1.4582720000     3.7285880000     0.0211970000
   12      O       0.6192840000    -1.5723950000     0.0154860000
   13      H      -1.0215270000     3.9259490000     0.0192770000
   14      H      -1.8289850000    -0.9660020000     0.0140030000
   15      O       3.5664080000     2.1406120000     0.0214060000
   16      O      -3.6174120000     3.1710410000     0.0162780000
   17      H      -3.7691910000     0.6172030000     0.0137630000
   18      H       2.9430290000    -0.5213890000     0.0184130000
   19      C       4.7383520000     1.3242240000     0.0215160000
   20      H      -3.3470120000     4.0958990000     0.0173760000
   21      H       5.5773940000     2.0162140000     0.0227870000
   22      H       4.7745890000     0.6967020000    -0.8738990000
   23      H       4.7732570000     0.6950270000     0.9158080000
 ----------------------------------------------------------------

   15    -725.0670198121      8.00e-09  Convergence criterion met
 Total energy in the final basis set =     -725.0912078642

                    Orbital Energies (a.u.)
 --------------------------------------------------------------

 Alpha MOs
 -- Occupied --
-19.1807 -19.1749 -19.1394 -19.1199 -10.2891 -10.2746 -10.2710 -10.2643
-10.2243 -10.2135 -10.2021 -10.2007 -10.2002 -10.1967 -10.1939  -1.1040
 -1.0874  -1.0686  -1.0529  -0.8904  -0.8335  -0.7835  -0.7729  -0.7386
 -0.6872  -0.6644  -0.6272  -0.5988  -0.5801  -0.5473  -0.5382  -0.5073
 -0.5005  -0.4888  -0.4676  -0.4566  -0.4530  -0.4503  -0.4442  -0.4317
 -0.4276  -0.4160  -0.4129  -0.3960  -0.3741  -0.3661  -0.3570  -0.3501
 -0.2884  -0.2863  -0.2732  -0.2695  -0.2517

          Ground-State Mulliken Net Atomic Charges

     Atom                 Charge (a.u.)
  ----------------------------------------
      1 C                     0.635541
      2 C                    -0.074627
      3 C                     0.107923
      4 C                     0.503921
      5 C                    -0.822059
      6 C                     0.141123
      7 C                    -1.152726
      8 C                     0.030363
      9 C                     0.864952
     10 C                    -1.124383
     11 O                    -0.287378
     12 O                    -0.355633
     13 H                     0.214546
     14 H                     0.189072
     15 O                    -0.183493
     16 O                    -0.209171
     17 H                     0.285882
     18 H                     0.303025
     19 C                    -0.104271
     20 H                     0.321009
     21 H                     0.261854
     22 H                     0.227263
     23 H                     0.227269
  ----------------------------------------
  Sum of atomic charges =     0.000000

                    Cartesian Multipole Moments
 -----------------------------------------------------------------
    Charge (ESU x 10^10)
                -0.0000
    Dipole Moment (Debye)
         X       1.1705      Y       1.4384      Z       0.0023
       Tot       1.8545
    Quadrupole Moments (Debye-Ang)
        XX     -63.4255     XY      -8.1329     YY     -93.0835
        XZ       0.0307     YZ       0.0108     ZZ     -87.0532

 Total job time:  339.77s(wall), 2637.99s(cpu)
        *  Thank you very much for using Q-Chem.  Have a nice day.  *
