 Q-Chem 5.4, Q-Chem, Inc., Pleasanton, CA (2021)
 Q-Chem 5.4.0 for Intel X86 EM64T Linux

User input:
--------------------------------------------------------------
$molecule
0 1
C                  0.0805730000      1.8262940000     -2.1014110000
C                 -1.3630410000      1.8894910000     -1.7620660000
C                 -2.0704220000      0.7856540000     -1.4900340000
C                 -1.4379250000     -0.5565930000     -1.5203250000
C                  0.0011540000     -0.6260160000     -1.8742530000
C                  0.7247190000      0.4761720000     -2.1278400000
O                  0.7113500000      2.8358310000     -2.3619320000
O                 -2.0749820000     -1.5642160000     -1.2620920000
C                  3.2377370000      0.8373100000     -1.6081940000
C                  4.5619150000      0.8955960000     -2.0665720000
C                  2.9520350000      1.1817490000     -0.2814030000
C                  3.9743760000      1.5771240000      0.5763640000
C                  5.5791830000      1.2975000000     -1.2115010000
C                  5.2868970000      1.6377840000      0.1114320000
H                 -1.7990770000      2.8824960000     -1.7564320000
H                 -3.1256500000      0.8109130000     -1.2415440000
H                  0.4327180000     -1.6207680000     -1.9110720000
H                  4.7679130000      0.6248200000     -3.0947700000
H                  1.9345330000      1.1335130000      0.0883660000
H                  3.7481000000      1.8385280000      1.6034820000
H                  6.6004550000      1.3473510000     -1.5711920000
H                  6.0826390000      1.9503240000      0.7783040000
C                  2.1803350000      0.3839490000     -2.5499750000
O                  2.4299850000     -0.0799070000     -3.6451790000
$end
$rem
MAX_SCF_CYCLES=200
BASIS  =  6-311++G(d,p)
GUI  =  2
JOB_TYPE  =  SP
METHOD  =  B3LYP
SOLVENT_METHOD = PCM
$end
$pcm
theory = CPCM
$end
$solvent
dielectric 37.219
opticaldielectric 1.43
$end

--------------------------------------------------------------

             Standard Nuclear Orientation (Angstroms)
    I     Atom           X                Y                Z
 ----------------------------------------------------------------
    1      C       0.0805730000     1.8262940000    -2.1014110000
    2      C      -1.3630410000     1.8894910000    -1.7620660000
    3      C      -2.0704220000     0.7856540000    -1.4900340000
    4      C      -1.4379250000    -0.5565930000    -1.5203250000
    5      C       0.0011540000    -0.6260160000    -1.8742530000
    6      C       0.7247190000     0.4761720000    -2.1278400000
    7      O       0.7113500000     2.8358310000    -2.3619320000
    8      O      -2.0749820000    -1.5642160000    -1.2620920000
    9      C       3.2377370000     0.8373100000    -1.6081940000
   10      C       4.5619150000     0.8955960000    -2.0665720000
   11      C       2.9520350000     1.1817490000    -0.2814030000
   12      C       3.9743760000     1.5771240000     0.5763640000
   13      C       5.5791830000     1.2975000000    -1.2115010000
   14      C       5.2868970000     1.6377840000     0.1114320000
   15      H      -1.7990770000     2.8824960000    -1.7564320000
   16      H      -3.1256500000     0.8109130000    -1.2415440000
   17      H       0.4327180000    -1.6207680000    -1.9110720000
   18      H       4.7679130000     0.6248200000    -3.0947700000
   19      H       1.9345330000     1.1335130000     0.0883660000
   20      H       3.7481000000     1.8385280000     1.6034820000
   21      H       6.6004550000     1.3473510000    -1.5711920000
   22      H       6.0826390000     1.9503240000     0.7783040000
   23      C       2.1803350000     0.3839490000    -2.5499750000
   24      O       2.4299850000    -0.0799070000    -3.6451790000
 ----------------------------------------------------------------

    9    -726.0459695577      3.32e-06  Convergence criterion met
 Total energy in the final basis set =     -726.0459695577

                    Orbital Energies (a.u.)
 --------------------------------------------------------------

 Alpha MOs
 -- Occupied --
-19.1534 -19.1512 -19.1414 -10.3001 -10.2950 -10.2933 -10.2305 -10.2220
-10.2171 -10.2161 -10.2018 -10.1970 -10.1935 -10.1932 -10.1890 -10.1887
 -1.0862  -1.0804  -1.0757  -0.8803  -0.8732  -0.8117  -0.7796  -0.7659
 -0.7237  -0.6789  -0.6410  -0.6274  -0.6176  -0.5723  -0.5388  -0.5350
 -0.5153  -0.4990  -0.4832  -0.4791  -0.4628  -0.4611  -0.4524  -0.4492
 -0.4451  -0.4384  -0.4292  -0.4231  -0.4146  -0.3801  -0.3757  -0.3600
 -0.3239  -0.3133  -0.3026  -0.3000  -0.2781  -0.2753  -0.2735

          Ground-State Mulliken Net Atomic Charges

     Atom                 Charge (a.u.)
  ----------------------------------------
      1 C                    -0.638947
      2 C                    -0.143324
      3 C                     0.250962
      4 C                    -0.601615
      5 C                     0.281568
      6 C                     0.955517
      7 O                    -0.268941
      8 O                    -0.293533
      9 C                     0.834029
     10 C                     0.370060
     11 C                    -0.826133
     12 C                    -0.318733
     13 C                    -0.476240
     14 C                    -0.279313
     15 H                     0.269219
     16 H                     0.271018
     17 H                     0.299901
     18 H                     0.227255
     19 H                     0.197059
     20 H                     0.234485
     21 H                     0.219799
     22 H                     0.205326
     23 C                    -0.502391
     24 O                    -0.267027
  ----------------------------------------
  Sum of atomic charges =     0.000000

                    Cartesian Multipole Moments
 -----------------------------------------------------------------
    Charge (ESU x 10^10)
                 0.0000
    Dipole Moment (Debye)
         X       0.6581      Y       1.9092      Z       4.3184
       Tot       4.7673
    Quadrupole Moments (Debye-Ang)
        XX     -73.9987     XY      -6.1255     YY    -101.8471
        XZ      12.1737     YZ       3.9549     ZZ    -107.0036

 Total job time:  34.18s(wall), 260.37s(cpu)
        *  Thank you very much for using Q-Chem.  Have a nice day.  *
