 Gaussian 16, Revision A.03,
 Gaussian 16:  ES64L-G16RevA.03 25-Dec-2016

 --------------------------------------
 #P UB3LYP/6-311++G(d,p) nosym opt freq
 --------------------------------------

 --------
 Oxidized
 --------
 Symbolic Z-matrix:
 Charge =  0 Multiplicity = 1

 SCF Done:  E(UB3LYP) =  -726.026585395     A.U. after   16 cycles
 Optimization completed.
    -- Stationary point found.
 Normal termination of Gaussian 16 at Wed Jan 10 04:52:45 2024.

 ----------------------------------------------------------------------
 #P Geom=AllCheck Guess=TCheck SCRF=Check GenChk UB3LYP/6-311++G(d,p) F
 req
 ----------------------------------------------------------------------

 Structure from the checkpoint file:  "076.chk"
 --------
 Oxidized
 --------
 Charge =  0 Multiplicity = 1

                          Input orientation:
 ---------------------------------------------------------------------
 Center     Atomic      Atomic             Coordinates (Angstroms)
 Number     Number       Type             X           Y           Z
 ---------------------------------------------------------------------
      1          6           0        0.080573    1.826294   -2.101411
      2          6           0       -1.363041    1.889491   -1.762066
      3          6           0       -2.070422    0.785654   -1.490034
      4          6           0       -1.437925   -0.556593   -1.520325
      5          6           0        0.001154   -0.626016   -1.874253
      6          6           0        0.724719    0.476172   -2.127840
      7          8           0        0.711350    2.835831   -2.361932
      8          8           0       -2.074982   -1.564216   -1.262092
      9          6           0        3.237737    0.837310   -1.608194
     10          6           0        4.561915    0.895596   -2.066572
     11          6           0        2.952035    1.181749   -0.281403
     12          6           0        3.974376    1.577124    0.576364
     13          6           0        5.579183    1.297500   -1.211501
     14          6           0        5.286897    1.637784    0.111432
     15          1           0       -1.799077    2.882496   -1.756432
     16          1           0       -3.125650    0.810913   -1.241544
     17          1           0        0.432718   -1.620768   -1.911072
     18          1           0        4.767913    0.624820   -3.094770
     19          1           0        1.934533    1.133513    0.088366
     20          1           0        3.748100    1.838528    1.603482
     21          1           0        6.600455    1.347351   -1.571192
     22          1           0        6.082639    1.950324    0.778304
     23          6           0        2.180335    0.383949   -2.549975
     24          8           0        2.429985   -0.079907   -3.645179
 ---------------------------------------------------------------------

 SCF Done:  E(UB3LYP) =  -726.026585395     A.U. after    1 cycles

 Alpha  occ. eigenvalues --  -19.15378 -19.15101 -19.13755 -10.30158 -10.29673
 Alpha  occ. eigenvalues --  -10.29065 -10.23519 -10.22855 -10.22797 -10.22764
 Alpha  occ. eigenvalues --  -10.20678 -10.20541 -10.20262 -10.19890 -10.19880
 Alpha  occ. eigenvalues --  -10.19727  -1.08572  -1.07992  -1.07109  -0.88642
 Alpha  occ. eigenvalues --   -0.88036  -0.82009  -0.78602  -0.77367  -0.72878
 Alpha  occ. eigenvalues --   -0.68505  -0.64807  -0.63517  -0.62525  -0.57825
 Alpha  occ. eigenvalues --   -0.54362  -0.53998  -0.51999  -0.50336  -0.49012
 Alpha  occ. eigenvalues --   -0.48249  -0.46993  -0.46366  -0.45580  -0.45225
 Alpha  occ. eigenvalues --   -0.44754  -0.44592  -0.43013  -0.42660  -0.41725
 Alpha  occ. eigenvalues --   -0.38509  -0.38230  -0.36938  -0.32655  -0.32234
 Alpha  occ. eigenvalues --   -0.30186  -0.29902  -0.28222  -0.27931  -0.27342
 Alpha virt. eigenvalues --   -0.14869  -0.08738  -0.05023  -0.03566  -0.01640
 Alpha virt. eigenvalues --   -0.01476  -0.00668   0.00543   0.00894   0.01135
 Alpha virt. eigenvalues --    0.01814   0.02505   0.03120   0.03637   0.04774

  Beta  occ. eigenvalues --  -19.15378 -19.15101 -19.13755 -10.30158 -10.29673
  Beta  occ. eigenvalues --  -10.29065 -10.23519 -10.22855 -10.22797 -10.22764
  Beta  occ. eigenvalues --  -10.20678 -10.20541 -10.20262 -10.19890 -10.19880
  Beta  occ. eigenvalues --  -10.19727  -1.08572  -1.07992  -1.07109  -0.88642
  Beta  occ. eigenvalues --   -0.88036  -0.82009  -0.78602  -0.77367  -0.72878
  Beta  occ. eigenvalues --   -0.68505  -0.64807  -0.63517  -0.62525  -0.57825
  Beta  occ. eigenvalues --   -0.54362  -0.53998  -0.51999  -0.50336  -0.49012
  Beta  occ. eigenvalues --   -0.48249  -0.46993  -0.46366  -0.45580  -0.45225
  Beta  occ. eigenvalues --   -0.44754  -0.44592  -0.43013  -0.42660  -0.41725
  Beta  occ. eigenvalues --   -0.38509  -0.38230  -0.36938  -0.32655  -0.32234
  Beta  occ. eigenvalues --   -0.30186  -0.29902  -0.28222  -0.27931  -0.27342
  Beta virt. eigenvalues --   -0.14869  -0.08738  -0.05023  -0.03566  -0.01640
  Beta virt. eigenvalues --   -0.01476  -0.00668   0.00543   0.00894   0.01135
  Beta virt. eigenvalues --    0.01814   0.02505   0.03120   0.03637   0.04774

 Mulliken charges and spin densities:
               1          2
     1  C   -0.752558  -0.000000
     2  C   -0.087416   0.000000
     3  C    0.269281  -0.000000
     4  C   -0.674918   0.000000
     5  C    0.306326  -0.000000
     6  C    0.943944   0.000000
     7  O   -0.191780   0.000000
     8  O   -0.217767  -0.000000
     9  C    0.897934   0.000000
    10  C    0.328260   0.000000
    11  C   -0.751617  -0.000000
    12  C   -0.286633  -0.000000
    13  C   -0.415316  -0.000000
    14  C   -0.227830  -0.000000
    15  H    0.230543  -0.000000
    16  H    0.231878  -0.000000
    17  H    0.261338  -0.000000
    18  H    0.215465  -0.000000
    19  H    0.132908  -0.000000
    20  H    0.189021   0.000000
    21  H    0.176772   0.000000
    22  H    0.161107  -0.000000
    23  C   -0.549672  -0.000000
    24  O   -0.189269   0.000000
 Sum of Mulliken charges =  -0.00000  -0.00000

 Dipole moment (field-independent basis, Debye):
    X=              0.7679    Y=              1.5714    Z=              2.9839  Tot=              3.4587
 Quadrupole moment (field-independent basis, Debye-Ang):
   XX=            -77.0698   YY=           -100.3861   ZZ=           -102.7088
   XY=             -4.7975   XZ=              8.1398   YZ=              2.8281

  Exact polarizability: 202.877  34.849 143.447   0.955   7.621 132.156
 Approx polarizability: 290.283  83.109 272.941 -16.494   4.012 232.772

                      1                      2                      3
                      A                      A                      A
 Frequencies --     19.4957                39.1755                60.6962
 Red. masses --      8.5789                 4.1440                 5.0276
 Frc consts  --      0.0019                 0.0037                 0.0109
 IR Inten    --      0.9981                 0.1917                 1.7511

                      4                      5                      6
                      A                      A                      A
 Frequencies --     88.9250               116.8240               173.4985
 Red. masses --      9.8752                 8.2589                 5.5549
 Frc consts  --      0.0460                 0.0664                 0.0985
 IR Inten    --      9.0432                 2.3177                 0.2455

                      7                      8                      9
                      A                      A                      A
 Frequencies --    176.6422               249.3292               257.3541
 Red. masses --      6.1755                 5.4602                 6.8430
 Frc consts  --      0.1135                 0.2000                 0.2670
 IR Inten    --      4.6945                 3.8718                 0.6360

                     10                     11                     12
                      A                      A                      A
 Frequencies --    314.2219               408.0244               412.6193
 Red. masses --      5.3748                 4.1431                 3.6437
 Frc consts  --      0.3127                 0.4064                 0.3655
 IR Inten    --      1.7529                 2.1520                 1.2737

                     13                     14                     15
                      A                      A                      A
 Frequencies --    424.2583               432.9185               466.1350
 Red. masses --      8.4270                 4.1611                10.9685
 Frc consts  --      0.8937                 0.4595                 1.4042
 IR Inten    --     24.2446                 2.2718                 2.0977

                     16                     17                     18
                      A                      A                      A
 Frequencies --    495.3876               526.4886               611.2312
 Red. masses --      4.2213                 3.7980                 7.3773
 Frc consts  --      0.6104                 0.6203                 1.6239
 IR Inten    --      1.3024                17.0912                 9.7012

                     19                     20                     21
                      A                      A                      A
 Frequencies --    630.4282               643.1407               693.0534
 Red. masses --      6.3462                 3.7191                 4.7643
 Frc consts  --      1.4861                 0.9064                 1.3483
 IR Inten    --      0.5432                 3.0056                 9.6749

                     22                     23                     24
                      A                      A                      A
 Frequencies --    700.2020               706.8393               772.0180
 Red. masses --      2.5757                 2.5495                 2.2816
 Frc consts  --      0.7440                 0.7505                 0.8012
 IR Inten    --     22.8709                32.7511                24.2343

                     25                     26                     27
                      A                      A                      A
 Frequencies --    791.8442               810.8504               836.8390
 Red. masses --      3.3206                 4.4825                 3.9000
 Frc consts  --      1.2267                 1.7364                 1.6092
 IR Inten    --      1.1576                10.3082                14.5741

                     28                     29                     30
                      A                      A                      A
 Frequencies --    859.0173               860.1218               930.4102
 Red. masses --      1.4579                 2.2316                 2.4051
 Frc consts  --      0.6338                 0.9727                 1.2267
 IR Inten    --      6.6727                13.2458                84.7073

                     31                     32                     33
                      A                      A                      A
 Frequencies --    953.7285               958.5444               998.1009
 Red. masses --      1.4466                 2.1632                 1.3764
 Frc consts  --      0.7753                 1.1710                 0.8079
 IR Inten    --      1.1363                32.6942                 0.6221

                     34                     35                     36
                      A                      A                      A
 Frequencies --   1015.2272              1016.5784              1018.3260
 Red. masses --      1.3834                 5.0709                 1.2613
 Frc consts  --      0.8401                 3.0876                 0.7706
 IR Inten    --      0.5697                 2.0953                 0.0071

                     37                     38                     39
                      A                      A                      A
 Frequencies --   1045.2127              1078.1547              1106.4446
 Red. masses --      2.2993                 3.0791                 1.5552
 Frc consts  --      1.4800                 2.1088                 1.1217
 IR Inten    --      2.8279                 6.3628                11.9213

                     40                     41                     42
                      A                      A                      A
 Frequencies --   1125.0564              1185.0555              1198.1671
 Red. masses --      1.6469                 1.1175                 1.1719
 Frc consts  --      1.2282                 0.9246                 0.9912
 IR Inten    --     37.0137                 1.1062                33.3177

                     43                     44                     45
                      A                      A                      A
 Frequencies --   1217.0422              1270.3133              1285.8669
 Red. masses --      1.7814                 3.5049                 3.2328
 Frc consts  --      1.5546                 3.3323                 3.1493
 IR Inten    --      6.5602               263.9059                61.4781

                     46                     47                     48
                      A                      A                      A
 Frequencies --   1338.0934              1344.6781              1353.3875
 Red. masses --      2.3046                 2.4945                 2.0435
 Frc consts  --      2.4312                 2.6575                 2.2053
 IR Inten    --     10.7576                49.4061                 9.1581

                     49                     50                     51
                      A                      A                      A
 Frequencies --   1389.2307              1478.8642              1520.3498
 Red. masses --      1.9606                 2.2223                 2.1821
 Frc consts  --      2.2294                 2.8635                 2.9717
 IR Inten    --      1.5887                19.0468                 1.6191

                     52                     53                     54
                      A                      A                      A
 Frequencies --   1618.8814              1637.0982              1644.5061
 Red. masses --      5.4847                 5.5951                 8.1162
 Frc consts  --      8.4691                 8.8351                12.9322
 IR Inten    --     14.0897                39.9872                 6.7984

                     55                     56                     57
                      A                      A                      A
 Frequencies --   1677.1132              1720.5957              1724.8436
 Red. masses --      9.2346                11.6337                 9.6155
 Frc consts  --     15.3036                20.2921                16.8546
 IR Inten    --      5.3157               337.2370               131.1060

                     58                     59                     60
                      A                      A                      A
 Frequencies --   1735.1090              3166.8013              3175.8576
 Red. masses --     12.2330                 1.0858                 1.0883
 Frc consts  --     21.6988                 6.4158                 6.4672
 IR Inten    --    223.4845                 0.4817                 4.3862

                     61                     62                     63
                      A                      A                      A
 Frequencies --   3176.2443              3180.0992              3183.6296
 Red. masses --      1.0875                 1.0925                 1.0921
 Frc consts  --      6.4639                 6.5097                 6.5219
 IR Inten    --      0.6394                 0.2153                18.8674

                     64                     65                     66
                      A                      A                      A
 Frequencies --   3192.7402              3193.8536              3200.7760
 Red. masses --      1.0962                 1.0993                 1.0947
 Frc consts  --      6.5836                 6.6069                 6.6079
 IR Inten    --      9.0436                 2.3143                 6.4115

 - Thermochemistry -
 -------------------
 Temperature   298.150 Kelvin.  Pressure   1.00000 Atm.
 Atom     1 has atomic number  6 and mass  12.00000

 Molecular mass:   212.04734 amu.
 Principal axes and moments of inertia in atomic units:
                           1         2         3
     Eigenvalues --  1612.866105826.467625967.45742
           X            0.97333  -0.22855  -0.01966
           Y            0.18959   0.84971  -0.49198
           Z            0.12915   0.47513   0.87039
 This molecule is an asymmetric top.
 Rotational symmetry number  1.
 Warning -- assumption of classical behavior for rotation
           may cause significant error
 Rotational temperatures (Kelvin)      0.05370     0.01487     0.01451
 Rotational constants (GHZ):           1.11897     0.30975     0.30243
 Zero-point vibrational energy     458364.5 (Joules/Mol)
                                  109.55175 (Kcal/Mol)
 Warning -- explicit consideration of  18 degrees of freedom as
           vibrations may cause significant error
 Vibrational temperatures:     28.05    56.36    87.33   127.94   168.08
          (Kelvin)            249.63   254.15   358.73   370.28   452.10
                              587.06   593.67   610.41   622.87   670.66
                              712.75   757.50   879.43   907.05   925.34
                              997.15  1007.43  1016.98  1110.76  1139.29
                             1166.63  1204.02  1235.93  1237.52  1338.65
                             1372.20  1379.13  1436.04  1460.69  1462.63
                             1465.14  1503.83  1551.22  1591.93  1618.71
                             1705.03  1723.90  1751.05  1827.70  1850.08
                             1925.22  1934.69  1947.22  1998.79  2127.76
                             2187.44  2329.21  2355.42  2366.08  2412.99
                             2475.55  2481.67  2496.43  4556.32  4569.35
                             4569.91  4575.45  4580.53  4593.64  4595.24
                             4605.20

 Zero-point correction=                           0.174582 (Hartree/Particle)
 Thermal correction to Energy=                    0.187588
 Thermal correction to Enthalpy=                  0.188532
 Thermal correction to Gibbs Free Energy=         0.132801
 Sum of electronic and zero-point Energies=           -725.852004
 Sum of electronic and thermal Energies=              -725.838997
 Sum of electronic and thermal Enthalpies=            -725.838053
 Sum of electronic and thermal Free Energies=         -725.893785

                     E (Thermal)             CV                S
                      KCal/Mol        Cal/Mol-Kelvin    Cal/Mol-Kelvin
 Total                  117.713             49.088            117.297
 Electronic               0.000              0.000              0.000
 Translational            0.889              2.981             41.958
 Rotational               0.889              2.981             32.395
 Vibrational            115.936             43.127             42.944
 Vibration     1          0.593              1.986              6.685
 Vibration     2          0.594              1.981              5.300
 Vibration     3          0.597              1.973              4.434
 Vibration     4          0.602              1.957              3.684
 Vibration     5          0.608              1.935              3.152
 Vibration     6          0.627              1.875              2.397
 Vibration     7          0.628              1.871              2.364
 Vibration     8          0.662              1.764              1.735
 Vibration     9          0.667              1.750              1.680
 Vibration    10          0.702              1.647              1.340
 Vibration    11          0.773              1.453              0.934
 Vibration    12          0.776              1.443              0.917
 Vibration    13          0.786              1.417              0.878
 Vibration    14          0.794              1.399              0.849
 Vibration    15          0.823              1.325              0.748
 Vibration    16          0.851              1.260              0.670
 Vibration    17          0.881              1.191              0.595
 Vibration    18          0.970              1.008              0.431

                           ! Non-Optimized Parameters !
 Normal termination of Gaussian 16 at Wed Jan 10 05:28:58 2024.
