 Gaussian 16, Revision A.03,
 Gaussian 16:  ES64L-G16RevA.03 25-Dec-2016

 --------------------------------------
 #P UB3LYP/6-311++G(d,p) nosym opt freq
 --------------------------------------

 -------
 Radical
 -------
 Symbolic Z-matrix:
 Charge = -1 Multiplicity = 2

 SCF Done:  E(UB3LYP) =  -973.789831384     A.U. after   23 cycles
 SCF Done:  E(UB3LYP) =  -973.824921382     A.U. after   18 cycles
 SCF Done:  E(UB3LYP) =  -973.832520681     A.U. after   17 cycles
 SCF Done:  E(UB3LYP) =  -973.832801420     A.U. after   15 cycles
 SCF Done:  E(UB3LYP) =  -973.832839556     A.U. after   14 cycles
 Optimization completed.
    -- Stationary point found.
 Normal termination of Gaussian 16 at Sat Jan  6 01:59:27 2024.

 ----------------------------------------------------------------------
 #P Geom=AllCheck Guess=TCheck SCRF=Check GenChk UB3LYP/6-311++G(d,p) F
 req
 ----------------------------------------------------------------------

 Structure from the checkpoint file:  "337-rad.chk"
 -------
 Radical
 -------
 Charge = -1 Multiplicity = 2

                          Input orientation:
 ---------------------------------------------------------------------
 Center     Atomic      Atomic             Coordinates (Angstroms)
 Number     Number       Type             X           Y           Z
 ---------------------------------------------------------------------
      1          8           0       -0.140865   -2.492379    0.318411
      2          6           0       -0.070269   -1.234312    0.157786
      3          6           0       -1.288118   -0.426455    0.178620
      4          6           0       -2.529929   -1.087074    0.381151
      5          6           0       -3.734936   -0.400425    0.415374
      6          6           0       -3.764806    0.987548    0.248643
      7          6           0       -2.555484    1.668820    0.046826
      8          6           0       -1.346022    0.981415    0.012242
      9         16           0        0.111891    1.973041   -0.252025
     10          6           0        1.446329    0.791481   -0.238474
     11          6           0        2.724387    1.309307   -0.427046
     12          6           0        3.847159    0.469034   -0.434709
     13          6           0        3.661278   -0.904176   -0.248933
     14          6           0        2.387760   -1.421742   -0.060765
     15          6           0        1.230683   -0.597546   -0.047734
     16          1           0       -2.484564   -2.161754    0.508043
     17          1           0       -4.660423   -0.947654    0.572990
     18          1           0       -4.700607    1.535737    0.273354
     19          1           0       -2.558462    2.747286   -0.084736
     20          1           0        2.849464    2.378998   -0.569895
     21          1           0        4.837688    0.885971   -0.582799
     22          1           0        4.517490   -1.573240   -0.251355
     23          1           0        2.220357   -2.481882    0.085032
 ---------------------------------------------------------------------

 SCF Done:  E(UB3LYP) =  -973.832839556     A.U. after    1 cycles

 Alpha  occ. eigenvalues --  -88.73630 -18.91550 -10.08328 -10.08320 -10.07110
 Alpha  occ. eigenvalues --  -10.05149 -10.05139 -10.04859 -10.04843 -10.04737
 Alpha  occ. eigenvalues --  -10.04725 -10.04582 -10.04570 -10.03515 -10.03506
 Alpha  occ. eigenvalues --   -7.82284  -5.78646  -5.78263  -5.77747  -0.84048
 Alpha  occ. eigenvalues --   -0.74570  -0.72799  -0.67480  -0.63205  -0.62555
 Alpha  occ. eigenvalues --   -0.61746  -0.57341  -0.51906  -0.48896  -0.46848
 Alpha  occ. eigenvalues --   -0.45434  -0.41715  -0.40070  -0.35636  -0.33712
 Alpha  occ. eigenvalues --   -0.33597  -0.33218  -0.30365  -0.29767  -0.28285
 Alpha  occ. eigenvalues --   -0.27980  -0.26422  -0.26028  -0.24535  -0.23335
 Alpha  occ. eigenvalues --   -0.22728  -0.21770  -0.20892  -0.19177  -0.18845
 Alpha  occ. eigenvalues --   -0.13987  -0.12774  -0.12189  -0.08951  -0.08675
 Alpha  occ. eigenvalues --    0.02009
 Alpha virt. eigenvalues --    0.08355   0.08405   0.09838   0.09855   0.10310
 Alpha virt. eigenvalues --    0.10976   0.11089   0.11184   0.11962   0.13213
 Alpha virt. eigenvalues --    0.14751   0.14874   0.15213   0.15697   0.16733

  Beta  occ. eigenvalues --  -88.73614 -18.90958 -10.08229 -10.08220 -10.06788
  Beta  occ. eigenvalues --  -10.05154 -10.05145 -10.04831 -10.04820 -10.04629
  Beta  occ. eigenvalues --  -10.04613 -10.04610 -10.04602 -10.03318 -10.03308
  Beta  occ. eigenvalues --   -7.82269  -5.78641  -5.78257  -5.77690  -0.82982
  Beta  occ. eigenvalues --   -0.74336  -0.72591  -0.67284  -0.62776  -0.62342
  Beta  occ. eigenvalues --   -0.61494  -0.57180  -0.51256  -0.48704  -0.46654
  Beta  occ. eigenvalues --   -0.45176  -0.41404  -0.39956  -0.35409  -0.33587
  Beta  occ. eigenvalues --   -0.33366  -0.33164  -0.30246  -0.29700  -0.28151
  Beta  occ. eigenvalues --   -0.27111  -0.26254  -0.25760  -0.23960  -0.22971
  Beta  occ. eigenvalues --   -0.22599  -0.20782  -0.19747  -0.19057  -0.18278
  Beta  occ. eigenvalues --   -0.13423  -0.11917  -0.10561  -0.08410  -0.07828
  Beta virt. eigenvalues --    0.07659   0.08339   0.08391   0.09831   0.10277
  Beta virt. eigenvalues --    0.10463   0.11179   0.11555   0.11942   0.11960
  Beta virt. eigenvalues --    0.13201   0.14761   0.14872   0.15354   0.15713

 Mulliken charges and spin densities:
               1          2
     1  O   -0.400710   0.231195
     2  C   -0.170980   0.199365
     3  C    1.803468  -0.013663
     4  C    0.160035   0.191987
     5  C   -0.400268  -0.066387
     6  C   -0.221511   0.180454
     7  C   -0.570250  -0.024244
     8  C   -0.985325   0.028006
     9  S   -1.059027   0.026665
    10  C   -0.982376   0.027254
    11  C   -0.570913  -0.023681
    12  C   -0.220739   0.178570
    13  C   -0.400881  -0.065890
    14  C    0.161649   0.190981
    15  C    1.803942  -0.013965
    16  H    0.173350  -0.013524
    17  H    0.118293   0.004326
    18  H    0.111639  -0.013421
    19  H    0.123432  -0.000770
    20  H    0.123559  -0.000797
    21  H    0.111697  -0.013284
    22  H    0.118388   0.004293
    23  H    0.173528  -0.013470
 Sum of Mulliken charges =  -1.00000   1.00000

 Dipole moment (field-independent basis, Debye):
    X=              0.2112    Y=              3.5063    Z=             -0.4495  Tot=              3.5413
 Quadrupole moment (field-independent basis, Debye-Ang):
   XX=           -117.2123   YY=           -115.9692   ZZ=           -105.3345
   XY=              0.2138   XZ=              1.1668   YZ=              1.3127

  Exact polarizability: 404.978 -15.194 200.470 -27.759 -10.389 107.170
 Approx polarizability: 653.071 -22.290 366.024 -45.465 -22.745 169.172

 ******    1 imaginary frequencies (negative Signs) ******

                      1                      2                      3
                      A                      A                      A
 Frequencies --    -38.0293                98.6319               126.4543
 Red. masses --      8.8701                 3.8537                 5.5344
 Frc consts  --      0.0076                 0.0221                 0.0521
 IR Inten    --      1.5017                 0.0000                 2.4618

                      4                      5                      6
                      A                      A                      A
 Frequencies --    177.6331               223.5684               235.1771
 Red. masses --      6.2252                 5.0992                 5.0772
 Frc consts  --      0.1157                 0.1502                 0.1654
 IR Inten    --      0.0000                 3.1681                 0.0000

                      7                      8                      9
                      A                      A                      A
 Frequencies --    317.9859               334.1788               367.3303
 Red. masses --      6.6582                 8.1361                 4.1127
 Frc consts  --      0.3967                 0.5353                 0.3270
 IR Inten    --      0.3213                 3.9173                 0.3622

                     10                     11                     12
                      A                      A                      A
 Frequencies --    411.9732               437.1561               442.1833
 Red. masses --      9.3770                12.8282                 3.2877
 Frc consts  --      0.9377                 1.4444                 0.3787
 IR Inten    --      3.2027                 0.7852                 0.0001

                     13                     14                     15
                      A                      A                      A
 Frequencies --    470.3213               483.3091               505.9993
 Red. masses --     11.4310                 4.6354                 4.6306
 Frc consts  --      1.4898                 0.6379                 0.6985
 IR Inten    --      2.0287                 2.0321                 0.0002

                     16                     17                     18
                      A                      A                      A
 Frequencies --    587.6967               619.5442               630.6090
 Red. masses --      7.0495                 4.2991                 6.9832
 Frc consts  --      1.4345                 0.9722                 1.6362
 IR Inten    --      0.2267                23.0470                 1.1493

                     19                     20                     21
                      A                      A                      A
 Frequencies --    670.6117               697.1353               700.6336
 Red. masses --      6.3767                 5.0186                 1.4434
 Frc consts  --      1.6896                 1.4370                 0.4175
 IR Inten    --      0.1721                 0.0051               115.5546

                     22                     23                     24
                      A                      A                      A
 Frequencies --    709.0447               724.1357               732.1224
 Red. masses --      1.2178                 7.1722                 3.2485
 Frc consts  --      0.3607                 2.2159                 1.0259
 IR Inten    --      0.1103                25.5045                12.3579

                     25                     26                     27
                      A                      A                      A
 Frequencies --    778.1779               831.2539               832.2823
 Red. masses --      6.7197                 1.3524                 1.3906
 Frc consts  --      2.3975                 0.5506                 0.5675
 IR Inten    --      8.5801                 0.1327                 5.8995

                     28                     29                     30
                      A                      A                      A
 Frequencies --    869.4447               871.2521               928.0511
 Red. masses --      1.3233                 1.2944                 6.5491
 Frc consts  --      0.5894                 0.5789                 3.3233
 IR Inten    --     10.6591                 0.2439                 2.2703

                     31                     32                     33
                      A                      A                      A
 Frequencies --    955.2541               955.7372              1034.6149
 Red. masses --      1.2711                 1.2692                 3.8884
 Frc consts  --      0.6834                 0.6830                 2.4523
 IR Inten    --      2.3760                 0.1572               473.8159

                     34                     35                     36
                      A                      A                      A
 Frequencies --   1040.3376              1062.7166              1072.8677
 Red. masses --      3.1503                 2.6402                 3.7031
 Frc consts  --      2.0089                 1.7568                 2.5114
 IR Inten    --      0.4550                17.4115                17.9975

                     37                     38                     39
                      A                      A                      A
 Frequencies --   1100.4780              1116.4597              1152.6589
 Red. masses --      1.6830                 1.6789                 1.2244
 Frc consts  --      1.2009                 1.2330                 0.9585
 IR Inten    --    267.2864                 9.2351                12.9391

                     40                     41                     42
                      A                      A                      A
 Frequencies --   1161.8329              1182.7367              1230.1568
 Red. masses --      1.1220                 3.0081                 2.2460
 Frc consts  --      0.8924                 2.4793                 2.0026
 IR Inten    --      0.1656                 1.0581               345.7879

                     43                     44                     45
                      A                      A                      A
 Frequencies --   1266.3974              1270.3840              1328.6379
 Red. masses --      2.5812                 1.6239                 6.9915
 Frc consts  --      2.4390                 1.5441                 7.2717
 IR Inten    --    317.6075                 2.3436                24.3127

                     46                     47                     48
                      A                      A                      A
 Frequencies --   1342.6537              1424.6677              1451.2806
 Red. masses --      6.0224                 1.9309                 2.3666
 Frc consts  --      6.3966                 2.3091                 2.9369
 IR Inten    --      0.1272               217.9644                 5.7074

                     49                     50                     51
                      A                      A                      A
 Frequencies --   1461.0344              1471.5823              1508.8756
 Red. masses --      2.6312                 2.8540                 5.4966
 Frc consts  --      3.3093                 3.6414                 7.3731
 IR Inten    --     38.8761                48.7599               241.8022

                     52                     53                     54
                      A                      A                      A
 Frequencies --   1534.6979              1553.7482              1558.2402
 Red. masses --      4.1354                 4.3050                 5.6660
 Frc consts  --      5.7387                 6.1233                 8.1057
 IR Inten    --     83.2763               227.0832                26.1456

                     55                     56                     57
                      A                      A                      A
 Frequencies --   1613.1663              3130.8216              3131.3976
 Red. masses --      5.8591                 1.0840                 1.0844
 Frc consts  --      8.9834                 6.2604                 6.2647
 IR Inten    --      5.9135                38.6960                 3.4378

                     58                     59                     60
                      A                      A                      A
 Frequencies --   3138.4041              3138.8695              3165.3159
 Red. masses --      1.0889                 1.0888                 1.0943
 Frc consts  --      6.3189                 6.3206                 6.4597
 IR Inten    --     48.8413                37.8710                79.4296

                     61                     62                     63
                      A                      A                      A
 Frequencies --   3165.7199              3190.6996              3191.2557
 Red. masses --      1.0943                 1.0904                 1.0906
 Frc consts  --      6.4612                 6.5404                 6.5441
 IR Inten    --     17.2819                 7.2431                 4.6060

 - Thermochemistry -
 -------------------
 Temperature   298.150 Kelvin.  Pressure   1.00000 Atm.
 Atom     1 has atomic number  8 and mass  15.99491

 Molecular mass:   212.02959 amu.
 Principal axes and moments of inertia in atomic units:
                           1         2         3
     Eigenvalues --  1487.043314293.680385780.72366
           X            0.99371   0.05607   0.09693
           Y           -0.06766   0.99038   0.12069
           Z           -0.08923  -0.12649   0.98795
 This molecule is an asymmetric top.
 Rotational symmetry number  1.
 Warning -- assumption of classical behavior for rotation
           may cause significant error
 Rotational temperatures (Kelvin)      0.05825     0.02017     0.01498
 Rotational constants (GHZ):           1.21364     0.42032     0.31220
    1 imaginary frequencies ignored.
 Zero-point vibrational energy     436144.1 (Joules/Mol)
                                  104.24094 (Kcal/Mol)
 Warning -- explicit consideration of  16 degrees of freedom as
           vibrations may cause significant error
 Vibrational temperatures:    141.91   181.94   255.57   321.67   338.37
          (Kelvin)            457.51   480.81   528.51   592.74   628.97
                              636.20   676.69   695.37   728.02   845.56
                              891.39   907.31   964.86  1003.02  1008.06
                             1020.16  1041.87  1053.36  1119.62  1195.99
                             1197.47  1250.94  1253.54  1335.26  1374.40
                             1375.09  1488.58  1496.81  1529.01  1543.62
                             1583.34  1606.34  1658.42  1671.62  1701.69
                             1769.92  1822.06  1827.80  1911.61  1931.78
                             2049.78  2088.07  2102.10  2117.28  2170.94
                             2208.09  2235.50  2241.96  2320.99  4504.55
                             4505.38  4515.46  4516.13  4554.18  4554.76
                             4590.71  4591.51

 Zero-point correction=                           0.166119 (Hartree/Particle)
 Thermal correction to Energy=                    0.176604
 Thermal correction to Enthalpy=                  0.177549
 Thermal correction to Gibbs Free Energy=         0.129376
 Sum of electronic and zero-point Energies=           -973.666721
 Sum of electronic and thermal Energies=              -973.656235
 Sum of electronic and thermal Enthalpies=            -973.655291
 Sum of electronic and thermal Free Energies=         -973.703463

                     E (Thermal)             CV                S
                      KCal/Mol        Cal/Mol-Kelvin    Cal/Mol-Kelvin
 Total                  110.821             44.328            101.387
 Electronic               0.000              0.000              1.377
 Translational            0.889              2.981             41.958
 Rotational               0.889              2.981             31.979
 Vibrational            109.043             38.366             26.073
 Vibration     1          0.604              1.950              3.481
 Vibration     2          0.611              1.927              2.999
 Vibration     3          0.628              1.870              2.353
 Vibration     4          0.649              1.805              1.930
 Vibration     5          0.655              1.787              1.839
 Vibration     6          0.704              1.639              1.320
 Vibration     7          0.716              1.607              1.240
 Vibration     8          0.740              1.539              1.091
 Vibration     9          0.776              1.444              0.920
 Vibration    10          0.797              1.389              0.836
 Vibration    11          0.802              1.378              0.820
 Vibration    12          0.827              1.316              0.737
 Vibration    13          0.839              1.287              0.701
 Vibration    14          0.861              1.237              0.643
 Vibration    15          0.945              1.058              0.471
 Vibration    16          0.980              0.991              0.417

                           ! Non-Optimized Parameters !
 Normal termination of Gaussian 16 at Sat Jan  6 02:39:45 2024.
