 Gaussian 16, Revision A.03,
 Gaussian 16:  ES64L-G16RevA.03 25-Dec-2016

 ----------------------------------------------------------------
 #P UB3LYP/6-311++G(d,p) SCRF=(PCM,Solvent=n,n-DiMethylFormamide)
 ----------------------------------------------------------------

 -------
 Reduced
 -------
 Symbolic Z-matrix:
 Charge = -2 Multiplicity = 1

                         Standard orientation:
 ---------------------------------------------------------------------
 Center     Atomic      Atomic             Coordinates (Angstroms)
 Number     Number       Type             X           Y           Z
 ---------------------------------------------------------------------
      1          6           0       -1.474074    1.918220    0.010951
      2          6           0       -0.704365    0.616958    0.012552
      3          6           0        0.704401    0.616864   -0.012699
      4          6           0        1.474283    1.918074   -0.010935
      5          6           0        1.483647   -0.598806   -0.008831
      6          8           0        2.787083   -0.611963    0.010437
      7          6           0        0.696937   -1.792856   -0.007573
      8          6           0       -0.697111   -1.792792    0.007552
      9          6           0       -1.483719   -0.598682    0.008789
     10          8           0       -2.787173   -0.611808   -0.010338
     11          1           0       -2.516486    1.704710    0.261062
     12          1           0       -1.474551    2.416554   -0.980680
     13          1           0       -1.065385    2.650875    0.716810
     14          1           0        1.476543    2.415194    0.981302
     15          1           0        1.064542    2.651536   -0.715278
     16          1           0        2.516285    1.704714   -0.262897
     17          1           0        1.243543   -2.737695    0.002357
     18          1           0       -1.243765   -2.737597   -0.002294
 ---------------------------------------------------------------------

 SCF Done:  E(UB3LYP) =  -460.472666970     A.U. after   16 cycles

 The electronic state is 1-A.
 Alpha  occ. eigenvalues --  -19.00426 -19.00425 -10.15531 -10.15529 -10.13149
 Alpha  occ. eigenvalues --  -10.13149 -10.11919 -10.11871 -10.11139 -10.11085
 Alpha  occ. eigenvalues --   -0.91547  -0.91206  -0.77591  -0.72302  -0.69027
 Alpha  occ. eigenvalues --   -0.62174  -0.61716  -0.52439  -0.50277  -0.43859
 Alpha  occ. eigenvalues --   -0.41272  -0.39746  -0.38472  -0.36786  -0.35597
 Alpha  occ. eigenvalues --   -0.35561  -0.34632  -0.34229  -0.32844  -0.30121
 Alpha  occ. eigenvalues --   -0.29538  -0.29508  -0.21347  -0.19245  -0.18686
 Alpha  occ. eigenvalues --   -0.18146  -0.10689
 Alpha virt. eigenvalues --    0.00095   0.01418   0.01908   0.03130   0.03429
 Alpha virt. eigenvalues --    0.03649   0.04411   0.05496   0.06575   0.06789
 Alpha virt. eigenvalues --    0.07100   0.07785   0.08897   0.09648   0.09666

  Beta  occ. eigenvalues --  -19.00426 -19.00425 -10.15531 -10.15529 -10.13149
  Beta  occ. eigenvalues --  -10.13149 -10.11919 -10.11871 -10.11139 -10.11085
  Beta  occ. eigenvalues --   -0.91547  -0.91206  -0.77591  -0.72302  -0.69027
  Beta  occ. eigenvalues --   -0.62174  -0.61716  -0.52439  -0.50277  -0.43859
  Beta  occ. eigenvalues --   -0.41272  -0.39746  -0.38472  -0.36786  -0.35597
  Beta  occ. eigenvalues --   -0.35561  -0.34632  -0.34229  -0.32844  -0.30121
  Beta  occ. eigenvalues --   -0.29538  -0.29508  -0.21347  -0.19245  -0.18686
  Beta  occ. eigenvalues --   -0.18146  -0.10689
  Beta virt. eigenvalues --    0.00095   0.01418   0.01908   0.03130   0.03429
  Beta virt. eigenvalues --    0.03649   0.04411   0.05496   0.06575   0.06789
  Beta virt. eigenvalues --    0.07100   0.07785   0.08897   0.09648   0.09666

 Mulliken charges and spin densities:
               1          2
     1  C   -0.535420  -0.000000
     2  C    0.620412  -0.000000
     3  C    0.622150  -0.000000
     4  C   -0.535328  -0.000000
     5  C   -0.899449   0.000000
     6  O   -0.745376  -0.000000
     7  C    0.024400   0.000000
     8  C    0.024277  -0.000000
     9  C   -0.900619   0.000000
    10  O   -0.745397  -0.000000
    11  H    0.156809  -0.000000
    12  H    0.135637  -0.000000
    13  H    0.126855   0.000000
    14  H    0.135688  -0.000000
    15  H    0.126793   0.000000
    16  H    0.156730   0.000000
    17  H    0.115916   0.000000
    18  H    0.115923  -0.000000
 Sum of Mulliken charges =  -2.00000   0.00000

 Dipole moment (field-independent basis, Debye):
    X=              0.0004    Y=              6.1013    Z=             -0.0001  Tot=              6.1013
 Quadrupole moment (field-independent basis, Debye-Ang):
   XX=           -133.5737   YY=            -76.2088   ZZ=            -69.6099
   XY=              0.0011   XZ=             -0.2047   YZ=             -0.0001

 Normal termination of Gaussian 16 at Sun Jan 21 07:42:44 2024.
