 Gaussian 16, Revision A.03,
 Gaussian 16:  ES64L-G16RevA.03 25-Dec-2016

 ----------------------------------------------------------------------
 #P UB3LYP/6-311++G(d,p) nosym opt freq SCRF=(PCM,Solvent=n,n-DiMethylF
 ormamide)
 ----------------------------------------------------------------------

 -------
 Radical
 -------
 Symbolic Z-matrix:
 Charge = -1 Multiplicity = 2

 SCF Done:  E(UB3LYP) =  -1454.65513242     A.U. after   19 cycles
 SCF Done:  E(UB3LYP) =  -1454.65534078     A.U. after   13 cycles
 SCF Done:  E(UB3LYP) =  -1454.65534419     A.U. after   13 cycles
 SCF Done:  E(UB3LYP) =  -1454.65536845     A.U. after   12 cycles
 SCF Done:  E(UB3LYP) =  -1454.65537615     A.U. after   12 cycles
 Optimization completed.
    -- Stationary point found.
 Normal termination of Gaussian 16 at Sun Feb 11 00:46:44 2024.

 ----------------------------------------------------------------------
 #P Geom=AllCheck Guess=TCheck SCRF=Check GenChk UB3LYP/6-311++G(d,p) F
 req
 ----------------------------------------------------------------------

 Structure from the checkpoint file:  "232-rad.chk"
 -------
 Radical
 -------
 Charge = -1 Multiplicity = 2

                          Input orientation:
 ---------------------------------------------------------------------
 Center     Atomic      Atomic             Coordinates (Angstroms)
 Number     Number       Type             X           Y           Z
 ---------------------------------------------------------------------
      1          6           0        5.912634   -5.214191    1.113459
      2          6           0        6.803334   -5.085156    0.066957
      3          6           0        6.591608   -4.099138   -0.919026
      4          6           0        4.790138   -4.375025    1.216199
      5          6           0        4.577143   -3.382971    0.223824
      6          6           0        5.494306   -3.266212   -0.834328
      7          6           0        3.857795   -4.536779    2.345403
      8          6           0        2.742178   -3.635450    2.364539
      9          6           0        2.535170   -2.672875    1.400874
     10          6           0        3.415896   -2.478621    0.285655
     11          8           0        4.040724   -5.418201    3.234381
     12          8           0        3.220591   -1.591449   -0.594860
     13          1           0        6.069584   -5.968825    1.873120
     14          1           0        5.325575   -2.507192   -1.587144
     15         17           0        7.705718   -3.907507   -2.264611
     16         17           0        8.190275   -6.161854   -0.009951
     17          1           0        2.044277   -3.739925    3.189629
     18          1           0        1.673303   -2.015429    1.462930
 ---------------------------------------------------------------------

 SCF Done:  E(UB3LYP) =  -1454.65537615     A.U. after    2 cycles

 Alpha  occ. eigenvalues -- -101.56404-101.56403 -19.08262 -19.08259 -10.25078
 Alpha  occ. eigenvalues --  -10.25031 -10.22886 -10.22881 -10.19132 -10.19127
 Alpha  occ. eigenvalues --  -10.18817 -10.18771 -10.16922 -10.16861  -9.47864
 Alpha  occ. eigenvalues --   -9.47862  -7.24323  -7.24322  -7.23357  -7.23356
 Alpha  occ. eigenvalues --   -7.23304  -7.23303  -1.00502  -1.00235  -0.91889
 Alpha  occ. eigenvalues --   -0.86474  -0.85214  -0.80213  -0.76092  -0.73676
 Alpha  occ. eigenvalues --   -0.68231  -0.63521  -0.61619  -0.57487  -0.51500
 Alpha  occ. eigenvalues --   -0.50904  -0.49127  -0.46319  -0.44676  -0.43746
 Alpha  occ. eigenvalues --   -0.43358  -0.43052  -0.40926  -0.40347  -0.40319
 Alpha  occ. eigenvalues --   -0.38311  -0.36995  -0.36314  -0.35531  -0.33690
 Alpha  occ. eigenvalues --   -0.33003  -0.31764  -0.28191  -0.26618  -0.25382
 Alpha  occ. eigenvalues --   -0.25075  -0.24518  -0.16198
 Alpha virt. eigenvalues --   -0.04915  -0.03024  -0.01319  -0.00025   0.01286
 Alpha virt. eigenvalues --    0.01475   0.02735   0.03864   0.03957   0.03976
 Alpha virt. eigenvalues --    0.04787   0.05119   0.05386   0.06885   0.06987

  Beta  occ. eigenvalues -- -101.56402-101.56401 -19.07607 -19.07604 -10.25042
  Beta  occ. eigenvalues --  -10.24994 -10.22743 -10.22738 -10.19131 -10.19126
  Beta  occ. eigenvalues --  -10.18761 -10.18714 -10.16773 -10.16711  -9.47862
  Beta  occ. eigenvalues --   -9.47860  -7.24323  -7.24322  -7.23349  -7.23348
  Beta  occ. eigenvalues --   -7.23303  -7.23302  -0.99373  -0.99070  -0.91817
  Beta  occ. eigenvalues --   -0.86437  -0.84958  -0.79742  -0.75933  -0.73486
  Beta  occ. eigenvalues --   -0.67252  -0.63424  -0.61289  -0.57185  -0.51385
  Beta  occ. eigenvalues --   -0.50665  -0.48814  -0.46157  -0.44633  -0.43472
  Beta  occ. eigenvalues --   -0.42802  -0.42735  -0.40355  -0.40161  -0.39059
  Beta  occ. eigenvalues --   -0.36781  -0.36060  -0.36040  -0.35026  -0.33672
  Beta  occ. eigenvalues --   -0.32305  -0.31747  -0.26021  -0.25286  -0.24828
  Beta  occ. eigenvalues --   -0.24460  -0.23918
  Beta virt. eigenvalues --   -0.09433  -0.04267  -0.01876  -0.01282  -0.00002
  Beta virt. eigenvalues --    0.01297   0.01498   0.02765   0.03979   0.04013
  Beta virt. eigenvalues --    0.04817   0.05099   0.05631   0.05705   0.06905

 Mulliken charges and spin densities:
               1          2
     1  C   -0.704496   0.032439
     2  C    0.683005   0.016502
     3  C    0.680827   0.016605
     4  C   -0.323593   0.020208
     5  C   -0.323955   0.020324
     6  C   -0.704447   0.032325
     7  C   -0.710817   0.083242
     8  C    0.079828   0.121272
     9  C    0.081148   0.121377
    10  C   -0.711792   0.082963
    11  O   -0.483530   0.236280
    12  O   -0.483424   0.236208
    13  H    0.218363  -0.002366
    14  H    0.218563  -0.002367
    15  Cl   0.553471   0.002350
    16  Cl   0.553318   0.002339
    17  H    0.188753  -0.009852
    18  H    0.188776  -0.009848
 Sum of Mulliken charges =  -1.00000   1.00000

 Dipole moment (field-independent basis, Debye):
    X=            -21.0765    Y=             18.1239    Z=             -4.2717  Tot=             28.1237
 Quadrupole moment (field-independent basis, Debye-Ang):
   XX=           -202.4790   YY=           -185.7683   ZZ=           -123.3773
   XY=             87.2055   XZ=            -16.3306   YZ=             31.6886

  Exact polarizability: 266.932 -75.316 223.399 -67.266 -64.903 254.129
 Approx polarizability: 280.185 -78.010 257.471 -61.241 -84.161 287.476

                      1                      2                      3
                      A                      A                      A
 Frequencies --     61.0766                91.6838               131.7905
 Red. masses --     20.6588                 5.7531                12.8070
 Frc consts  --      0.0454                 0.0285                 0.1311
 IR Inten    --      0.0014                 6.8371                15.3342

                      4                      5                      6
                      A                      A                      A
 Frequencies --    171.6294               197.3303               214.3351
 Red. masses --     13.7418                30.8871                 5.7987
 Frc consts  --      0.2385                 0.7086                 0.1570
 IR Inten    --      0.1236                 1.0310                 0.0012

                      7                      8                      9
                      A                      A                      A
 Frequencies --    299.8309               300.0819               309.9838
 Red. masses --     17.4338                17.0302                 8.4288
 Frc consts  --      0.9234                 0.9035                 0.4772
 IR Inten    --      3.1197                 2.9709                 0.3696

                     10                     11                     12
                      A                      A                      A
 Frequencies --    336.8490               437.9304               443.3727
 Red. masses --      4.8277                 3.2587                11.1868
 Frc consts  --      0.3227                 0.3682                 1.2957
 IR Inten    --      0.0036                 8.8108                41.8541

                     13                     14                     15
                      A                      A                      A
 Frequencies --    459.4182               483.2590               544.0314
 Red. masses --      8.1416                12.2546                 8.0283
 Frc consts  --      1.0125                 1.6862                 1.4000
 IR Inten    --      4.9102                18.1786                 5.1481

                     16                     17                     18
                      A                      A                      A
 Frequencies --    554.6122               620.6949               633.1807
 Red. masses --      7.5620                 4.5297                 2.3885
 Frc consts  --      1.3705                 1.0282                 0.5642
 IR Inten    --      0.0004                 5.3020                 1.4901

                     19                     20                     21
                      A                      A                      A
 Frequencies --    653.2186               658.0261               727.4832
 Red. masses --      7.5330                 5.4374                 6.7084
 Frc consts  --      1.8938                 1.3872                 2.0918
 IR Inten    --     88.5711                 0.1586                 0.0891

                     22                     23                     24
                      A                      A                      A
 Frequencies --    782.4854               786.3065               830.7133
 Red. masses --      5.4621                 7.3235                 1.8532
 Frc consts  --      1.9704                 2.6678                 0.7535
 IR Inten    --      0.0057               103.3760                93.4009

                     25                     26                     27
                      A                      A                      A
 Frequencies --    884.5842               904.8023               928.1268
 Red. masses --      7.8082                 1.4132                 1.4415
 Frc consts  --      3.5998                 0.6816                 0.7316
 IR Inten    --    117.6231                 0.0513                33.8765

                     28                     29                     30
                      A                      A                      A
 Frequencies --    945.9516              1067.5086              1092.7463
 Red. masses --      1.2899                 2.1743                 5.1076
 Frc consts  --      0.6800                 1.4598                 3.5934
 IR Inten    --      0.0119                15.1488                17.7038

                     31                     32                     33
                      A                      A                      A
 Frequencies --   1112.7832              1175.8853              1229.6639
 Red. masses --      1.7141                 2.3843                 1.3190
 Frc consts  --      1.2506                 1.9424                 1.1751
 IR Inten    --     33.7309                73.6171                46.8071

                     34                     35                     36
                      A                      A                      A
 Frequencies --   1230.5048              1260.1606              1341.1621
 Red. masses --      3.6799                 2.8655                10.1930
 Frc consts  --      3.2828                 2.6811                10.8023
 IR Inten    --      4.8313                72.3568                 0.1483

                     37                     38                     39
                      A                      A                      A
 Frequencies --   1382.9057              1426.9135              1446.8829
 Red. masses --      2.7064                 7.9729                 2.8477
 Frc consts  --      3.0495                 9.5644                 3.5124
 IR Inten    --      1.0388               458.6935               285.8030

                     40                     41                     42
                      A                      A                      A
 Frequencies --   1480.7249              1512.1904              1526.4649
 Red. masses --      9.5270                 5.4660                 8.2536
 Frc consts  --     12.3070                 7.3643                11.3310
 IR Inten    --      5.8345              1418.5619                41.0051

                     43                     44                     45
                      A                      A                      A
 Frequencies --   1607.1596              1617.1126              3151.4085
 Red. masses --      7.4534                 7.8490                 1.0859
 Frc consts  --     11.3428                12.0932                 6.3540
 IR Inten    --      6.9098                27.6938                33.5168

                     46                     47                     48
                      A                      A                      A
 Frequencies --   3169.2242              3201.3254              3202.9637
 Red. masses --      1.0941                 1.0905                 1.0908
 Frc consts  --      6.4747                 6.5848                 6.5934
 IR Inten    --     36.2994                 1.2940                11.4694

 - Thermochemistry -
 -------------------
 Temperature   298.150 Kelvin.  Pressure   1.00000 Atm.
 Atom     1 has atomic number  6 and mass  12.00000

 Molecular mass:   225.95883 amu.
 Principal axes and moments of inertia in atomic units:
                           1         2         3
     Eigenvalues --  2039.296074599.628276638.92405
           X            0.83067   0.15027   0.53610
           Y           -0.29417  -0.69905   0.65176
           Z           -0.47271   0.69910   0.53647
 This molecule is an asymmetric top.
 Rotational symmetry number  1.
 Warning -- assumption of classical behavior for rotation
           may cause significant error
 Rotational temperatures (Kelvin)      0.04247     0.01883     0.01305
 Rotational constants (GHZ):           0.88498     0.39237     0.27184
 Zero-point vibrational energy     290862.9 (Joules/Mol)
                                   69.51790 (Kcal/Mol)
 Warning -- explicit consideration of  17 degrees of freedom as
           vibrations may cause significant error
 Vibrational temperatures:     87.88   131.91   189.62   246.94   283.91
          (Kelvin)            308.38   431.39   431.75   446.00   484.65
                              630.08   637.91   661.00   695.30   782.74
                              797.96   893.04   911.01   939.84   946.75
                             1046.69  1125.82  1131.32  1195.21  1272.72
                             1301.81  1335.37  1361.01  1535.91  1572.22
                             1601.05  1691.84  1769.21  1770.42  1813.09
                             1929.63  1989.69  2053.01  2081.74  2130.43
                             2175.70  2196.24  2312.34  2326.66  4534.17
                             4559.81  4605.99  4608.35

 Zero-point correction=                           0.110784 (Hartree/Particle)
 Thermal correction to Energy=                    0.121893
 Thermal correction to Enthalpy=                  0.122837
 Thermal correction to Gibbs Free Energy=         0.072170
 Sum of electronic and zero-point Energies=          -1454.544592
 Sum of electronic and thermal Energies=             -1454.533483
 Sum of electronic and thermal Enthalpies=           -1454.532539
 Sum of electronic and thermal Free Energies=        -1454.583206

                     E (Thermal)             CV                S
                      KCal/Mol        Cal/Mol-Kelvin    Cal/Mol-Kelvin
 Total                   76.489             42.438            106.637
 Electronic               0.000              0.000              1.377
 Translational            0.889              2.981             42.148
 Rotational               0.889              2.981             32.499
 Vibrational             74.711             36.476             30.613
 Vibration     1          0.597              1.973              4.422
 Vibration     2          0.602              1.955              3.624
 Vibration     3          0.612              1.922              2.920
 Vibration     4          0.626              1.877              2.418
 Vibration     5          0.637              1.844              2.158
 Vibration     6          0.644              1.819              2.006
 Vibration     7          0.692              1.674              1.418
 Vibration     8          0.693              1.674              1.416
 Vibration     9          0.699              1.655              1.362
 Vibration    10          0.718              1.602              1.227
 Vibration    11          0.798              1.387              0.833
 Vibration    12          0.803              1.376              0.816
 Vibration    13          0.817              1.340              0.768
 Vibration    14          0.839              1.287              0.701
 Vibration    15          0.899              1.153              0.557
 Vibration    16          0.910              1.130              0.535
 Vibration    17          0.981              0.988              0.415

 Optimization completed.
    -- Stationary point found.
 Normal termination of Gaussian 16 at Sun Feb 11 00:59:33 2024.
