 Q-Chem 5.4, Q-Chem, Inc., Pleasanton, CA (2021)
 Q-Chem 5.4.0 for Intel X86 EM64T Linux

User input:
--------------------------------------------------------------
$molecule
0 1
O                  0.0511760000     -2.1164010000     -1.4741680000
C                  0.0267900000     -1.1134560000     -0.7728640000
C                  1.3282650000     -0.5681610000     -0.2683820000
C                  2.3574340000     -1.5214090000     -0.1656140000
C                  3.6344950000     -1.1758740000      0.2433100000
C                  3.9272880000      0.1610320000      0.5271410000
C                  2.9338660000      1.1166240000      0.4121230000
C                  1.6121080000      0.7842250000      0.0392970000
C                  0.6716160000      1.8882200000     -0.0221680000
C                 -0.6761460000      1.8855800000     -0.0651720000
C                 -1.6143340000      0.7779060000     -0.0635990000
C                 -2.9584000000      1.1050930000      0.2244340000
C                 -3.9534390000      0.1456640000      0.2759800000
C                 -3.6380670000     -1.1900070000      0.0111570000
C                 -2.3362540000     -1.5305070000     -0.3156820000
C                 -1.3062910000     -0.5733000000     -0.3526150000
H                  2.1224180000     -2.5449060000     -0.4268270000
H                  4.4021720000     -1.9363100000      0.3277690000
H                  4.9263650000      0.4516200000      0.8318270000
H                  3.1634230000      2.1556830000      0.6218020000
H                  1.1395920000      2.8670350000      0.0322960000
H                 -1.1504950000      2.8625370000     -0.0408050000
H                 -3.2048160000      2.1431980000      0.4191840000
H                 -4.9709670000      0.4323300000      0.5165810000
H                 -4.4066410000     -1.9534030000      0.0464930000
H                 -2.0811570000     -2.5530120000     -0.5614970000
$end
$rem
MAX_SCF_CYCLES=200
BASIS  =  6-311++G(d,p)
GUI  =  2
JOB_TYPE  =  SP
METHOD  =  B3LYP
SOLVENT_METHOD = COSMO
$end
$solvent
dielectric 37.219
opticaldielectric 1.43
$end

--------------------------------------------------------------

             Standard Nuclear Orientation (Angstroms)
    I     Atom           X                Y                Z
 ----------------------------------------------------------------
    1      O      -0.0000131330     2.2410787081    -0.8920611440
    2      C       0.0000405575     1.1077081509    -0.4296848604
    3      C      -1.3179203212     0.4760435519    -0.0985280130
    4      C      -2.3479765803     1.3921533062     0.1810410534
    5      C      -3.6380987604     0.9762069891     0.4640101213
    6      C      -3.9424055604    -0.3876878147     0.4358362680
    7      C      -2.9476920952    -1.3030543291     0.1427121522
    8      C      -1.6140722701    -0.9083010031    -0.1066079348
    9      C      -0.6742593421    -1.9797583417    -0.3819966423
   10      C       0.6741911472    -1.9797522778    -0.3820088709
   11      C       1.6140162503    -0.9082990084    -0.1065863684
   12      C       2.9475736894    -1.3031090359     0.1429679407
   13      C       3.9423376835    -0.3877846643     0.4360370428
   14      C       3.6381813855     0.9761525830     0.4638196234
   15      C       2.3481186158     1.3921478321     0.1806817211
   16      C       1.3179869014     0.4760720331    -0.0987227353
   17      H      -2.1027512442     2.4459266480     0.1601331752
   18      H      -4.4065897576     1.7059909031     0.6910811126
   19      H      -4.9512548672    -0.7294910759     0.6378842899
   20      H      -3.1858486615    -2.3606572757     0.1101121217
   21      H      -1.1456469499    -2.9421526441    -0.5598662521
   22      H       1.1456108821    -2.9421239332    -0.5599131564
   23      H       3.1856250789    -2.3607458117     0.1106200677
   24      H       4.9511151849    -0.7296638338     0.6383142130
   25      H       4.4067294084     1.7059185788     0.6907636853
   26      H       2.1029881844     2.4459409508     0.1595369080
 ----------------------------------------------------------------

    9    -653.0045980210      1.91e-06  Convergence criterion met
 Total energy in the final basis set =     -653.0045980210
    5    -653.0176427534      4.86e-06  Convergence criterion met
 Total energy in the final basis set =     -653.0176427534

                    Orbital Energies (a.u.)
 --------------------------------------------------------------

 Alpha MOs
 -- Occupied --
-19.1198 -10.2774 -10.2082 -10.2082 -10.2021 -10.2021 -10.1910 -10.1902
-10.1884 -10.1884 -10.1874 -10.1874 -10.1870 -10.1870 -10.1855 -10.1855
 -1.0585  -0.8862  -0.8756  -0.8191  -0.7809  -0.7778  -0.7672  -0.7357
 -0.6651  -0.6584  -0.6173  -0.6125  -0.5813  -0.5716  -0.5184  -0.5057
 -0.4964  -0.4827  -0.4719  -0.4502  -0.4481  -0.4434  -0.4386  -0.4340
 -0.4131  -0.3951  -0.3886  -0.3840  -0.3683  -0.3668  -0.3591  -0.3494
 -0.3291  -0.2850  -0.2789  -0.2752  -0.2636  -0.2315

          Ground-State Mulliken Net Atomic Charges

     Atom                 Charge (a.u.)
  ----------------------------------------
      1 O                    -0.322758
      2 C                    -0.613757
      3 C                     0.735728
      4 C                    -0.028401
      5 C                    -0.548254
      6 C                    -0.344308
      7 C                    -0.223863
      8 C                     0.165443
      9 C                    -0.337558
     10 C                    -0.337747
     11 C                     0.164796
     12 C                    -0.223305
     13 C                    -0.344503
     14 C                    -0.548490
     15 C                    -0.028298
     16 C                     0.735787
     17 H                     0.212778
     18 H                     0.219234
     19 H                     0.215523
     20 H                     0.192909
     21 H                     0.209025
     22 H                     0.209288
     23 H                     0.193181
     24 H                     0.215468
     25 H                     0.219274
     26 H                     0.212810
  ----------------------------------------
  Sum of atomic charges =     0.000000

                    Cartesian Multipole Moments
 -----------------------------------------------------------------
    Charge (ESU x 10^10)
                 0.0000
    Dipole Moment (Debye)
         X       0.0013      Y      -4.2837      Z       1.9899
       Tot       4.7233
    Quadrupole Moments (Debye-Ang)
        XX     -67.0401     XY      -0.0008     YY     -87.9136
        XZ      -0.0002     YZ       6.5796     ZZ     -99.7357

 Total job time:  54.98s(wall), 374.70s(cpu)
        *  Thank you very much for using Q-Chem.  Have a nice day.  *
