 Gaussian 16, Revision A.03,
 Gaussian 16:  ES64L-G16RevA.03 25-Dec-2016

 ----------------------------------------------------------------
 #P UB3LYP/6-311++G(d,p) SCRF=(PCM,Solvent=n,n-DiMethylFormamide)
 ----------------------------------------------------------------

 ------------------
 Quinone PCM in DMF
 ------------------
 Symbolic Z-matrix:
 Charge =  0 Multiplicity = 1

                         Standard orientation:
 ---------------------------------------------------------------------
 Center     Atomic      Atomic             Coordinates (Angstroms)
 Number     Number       Type             X           Y           Z
 ---------------------------------------------------------------------
      1          7           0       -3.728297   -0.134667   -0.032823
      2          6           0       -2.437340    0.286554   -0.005777
      3          6           0       -2.129308    1.665705   -0.003035
      4         17           0       -3.450860    2.825035    0.005020
      5          6           0       -0.833988    2.123294   -0.003587
      6          6           0        0.232661    1.223916   -0.008390
      7          6           0        1.597497    1.813478   -0.005663
      8          8           0        1.763061    3.024824   -0.006114
      9          6           0        2.751167    0.879332    0.001072
     10          6           0        4.052329    1.391153    0.014293
     11          6           0        5.139371    0.526241    0.021376
     12          6           0        4.932998   -0.856479    0.014104
     13          6           0        3.642207   -1.370475   -0.000516
     14          6           0        2.541198   -0.506653   -0.006339
     15          6           0        1.170160   -1.105416   -0.024347
     16          8           0        1.045927   -2.315728   -0.052130
     17          6           0       -0.008944   -0.171135   -0.010377
     18          6           0       -1.339983   -0.615557   -0.005346
     19         35           0       -1.832320   -2.470968    0.014307
     20          1           0       -3.928258   -1.114640    0.085370
     21          1           0       -4.468111    0.534753    0.096642
     22          1           0       -0.617871    3.183304   -0.000125
     23          1           0        4.184121    2.465936    0.018884
     24          1           0        6.147757    0.924051    0.032225
     25          1           0        5.781673   -1.530982    0.019490
     26          1           0        3.462541   -2.437975   -0.007667
 ---------------------------------------------------------------------

 SCF Done:  E(UB3LYP) =  -3777.49702871     A.U. after   16 cycles

 The electronic state is 1-A.
 Alpha  occ. eigenvalues -- -482.84739-101.57693 -62.50018 -56.32063 -56.31676
 Alpha  occ. eigenvalues --  -56.31634 -19.13465 -19.12840 -14.35122 -10.29110
 Alpha  occ. eigenvalues --  -10.28234 -10.26961 -10.26146 -10.26126 -10.22938
 Alpha  occ. eigenvalues --  -10.21119 -10.21056 -10.20955 -10.20874 -10.19965
 Alpha  occ. eigenvalues --  -10.19913 -10.19837 -10.19833  -9.49147  -8.70997
 Alpha  occ. eigenvalues --   -7.25601  -7.24629  -7.24603  -6.54159  -6.52872
 Alpha  occ. eigenvalues --   -6.52766  -2.65248  -2.64899  -2.64820  -2.63796
 Alpha  occ. eigenvalues --   -2.63794  -1.07325  -1.06409  -0.97292  -0.90255
 Alpha  occ. eigenvalues --   -0.89125  -0.87720  -0.82782  -0.80371  -0.77991
 Alpha  occ. eigenvalues --   -0.76398  -0.75926  -0.69152  -0.66979  -0.64861
 Alpha  occ. eigenvalues --   -0.62651  -0.59505  -0.57752  -0.56495  -0.54706
 Alpha  occ. eigenvalues --   -0.52701  -0.50276  -0.49044  -0.48832  -0.46498
 Alpha  occ. eigenvalues --   -0.46262  -0.45950  -0.45343  -0.45025  -0.44308
 Alpha  occ. eigenvalues --   -0.43568  -0.43200  -0.42333  -0.39285  -0.38458
 Alpha  occ. eigenvalues --   -0.38381  -0.37099  -0.37029  -0.34426  -0.34337
 Alpha  occ. eigenvalues --   -0.32584  -0.32116  -0.28730  -0.28564  -0.27975
 Alpha  occ. eigenvalues --   -0.27233  -0.26846  -0.23893
 Alpha virt. eigenvalues --   -0.11924  -0.07728  -0.03968  -0.03522  -0.02980
 Alpha virt. eigenvalues --   -0.00775  -0.00060   0.00566   0.01102   0.01712
 Alpha virt. eigenvalues --    0.02410   0.02915   0.03394   0.03547   0.03762

  Beta  occ. eigenvalues -- -482.84739-101.57693 -62.50018 -56.32063 -56.31676
  Beta  occ. eigenvalues --  -56.31634 -19.13465 -19.12840 -14.35122 -10.29110
  Beta  occ. eigenvalues --  -10.28234 -10.26961 -10.26146 -10.26126 -10.22938
  Beta  occ. eigenvalues --  -10.21119 -10.21056 -10.20955 -10.20874 -10.19965
  Beta  occ. eigenvalues --  -10.19913 -10.19837 -10.19833  -9.49147  -8.70997
  Beta  occ. eigenvalues --   -7.25601  -7.24629  -7.24603  -6.54159  -6.52872
  Beta  occ. eigenvalues --   -6.52766  -2.65248  -2.64899  -2.64820  -2.63796
  Beta  occ. eigenvalues --   -2.63794  -1.07325  -1.06409  -0.97292  -0.90255
  Beta  occ. eigenvalues --   -0.89125  -0.87720  -0.82782  -0.80371  -0.77991
  Beta  occ. eigenvalues --   -0.76398  -0.75926  -0.69152  -0.66979  -0.64861
  Beta  occ. eigenvalues --   -0.62651  -0.59505  -0.57752  -0.56495  -0.54706
  Beta  occ. eigenvalues --   -0.52701  -0.50276  -0.49044  -0.48832  -0.46498
  Beta  occ. eigenvalues --   -0.46262  -0.45950  -0.45343  -0.45025  -0.44308
  Beta  occ. eigenvalues --   -0.43568  -0.43200  -0.42333  -0.39285  -0.38458
  Beta  occ. eigenvalues --   -0.38381  -0.37099  -0.37029  -0.34426  -0.34337
  Beta  occ. eigenvalues --   -0.32584  -0.32116  -0.28730  -0.28564  -0.27975
  Beta  occ. eigenvalues --   -0.27233  -0.26846  -0.23893
  Beta virt. eigenvalues --   -0.11924  -0.07728  -0.03968  -0.03522  -0.02980
  Beta virt. eigenvalues --   -0.00775  -0.00060   0.00566   0.01102   0.01712
  Beta virt. eigenvalues --    0.02410   0.02915   0.03394   0.03547   0.03762

 Mulliken charges and spin densities:
               1          2
     1  N   -0.198587  -0.000000
     2  C   -0.618171   0.000000
     3  C    0.825158  -0.000000
     4  Cl   0.473949   0.000000
     5  C   -0.086392  -0.000000
     6  C   -0.172964   0.000000
     7  C   -0.701660  -0.000000
     8  O   -0.284604   0.000000
     9  C    0.001631   0.000000
    10  C    0.126360   0.000000
    11  C   -0.404826   0.000000
    12  C   -0.469136   0.000000
    13  C    0.231568  -0.000000
    14  C    0.162238  -0.000000
    15  C   -1.133077  -0.000000
    16  O   -0.173430  -0.000000
    17  C    0.703032  -0.000000
    18  C    0.247615  -0.000000
    19  Br  -0.083812  -0.000000
    20  H    0.275906   0.000000
    21  H    0.269502  -0.000000
    22  H    0.222789   0.000000
    23  H    0.181522   0.000000
    24  H    0.209924   0.000000
    25  H    0.207032  -0.000000
    26  H    0.188434   0.000000
 Sum of Mulliken charges =  -0.00000  -0.00000

 Dipole moment (field-independent basis, Debye):
    X=             -1.0624    Y=             -0.9815    Z=              0.5139  Tot=              1.5350
 Quadrupole moment (field-independent basis, Debye-Ang):
   XX=            -89.4180   YY=           -142.6934   ZZ=           -131.0461
   XY=             -2.5583   XZ=             -1.6764   YZ=             -0.2965

 Normal termination of Gaussian 16 at Sun Jan 14 01:06:49 2024.
