 Q-Chem 5.4, Q-Chem, Inc., Pleasanton, CA (2021)
 Q-Chem 5.4.0 for Intel X86 EM64T Linux

User input:
--------------------------------------------------------------
$molecule
-2 1
C                 -0.7724700000      3.2755930000      0.6434780000
C                 -1.6326400000      3.3031230000     -0.4375830000
C                 -1.2151740000      2.7875640000     -1.6867160000
C                  0.5322020000      2.7380740000      0.5310080000
C                  0.9570950000      2.2129600000     -0.7370390000
C                  0.0584960000      2.2555070000     -1.8176690000
C                  1.4212390000      2.7149300000      1.6613920000
C                  2.7213410000      2.1465370000      1.4333080000
C                  3.1694460000      1.6368580000      0.2247250000
C                  2.2986660000      1.6378210000     -0.9269460000
O                  1.1524940000      3.1557370000      2.8411420000
O                  2.6677010000      1.1731800000     -2.0481090000
O                  3.5152560000      2.1565240000      2.5516840000
C                  4.5581940000      1.0695520000      0.0786040000
C                  4.6204150000     -0.4614490000      0.2490110000
C                  6.0302150000     -1.0335860000      0.0571920000
C                  6.1121400000     -2.5558070000      0.2259400000
C                  7.5209410000     -3.1307130000      0.0300050000
C                  7.5972530000     -4.6537970000      0.1928230000
C                  9.0016810000     -5.2353910000     -0.0131380000
C                  9.0638770000     -6.7599730000      0.1409420000
C                 10.4606670000     -7.3543170000     -0.0753430000
C                 10.4906460000     -8.8891220000      0.0634670000
C                 11.8507400000     -9.5090760000     -0.1710220000
C                 12.7025770000     -9.8292220000      0.8869780000
C                 12.3133030000     -9.7757020000     -1.4677280000
C                 13.5654310000    -10.3298250000     -1.6940810000
C                 14.4111230000    -10.6398710000     -0.6191650000
C                 13.9665720000    -10.3884640000      0.6817520000
O                 15.6226480000    -11.1668520000     -0.9554510000
C                 16.5618790000    -11.5712090000      0.0661000000
C                 16.1666430000    -12.9260580000      0.6969900000
C                 17.9275830000    -11.6428640000     -0.6086520000
C                 19.0407500000    -11.9751810000      0.4087420000
C                 18.5665000000    -12.9299940000      1.5288070000
C                 17.3897910000    -13.7938320000      1.0654570000
H                 -1.0708310000      3.6653090000      1.6110420000
H                 -2.6307310000      3.7205870000     -0.3285780000
H                 -1.8902390000      2.8081580000     -2.5381950000
H                  0.4064840000      1.8513940000     -2.7625420000
H                  2.9080150000      2.5812260000      3.2025290000
H                  5.2257900000      1.5365000000      0.8111750000
H                  4.9208600000      1.3149050000     -0.9258580000
H                  3.9369370000     -0.9152440000     -0.4765490000
H                  4.2510410000     -0.7250390000      1.2476520000
H                  6.7163750000     -0.5554830000      0.7704660000
H                  6.3936650000     -0.7625530000     -0.9433290000
H                  5.4258680000     -3.0328560000     -0.4860680000
H                  5.7477110000     -2.8278210000      1.2256030000
H                  8.2077820000     -2.6561940000      0.7436790000
H                  7.8861130000     -2.8563990000     -0.9687380000
H                  6.9051070000     -5.1259360000     -0.5170230000
H                  7.2365900000     -4.9280890000      1.1931070000
H                  9.6950770000     -4.7704800000      0.6999240000
H                  9.3643420000     -4.9584760000     -1.0117850000
H                  8.3633700000     -7.2209440000     -0.5683190000
H                  8.7047330000     -7.0362720000      1.1412870000
H                 11.1658620000     -6.9160500000      0.6411330000
H                 10.8280850000     -7.0770070000     -1.0708510000
H                  9.7691870000     -9.3183490000     -0.6427870000
H                 10.1369800000     -9.1610650000      1.0647460000
H                 12.3764370000     -9.6499000000      1.9076830000
H                 11.6761770000     -9.5505130000     -2.3186420000
H                 13.9135610000    -10.5364980000     -2.6998610000
H                 14.5806970000    -10.6292820000      1.5397820000
H                 16.5945900000    -10.7870040000      0.8317350000
H                 15.5310280000    -13.4592430000     -0.0180570000
H                 15.5591690000    -12.7555360000      1.5915040000
H                 18.1353640000    -10.6906640000     -1.1079770000
H                 17.8832500000    -12.4067710000     -1.3924940000
H                 19.4223710000    -11.0492690000      0.8547570000
H                 19.8838640000    -12.4210870000     -0.1303770000
H                 18.2535350000    -12.3502570000      2.4062030000
H                 19.3977750000    -13.5599540000      1.8667970000
H                 17.1104810000    -14.5137450000      1.8444690000
H                 17.7007640000    -14.3903510000      0.2001290000
$end
$rem
MAX_SCF_CYCLES=200
BASIS  =  6-311++G(d,p)
GUI  =  2
JOB_TYPE  =  SP
METHOD  =  B3LYP
SCF_ALGORITHM = RCA_DIIS
THRESH = 14
SOLVENT_METHOD = PCM
$end
$pcm
theory = CPCM
$end
$solvent
dielectric 37.219
opticaldielectric 1.43
$end

--------------------------------------------------------------

             Standard Nuclear Orientation (Angstroms)
    I     Atom           X                Y                Z
 ----------------------------------------------------------------
    1      C      -0.7724700000     3.2755930000     0.6434780000
    2      C      -1.6326400000     3.3031230000    -0.4375830000
    3      C      -1.2151740000     2.7875640000    -1.6867160000
    4      C       0.5322020000     2.7380740000     0.5310080000
    5      C       0.9570950000     2.2129600000    -0.7370390000
    6      C       0.0584960000     2.2555070000    -1.8176690000
    7      C       1.4212390000     2.7149300000     1.6613920000
    8      C       2.7213410000     2.1465370000     1.4333080000
    9      C       3.1694460000     1.6368580000     0.2247250000
   10      C       2.2986660000     1.6378210000    -0.9269460000
   11      O       1.1524940000     3.1557370000     2.8411420000
   12      O       2.6677010000     1.1731800000    -2.0481090000
   13      O       3.5152560000     2.1565240000     2.5516840000
   14      C       4.5581940000     1.0695520000     0.0786040000
   15      C       4.6204150000    -0.4614490000     0.2490110000
   16      C       6.0302150000    -1.0335860000     0.0571920000
   17      C       6.1121400000    -2.5558070000     0.2259400000
   18      C       7.5209410000    -3.1307130000     0.0300050000
   19      C       7.5972530000    -4.6537970000     0.1928230000
   20      C       9.0016810000    -5.2353910000    -0.0131380000
   21      C       9.0638770000    -6.7599730000     0.1409420000
   22      C      10.4606670000    -7.3543170000    -0.0753430000
   23      C      10.4906460000    -8.8891220000     0.0634670000
   24      C      11.8507400000    -9.5090760000    -0.1710220000
   25      C      12.7025770000    -9.8292220000     0.8869780000
   26      C      12.3133030000    -9.7757020000    -1.4677280000
   27      C      13.5654310000   -10.3298250000    -1.6940810000
   28      C      14.4111230000   -10.6398710000    -0.6191650000
   29      C      13.9665720000   -10.3884640000     0.6817520000
   30      O      15.6226480000   -11.1668520000    -0.9554510000
   31      C      16.5618790000   -11.5712090000     0.0661000000
   32      C      16.1666430000   -12.9260580000     0.6969900000
   33      C      17.9275830000   -11.6428640000    -0.6086520000
   34      C      19.0407500000   -11.9751810000     0.4087420000
   35      C      18.5665000000   -12.9299940000     1.5288070000
   36      C      17.3897910000   -13.7938320000     1.0654570000
   37      H      -1.0708310000     3.6653090000     1.6110420000
   38      H      -2.6307310000     3.7205870000    -0.3285780000
   39      H      -1.8902390000     2.8081580000    -2.5381950000
   40      H       0.4064840000     1.8513940000    -2.7625420000
   41      H       2.9080150000     2.5812260000     3.2025290000
   42      H       5.2257900000     1.5365000000     0.8111750000
   43      H       4.9208600000     1.3149050000    -0.9258580000
   44      H       3.9369370000    -0.9152440000    -0.4765490000
   45      H       4.2510410000    -0.7250390000     1.2476520000
   46      H       6.7163750000    -0.5554830000     0.7704660000
   47      H       6.3936650000    -0.7625530000    -0.9433290000
   48      H       5.4258680000    -3.0328560000    -0.4860680000
   49      H       5.7477110000    -2.8278210000     1.2256030000
   50      H       8.2077820000    -2.6561940000     0.7436790000
   51      H       7.8861130000    -2.8563990000    -0.9687380000
   52      H       6.9051070000    -5.1259360000    -0.5170230000
   53      H       7.2365900000    -4.9280890000     1.1931070000
   54      H       9.6950770000    -4.7704800000     0.6999240000
   55      H       9.3643420000    -4.9584760000    -1.0117850000
   56      H       8.3633700000    -7.2209440000    -0.5683190000
   57      H       8.7047330000    -7.0362720000     1.1412870000
   58      H      11.1658620000    -6.9160500000     0.6411330000
   59      H      10.8280850000    -7.0770070000    -1.0708510000
   60      H       9.7691870000    -9.3183490000    -0.6427870000
   61      H      10.1369800000    -9.1610650000     1.0647460000
   62      H      12.3764370000    -9.6499000000     1.9076830000
   63      H      11.6761770000    -9.5505130000    -2.3186420000
   64      H      13.9135610000   -10.5364980000    -2.6998610000
   65      H      14.5806970000   -10.6292820000     1.5397820000
   66      H      16.5945900000   -10.7870040000     0.8317350000
   67      H      15.5310280000   -13.4592430000    -0.0180570000
   68      H      15.5591690000   -12.7555360000     1.5915040000
   69      H      18.1353640000   -10.6906640000    -1.1079770000
   70      H      17.8832500000   -12.4067710000    -1.3924940000
   71      H      19.4223710000   -11.0492690000     0.8547570000
   72      H      19.8838640000   -12.4210870000    -0.1303770000
   73      H      18.2535350000   -12.3502570000     2.4062030000
   74      H      19.3977750000   -13.5599540000     1.8667970000
   75      H      17.1104810000   -14.5137450000     1.8444690000
   76      H      17.7007640000   -14.3903510000     0.2001290000
 ----------------------------------------------------------------

   83   -1545.0970125350      3.83E-06 Convergence criterion met
 Total energy in the final basis set = -1545.09701254

                    Orbital Energies (a.u.)
 --------------------------------------------------------------

 Alpha MOs
 -- Occupied --
-19.1488 -19.1124 -19.0265 -19.0193 -10.2331 -10.2242 -10.1742 -10.1729
-10.1719 -10.1717 -10.1715 -10.1703 -10.1687 -10.1632 -10.1620 -10.1618
-10.1613 -10.1607 -10.1606 -10.1589 -10.1581 -10.1550 -10.1539 -10.1530
-10.1520 -10.1506 -10.1482 -10.1461 -10.1442 -10.1431 -10.1428 -10.1415
-10.1397 -10.1333 -10.1296 -10.1216  -1.0629  -1.0278  -0.9456  -0.9374
 -0.8587  -0.8280  -0.8234  -0.8055  -0.7932  -0.7790  -0.7651  -0.7522
 -0.7471  -0.7386  -0.7342  -0.7202  -0.7189  -0.6986  -0.6732  -0.6460
 -0.6314  -0.6237  -0.6165  -0.6058  -0.5993  -0.5841  -0.5764  -0.5712
 -0.5671  -0.5630  -0.5517  -0.5384  -0.5342  -0.5301  -0.5022  -0.4899
 -0.4848  -0.4763  -0.4708  -0.4698  -0.4606  -0.4499  -0.4465  -0.4426
 -0.4359  -0.4284  -0.4259  -0.4252  -0.4226  -0.4185  -0.4164  -0.4120
 -0.4049  -0.4001  -0.3964  -0.3924  -0.3892  -0.3853  -0.3815  -0.3758
 -0.3730  -0.3716  -0.3666  -0.3623  -0.3588  -0.3561  -0.3543  -0.3512
 -0.3501  -0.3463  -0.3411  -0.3350  -0.3333  -0.3299  -0.3243  -0.3224
 -0.3210  -0.3176  -0.3161  -0.3155  -0.3140  -0.3121  -0.3100  -0.3067
 -0.3024  -0.2988  -0.2980  -0.2968  -0.2881  -0.2572  -0.2289  -0.2249
 -0.2182  -0.2152  -0.1974  -0.1916  -0.1043

          Ground-State Mulliken Net Atomic Charges

     Atom                 Charge (a.u.)
  ----------------------------------------
      1 C                    -0.096429
      2 C                    -0.409401
      3 C                    -0.516760
      4 C                     0.464003
      5 C                    -0.096945
      6 C                     0.001341
      7 C                    -0.906028
      8 C                    -0.630320
      9 C                     1.934710
     10 C                    -0.646072
     11 O                    -0.747385
     12 O                    -0.668220
     13 O                    -0.349994
     14 C                    -0.403274
     15 C                    -0.887008
     16 C                    -0.364918
     17 C                    -0.063238
     18 C                     0.009834
     19 C                     0.054092
     20 C                    -0.032346
     21 C                    -0.381212
     22 C                    -0.804171
     23 C                    -0.922274
     24 C                     1.383592
     25 C                    -0.344230
     26 C                    -0.515991
     27 C                    -0.123995
     28 C                    -0.388619
     29 C                    -0.110681
     30 O                    -0.046320
     31 C                    -0.019643
     32 C                    -0.054764
     33 C                    -0.603500
     34 C                    -0.505375
     35 C                    -0.294554
     36 C                    -0.475487
     37 H                     0.143107
     38 H                     0.169340
     39 H                     0.162752
     40 H                     0.143710
     41 H                     0.287124
     42 H                     0.203784
     43 H                     0.169975
     44 H                     0.176887
     45 H                     0.158606
     46 H                     0.112861
     47 H                     0.118041
     48 H                     0.125981
     49 H                     0.128524
     50 H                     0.136617
     51 H                     0.136816
     52 H                     0.136269
     53 H                     0.138639
     54 H                     0.130170
     55 H                     0.129710
     56 H                     0.131455
     57 H                     0.123029
     58 H                     0.167512
     59 H                     0.159070
     60 H                     0.179560
     61 H                     0.177199
     62 H                     0.210226
     63 H                     0.202536
     64 H                     0.209814
     65 H                     0.220575
     66 H                     0.203607
     67 H                     0.188993
     68 H                     0.136146
     69 H                     0.176730
     70 H                     0.184753
     71 H                     0.161068
     72 H                     0.163820
     73 H                     0.138625
     74 H                     0.187572
     75 H                     0.192176
     76 H                     0.138201
  ----------------------------------------
  Sum of atomic charges =    -2.000000

                    Cartesian Multipole Moments
 -----------------------------------------------------------------
    Charge (ESU x 10^10)
                -9.6064
    Dipole Moment (Debye)
         X     -16.3945      Y     -21.3446      Z      -1.1307
       Tot      26.9379
    Quadrupole Moments (Debye-Ang)
        XX    -248.8686     XY     -48.5608     YY    -278.8218
        XZ      31.9378     YZ     -41.9735     ZZ    -270.3722

 Total job time:  6341.95s(wall), 34719.20s(cpu)
        *  Thank you very much for using Q-Chem.  Have a nice day.  *
