 Gaussian 16, Revision A.03,
 Gaussian 16:  ES64L-G16RevA.03 25-Dec-2016

 ----------------------------------------------------------------
 #P UB3LYP/6-311++G(d,p) SCRF=(PCM,Solvent=n,n-DiMethylFormamide)
 ----------------------------------------------------------------

 ------------------
 Radical PCM in DMF
 ------------------
 Symbolic Z-matrix:
 Charge = -1 Multiplicity = 2

                         Standard orientation:
 ---------------------------------------------------------------------
 Center     Atomic      Atomic             Coordinates (Angstroms)
 Number     Number       Type             X           Y           Z
 ---------------------------------------------------------------------
      1          6           0       -4.973542   -1.282219    0.092839
      2          6           0       -3.551679   -1.563820    0.496512
      3          8           0       -3.150376   -1.692989    1.622192
      4          8           0       -2.772308   -1.708618   -0.615033
      5          6           0       -1.382123   -1.636356   -0.485991
      6          6           0       -0.701982   -2.818272   -0.657034
      7          6           0        0.699834   -2.818855   -0.656986
      8          6           0        1.380959   -1.637492   -0.486075
      9          8           0        2.771107   -1.711030   -0.614625
     10          6           0        3.550098   -1.565921    0.497157
     11          6           0        4.972392   -1.285877    0.093968
     12          8           0        3.148018   -1.693145    1.622779
     13          6           0        0.722372   -0.390833   -0.308833
     14          6           0        1.483060    0.855728   -0.167785
     15          8           0        2.738016    0.893533   -0.114786
     16          6           0        0.708615    2.095564   -0.095655
     17          6           0        1.395129    3.327130   -0.012500
     18          6           0        0.707597    4.521367    0.062061
     19          6           0       -0.703818    4.521893    0.062797
     20          6           0       -1.392296    3.328153   -0.011102
     21          6           0       -0.706757    2.096096   -0.095028
     22          6           0       -1.482155    0.856838   -0.166807
     23          8           0       -2.737033    0.895552   -0.113038
     24          6           0       -0.722495   -0.390277   -0.308561
     25          1           0       -5.010932   -0.238421   -0.226119
     26          1           0       -5.636147   -1.438877    0.942950
     27          1           0       -5.270923   -1.910639   -0.749222
     28          1           0       -1.264614   -3.733239   -0.796463
     29          1           0        1.261711   -3.734312   -0.796253
     30          1           0        5.010669   -0.242629   -0.226681
     31          1           0        5.269936   -1.915878   -0.746851
     32          1           0        5.634313   -1.441581    0.944789
     33          1           0        2.477947    3.294934   -0.007602
     34          1           0        1.250512    5.459735    0.123743
     35          1           0       -1.245978    5.460657    0.125070
     36          1           0       -2.475133    3.296760   -0.005139
 ---------------------------------------------------------------------

 SCF Done:  E(UB3LYP) =  -1144.98110208     A.U. after   17 cycles

 The electronic state is 2-A.
 Alpha  occ. eigenvalues --  -19.17237 -19.17236 -19.12030 -19.12030 -19.07957
 Alpha  occ. eigenvalues --  -19.07956 -10.31247 -10.31246 -10.24354 -10.24352
 Alpha  occ. eigenvalues --  -10.23322 -10.23321 -10.19263 -10.19225 -10.18237
 Alpha  occ. eigenvalues --  -10.18185 -10.17649 -10.17603 -10.17586 -10.17539
 Alpha  occ. eigenvalues --  -10.17297 -10.17296 -10.17227 -10.17226  -1.11692
 Alpha  occ. eigenvalues --   -1.11661  -1.03729  -1.03672  -1.00927  -1.00697
 Alpha  occ. eigenvalues --   -0.87235  -0.85795  -0.79560  -0.78847  -0.75641
 Alpha  occ. eigenvalues --   -0.75329  -0.74941  -0.72939  -0.68113  -0.66070
 Alpha  occ. eigenvalues --   -0.63343  -0.63245  -0.59993  -0.57842  -0.54592
 Alpha  occ. eigenvalues --   -0.54241  -0.51496  -0.50170  -0.49827  -0.49402
 Alpha  occ. eigenvalues --   -0.48693  -0.48591  -0.47174  -0.47055  -0.46308
 Alpha  occ. eigenvalues --   -0.45183  -0.44465  -0.42848  -0.42659  -0.42115
 Alpha  occ. eigenvalues --   -0.41823  -0.41205  -0.41177  -0.40380  -0.40315
 Alpha  occ. eigenvalues --   -0.39682  -0.38499  -0.38222  -0.38075  -0.37695
 Alpha  occ. eigenvalues --   -0.36213  -0.35732  -0.34458  -0.34080  -0.32850
 Alpha  occ. eigenvalues --   -0.32161  -0.29270  -0.29057  -0.27568  -0.25890
 Alpha  occ. eigenvalues --   -0.25634  -0.25598  -0.24909  -0.23832  -0.14748
 Alpha virt. eigenvalues --   -0.05910  -0.03012  -0.01080  -0.00409  -0.00302
 Alpha virt. eigenvalues --    0.00139   0.00320   0.00540   0.01594   0.02229
 Alpha virt. eigenvalues --    0.02680   0.03496   0.03546   0.04029   0.04084

  Beta  occ. eigenvalues --  -19.17233 -19.17233 -19.12030 -19.12029 -19.07397
  Beta  occ. eigenvalues --  -19.07396 -10.31245 -10.31244 -10.24351 -10.24349
  Beta  occ. eigenvalues --  -10.23161 -10.23160 -10.19164 -10.19125 -10.18165
  Beta  occ. eigenvalues --  -10.18113 -10.17591 -10.17551 -10.17544 -10.17503
  Beta  occ. eigenvalues --  -10.17297 -10.17297 -10.17223 -10.17222  -1.11681
  Beta  occ. eigenvalues --   -1.11651  -1.03714  -1.03660  -0.99968  -0.99712
  Beta  occ. eigenvalues --   -0.86988  -0.85668  -0.79152  -0.78745  -0.75630
  Beta  occ. eigenvalues --   -0.75146  -0.74759  -0.72831  -0.67413  -0.66000
  Beta  occ. eigenvalues --   -0.63193  -0.62974  -0.59909  -0.57711  -0.54347
  Beta  occ. eigenvalues --   -0.54097  -0.51374  -0.50125  -0.49816  -0.49324
  Beta  occ. eigenvalues --   -0.48655  -0.48353  -0.47058  -0.47004  -0.46152
  Beta  occ. eigenvalues --   -0.45129  -0.44382  -0.42625  -0.42182  -0.41902
  Beta  occ. eigenvalues --   -0.41530  -0.40885  -0.40727  -0.40238  -0.40106
  Beta  occ. eigenvalues --   -0.39539  -0.38175  -0.37890  -0.37851  -0.36240
  Beta  occ. eigenvalues --   -0.35946  -0.35547  -0.33978  -0.33339  -0.32689
  Beta  occ. eigenvalues --   -0.32096  -0.29249  -0.29037  -0.25600  -0.25416
  Beta  occ. eigenvalues --   -0.24944  -0.24771  -0.24380  -0.23333
  Beta virt. eigenvalues --   -0.08899  -0.04919  -0.01942  -0.00904  -0.00391
  Beta virt. eigenvalues --   -0.00256   0.00211   0.00327   0.00551   0.01597
  Beta virt. eigenvalues --    0.02228   0.02710   0.03522   0.03550   0.04050

 Mulliken charges and spin densities:
               1          2
     1  C   -0.467875   0.002575
     2  C    0.060784  -0.001413
     3  O   -0.283956  -0.000677
     4  O    0.003279  -0.001024
     5  C   -0.593305   0.035839
     6  C    0.054093   0.055432
     7  C    0.053836   0.055430
     8  C   -0.593810   0.035841
     9  O    0.003258  -0.001028
    10  C    0.060517  -0.001407
    11  C   -0.467853   0.002576
    12  O   -0.283920  -0.000675
    13  C    0.694019   0.049476
    14  C   -0.440341   0.072830
    15  O   -0.410409   0.212357
    16  C    0.235784   0.022593
    17  C   -0.060379   0.031321
    18  C   -0.386037   0.028978
    19  C   -0.385931   0.028987
    20  C   -0.060606   0.031320
    21  C    0.236141   0.022609
    22  C   -0.440659   0.072823
    23  O   -0.410425   0.212339
    24  C    0.694325   0.049534
    25  H    0.198015  -0.000498
    26  H    0.162744  -0.000244
    27  H    0.174435   0.000324
    28  H    0.210674  -0.004488
    29  H    0.210668  -0.004486
    30  H    0.198003  -0.000497
    31  H    0.174429   0.000324
    32  H    0.162750  -0.000243
    33  H    0.161325  -0.000997
    34  H    0.187559  -0.002417
    35  H    0.187562  -0.002417
    36  H    0.161304  -0.000997
 Sum of Mulliken charges =  -1.00000   1.00000

 Dipole moment (field-independent basis, Debye):
    X=              0.0005    Y=             -1.2108    Z=             -4.2446  Tot=              4.4139
 Quadrupole moment (field-independent basis, Debye-Ang):
   XX=           -154.2115   YY=           -137.5111   ZZ=           -157.1246
   XY=             -0.0081   XZ=              0.0193   YZ=             10.3256

 Normal termination of Gaussian 16 at Sun Jan 14 01:22:36 2024.
