 Gaussian 16, Revision A.03,
 Gaussian 16:  ES64L-G16RevA.03 25-Dec-2016

 --------------------------------------
 #P UB3LYP/6-311++G(d,p) nosym opt freq
 --------------------------------------

 -------
 Radical
 -------
 Symbolic Z-matrix:
 Charge = -1 Multiplicity = 2

 SCF Done:  E(UB3LYP) =  -1144.90461576     A.U. after   19 cycles
 SCF Done:  E(UB3LYP) =  -1144.90461574     A.U. after    9 cycles
 Optimization completed.
    -- Stationary point found.
 Normal termination of Gaussian 16 at Wed Dec 27 20:09:52 2023.

 ----------------------------------------------------------------------
 #P Geom=AllCheck Guess=TCheck SCRF=Check GenChk UB3LYP/6-311++G(d,p) F
 req
 ----------------------------------------------------------------------

 Structure from the checkpoint file:  "145-rad.chk"
 -------
 Radical
 -------
 Charge = -1 Multiplicity = 2

                          Input orientation:
 ---------------------------------------------------------------------
 Center     Atomic      Atomic             Coordinates (Angstroms)
 Number     Number       Type             X           Y           Z
 ---------------------------------------------------------------------
      1          6           0       -4.982977   -1.226717   -0.606174
      2          6           0       -3.581053   -1.676721   -0.296252
      3          8           0       -3.228402   -2.251291    0.698931
      4          8           0       -2.756251   -1.385080   -1.344376
      5          6           0       -1.372372   -1.400632   -1.146575
      6          6           0       -0.692311   -2.431952   -1.748796
      7          6           0        0.708226   -2.463339   -1.697804
      8          6           0        1.388196   -1.462417   -1.046225
      9          8           0        2.782095   -1.509386   -1.142573
     10          6           0        3.514230   -1.835113   -0.037212
     11          6           0        4.953850   -1.449289   -0.243470
     12          8           0        3.064242   -2.390205    0.929361
     13          6           0        0.729773   -0.374638   -0.411775
     14          6           0        1.490864    0.696213    0.241274
     15          8           0        2.742655    0.682236    0.350719
     16          6           0        0.721091    1.822043    0.772422
     17          6           0        1.410436    2.903771    1.363725
     18          6           0        0.727136    3.984889    1.882132
     19          6           0       -0.683024    4.016124    1.831485
     20          6           0       -1.374509    2.965465    1.263646
     21          6           0       -0.693018    1.853414    0.721533
     22          6           0       -1.471691    0.762065    0.134353
     23          8           0       -2.727481    0.803821    0.153232
     24          6           0       -0.713789   -0.342455   -0.464056
     25          1           0       -5.000952   -0.141567   -0.484631
     26          1           0       -5.681780   -1.693619    0.086612
     27          1           0       -5.248069   -1.462145   -1.638992
     28          1           0       -1.253718   -3.203591   -2.261197
     29          1           0        1.270296   -3.260227   -2.169195
     30          1           0        5.011541   -0.365636   -0.120933
     31          1           0        5.283080   -1.699747   -1.254058
     32          1           0        5.578344   -1.944732    0.498704
     33          1           0        2.491881    2.848470    1.394939
     34          1           0        1.272262    4.809320    2.331852
     35          1           0       -1.222010    4.864551    2.242289
     36          1           0       -2.456791    2.958113    1.217087
 ---------------------------------------------------------------------

 SCF Done:  E(UB3LYP) =  -1144.90461574     A.U. after    1 cycles

 Alpha  occ. eigenvalues --  -19.05903 -19.05902 -19.00422 -19.00422 -18.95986
 Alpha  occ. eigenvalues --  -18.95985 -10.19971 -10.19970 -10.12993 -10.12991
 Alpha  occ. eigenvalues --  -10.11422 -10.11421 -10.07694 -10.07694 -10.07607
 Alpha  occ. eigenvalues --  -10.07569 -10.07200 -10.07149 -10.06895 -10.06847
 Alpha  occ. eigenvalues --  -10.06196 -10.06178 -10.06147 -10.06119  -1.00262
 Alpha  occ. eigenvalues --   -1.00230  -0.92143  -0.92089  -0.88876  -0.88632
 Alpha  occ. eigenvalues --   -0.75775  -0.74585  -0.68217  -0.67922  -0.65430
 Alpha  occ. eigenvalues --   -0.64130  -0.63746  -0.62432  -0.56600  -0.55142
 Alpha  occ. eigenvalues --   -0.52214  -0.52002  -0.48994  -0.46668  -0.43405
 Alpha  occ. eigenvalues --   -0.43078  -0.39932  -0.39073  -0.38801  -0.38427
 Alpha  occ. eigenvalues --   -0.37417  -0.37214  -0.36232  -0.36070  -0.35305
 Alpha  occ. eigenvalues --   -0.34365  -0.33591  -0.31714  -0.31556  -0.31390
 Alpha  occ. eigenvalues --   -0.30981  -0.30439  -0.29830  -0.29680  -0.29123
 Alpha  occ. eigenvalues --   -0.28651  -0.27454  -0.27208  -0.26959  -0.26229
 Alpha  occ. eigenvalues --   -0.24903  -0.24712  -0.23005  -0.22866  -0.21251
 Alpha  occ. eigenvalues --   -0.20605  -0.17697  -0.17468  -0.15854  -0.14589
 Alpha  occ. eigenvalues --   -0.14307  -0.13991  -0.12911  -0.11913  -0.02920
 Alpha virt. eigenvalues --    0.05542   0.07584   0.07810   0.07860   0.08196
 Alpha virt. eigenvalues --    0.08888   0.09691   0.10054   0.10484   0.10896
 Alpha virt. eigenvalues --    0.11084   0.11477   0.11778   0.11990   0.13143

  Beta  occ. eigenvalues --  -19.05900 -19.05900 -19.00422 -19.00421 -18.95396
  Beta  occ. eigenvalues --  -18.95395 -10.19969 -10.19968 -10.13002 -10.13000
  Beta  occ. eigenvalues --  -10.11287 -10.11286 -10.07695 -10.07695 -10.07499
  Beta  occ. eigenvalues --  -10.07460 -10.07125 -10.07073 -10.06854 -10.06806
  Beta  occ. eigenvalues --  -10.06179 -10.06178 -10.06098 -10.06054  -1.00254
  Beta  occ. eigenvalues --   -1.00223  -0.92131  -0.92080  -0.87877  -0.87602
  Beta  occ. eigenvalues --   -0.75534  -0.74459  -0.67851  -0.67798  -0.65419
  Beta  occ. eigenvalues --   -0.63963  -0.63549  -0.62325  -0.55894  -0.55084
  Beta  occ. eigenvalues --   -0.52071  -0.51731  -0.48911  -0.46541  -0.43165
  Beta  occ. eigenvalues --   -0.42944  -0.39841  -0.39038  -0.38792  -0.38341
  Beta  occ. eigenvalues --   -0.37383  -0.36979  -0.36194  -0.35961  -0.35158
  Beta  occ. eigenvalues --   -0.34310  -0.33537  -0.31531  -0.31526  -0.31381
  Beta  occ. eigenvalues --   -0.30834  -0.29780  -0.29618  -0.29209  -0.28748
  Beta  occ. eigenvalues --   -0.28427  -0.27409  -0.27052  -0.26728  -0.24721
  Beta  occ. eigenvalues --   -0.24616  -0.23998  -0.22760  -0.21868  -0.21064
  Beta  occ. eigenvalues --   -0.20542  -0.17677  -0.17452  -0.14124  -0.13904
  Beta  occ. eigenvalues --   -0.13371  -0.13186  -0.12358  -0.11383
  Beta virt. eigenvalues --    0.02979   0.06433   0.07583   0.07812   0.07856
  Beta virt. eigenvalues --    0.08891   0.09266   0.09708   0.10177   0.10508
  Beta virt. eigenvalues --    0.10965   0.11101   0.11487   0.11782   0.12012

 Mulliken charges and spin densities:
               1          2
     1  C   -0.464387   0.003078
     2  C   -0.020033  -0.002295
     3  O   -0.208763  -0.000458
     4  O    0.013063  -0.001189
     5  C   -0.575998   0.026919
     6  C    0.101284   0.060444
     7  C    0.101117   0.060438
     8  C   -0.576429   0.026936
     9  O    0.013017  -0.001192
    10  C   -0.020323  -0.002293
    11  C   -0.464351   0.003081
    12  O   -0.208665  -0.000454
    13  C    0.706774   0.054207
    14  C   -0.518250   0.052500
    15  O   -0.337438   0.224582
    16  C    0.284701   0.034371
    17  C   -0.047422   0.023796
    18  C   -0.346369   0.032857
    19  C   -0.346269   0.032867
    20  C   -0.047760   0.023796
    21  C    0.285071   0.034396
    22  C   -0.518651   0.052487
    23  O   -0.337486   0.224562
    24  C    0.707593   0.054269
    25  H    0.199212  -0.000555
    26  H    0.137474  -0.000288
    27  H    0.139684   0.000327
    28  H    0.155467  -0.004912
    29  H    0.155441  -0.004909
    30  H    0.199200  -0.000555
    31  H    0.139661   0.000329
    32  H    0.137488  -0.000288
    33  H    0.149699  -0.000644
    34  H    0.131482  -0.002782
    35  H    0.131487  -0.002783
    36  H    0.149680  -0.000644
 Sum of Mulliken charges =  -1.00000   1.00000

 Dipole moment (field-independent basis, Debye):
    X=              0.1384    Y=              0.7110    Z=             -3.3441  Tot=              3.4217
 Quadrupole moment (field-independent basis, Debye-Ang):
   XX=           -163.5272   YY=           -159.1737   ZZ=           -150.0563
   XY=             -0.1793   XZ=             -0.3240   YZ=              7.1702

  Exact polarizability: 314.346  -3.204 306.779   6.396  83.665 189.677
 Approx polarizability: 504.426  -5.308 468.123   9.552 124.224 316.618

                      1                      2                      3
                      A                      A                      A
 Frequencies --     33.4733                35.8272                46.3561
 Red. masses --      8.4047                 7.6836                 5.6115
 Frc consts  --      0.0055                 0.0058                 0.0071
 IR Inten    --      0.0090                 3.1675                 1.6046

                      4                      5                      6
                      A                      A                      A
 Frequencies --     76.4163                79.1433               101.8800
 Red. masses --      5.3756                 5.5759                 3.0023
 Frc consts  --      0.0185                 0.0206                 0.0184
 IR Inten    --      0.8068                 3.9537                 1.2529

                      7                      8                      9
                      A                      A                      A
 Frequencies --    101.9454               117.5982               118.3757
 Red. masses --      2.6604                 1.1344                 1.2007
 Frc consts  --      0.0163                 0.0092                 0.0099
 IR Inten    --      8.2712                 0.0024                 0.6022

                     10                     11                     12
                      A                      A                      A
 Frequencies --    119.3886               139.7964               158.8651
 Red. masses --      6.4007                 6.4363                 7.6498
 Frc consts  --      0.0538                 0.0741                 0.1138
 IR Inten    --      1.5047                 1.8736                 0.2183

                     13                     14                     15
                      A                      A                      A
 Frequencies --    186.1575               221.0789               257.8311
 Red. masses --      7.5551                 6.4809                 6.2456
 Frc consts  --      0.1543                 0.1866                 0.2446
 IR Inten    --      2.4445                 4.3673                 0.2196

                     16                     17                     18
                      A                      A                      A
 Frequencies --    276.3490               307.6044               324.3863
 Red. masses --      4.1588                 5.7243                 7.4107
 Frc consts  --      0.1871                 0.3191                 0.4594
 IR Inten    --      4.4770                 2.3738                 2.2271

                     19                     20                     21
                      A                      A                      A
 Frequencies --    338.2239               381.0670               403.9543
 Red. masses --      6.8966                 5.7709                12.4325
 Frc consts  --      0.4648                 0.4937                 1.1953
 IR Inten    --      0.1563                 1.2591                 9.9914

                     22                     23                     24
                      A                      A                      A
 Frequencies --    415.7661               418.1470               430.2727
 Red. masses --      5.1477                 6.0807                 5.7208
 Frc consts  --      0.5243                 0.6264                 0.6240
 IR Inten    --      5.2332                 0.1546                 1.0234

                     25                     26                     27
                      A                      A                      A
 Frequencies --    441.4844               490.2966               494.0482
 Red. masses --      4.0858                 5.9326                 8.2306
 Frc consts  --      0.4692                 0.8403                 1.1836
 IR Inten    --      1.2292                 0.6097                 1.9492

                     28                     29                     30
                      A                      A                      A
 Frequencies --    503.1770               524.4945               565.4840
 Red. masses --      4.3676                 5.3135                 3.2933
 Frc consts  --      0.6515                 0.8612                 0.6205
 IR Inten    --      1.2013                 2.9264                 4.9656

                     31                     32                     33
                      A                      A                      A
 Frequencies --    567.0430               577.0983               599.6126
 Red. masses --      3.1770                 4.9109                 4.8889
 Frc consts  --      0.6019                 0.9636                 1.0356
 IR Inten    --     13.3286                18.8927                35.5262

                     34                     35                     36
                      A                      A                      A
 Frequencies --    630.9649               648.6495               660.0516
 Red. masses --      5.7149                 4.9633                 6.3440
 Frc consts  --      1.3405                 1.2304                 1.6284
 IR Inten    --      1.5611                 0.3118                 3.0296

                     37                     38                     39
                      A                      A                      A
 Frequencies --    690.1522               712.2945               726.9135
 Red. masses --      3.7932                 7.1272                 2.1576
 Frc consts  --      1.0645                 2.1305                 0.6717
 IR Inten    --     21.4244                 1.9662                12.0947

                     40                     41                     42
                      A                      A                      A
 Frequencies --    734.3284               778.6423               784.9304
 Red. masses --      6.3667                 5.4052                 1.9054
 Frc consts  --      2.0228                 1.9308                 0.6917
 IR Inten    --      0.0394                 6.6755                35.7087

                     43                     44                     45
                      A                      A                      A
 Frequencies --    806.5444               808.5448               867.3542
 Red. masses --      5.8458                 2.0341                 4.8471
 Frc consts  --      2.2405                 0.7835                 2.1485
 IR Inten    --      2.9876                 4.9908                29.0278

                     46                     47                     48
                      A                      A                      A
 Frequencies --    870.9949               874.2165               909.1103
 Red. masses --      4.1015                 1.4783                 1.8681
 Frc consts  --      1.8333                 0.6656                 0.9096
 IR Inten    --      1.0213                 0.0058                 8.3096

                     49                     50                     51
                      A                      A                      A
 Frequencies --    919.8649               932.7059               961.0122
 Red. masses --      6.1144                 4.9596                 5.1138
 Frc consts  --      3.0482                 2.5421                 2.7826
 IR Inten    --     53.8809                 0.9347                30.1397

                     52                     53                     54
                      A                      A                      A
 Frequencies --    984.8768               986.2827              1009.7623
 Red. masses --      1.3612                 1.2631                 2.0112
 Frc consts  --      0.7779                 0.7239                 1.2082
 IR Inten    --      1.5913                 0.0084                10.0291

                     55                     56                     57
                      A                      A                      A
 Frequencies --   1026.0951              1037.0685              1054.3413
 Red. masses --      1.9180                 2.2457                 1.7664
 Frc consts  --      1.1898                 1.4230                 1.1569
 IR Inten    --    170.5089                16.8552                 7.3043

                     58                     59                     60
                      A                      A                      A
 Frequencies --   1054.4499              1067.9718              1112.9082
 Red. masses --      1.7567                 2.2173                 2.0905
 Frc consts  --      1.1508                 1.4900                 1.5255
 IR Inten    --     32.1128                59.0546                12.3338

                     61                     62                     63
                      A                      A                      A
 Frequencies --   1142.9501              1165.6118              1196.2271
 Red. masses --      1.5401                 1.4695                 3.1567
 Frc consts  --      1.1854                 1.1763                 2.6614
 IR Inten    --     24.3845                 3.7529               307.8343

                     64                     65                     66
                      A                      A                      A
 Frequencies --   1206.2520              1222.0506              1228.0456
 Red. masses --      2.7290                 2.8725                 3.4412
 Frc consts  --      2.3395                 2.5275                 3.0577
 IR Inten    --    498.8053                71.6754                93.4654

                     67                     68                     69
                      A                      A                      A
 Frequencies --   1230.2346              1238.0044              1246.0648
 Red. masses --      8.0624                 2.5110                 2.0328
 Frc consts  --      7.1893                 2.2674                 1.8597
 IR Inten    --     52.7283               145.5445                42.2599

                     70                     71                     72
                      A                      A                      A
 Frequencies --   1320.1211              1343.3783              1370.6012
 Red. masses --     11.2805                 2.6189                10.2411
 Frc consts  --     11.5826                 2.7846                11.3349
 IR Inten    --     31.7823                 3.5367                 1.7028

                     73                     74                     75
                      A                      A                      A
 Frequencies --   1379.5866              1380.4733              1390.1140
 Red. masses --      1.3630                 1.3815                 4.6892
 Frc consts  --      1.5284                 1.5512                 5.3389
 IR Inten    --    283.9388                 2.1225                 5.2890

                     76                     77                     78
                      A                      A                      A
 Frequencies --   1407.0764              1470.8482              1471.0692
 Red. masses --      3.3735                 1.0617                 1.0638
 Frc consts  --      3.9352                 1.3533                 1.3563
 IR Inten    --    261.4265                14.5179                 0.4866

                     79                     80                     81
                      A                      A                      A
 Frequencies --   1480.0646              1480.7223              1480.9677
 Red. masses --      2.3706                 1.0509                 1.2203
 Frc consts  --      3.0596                 1.3576                 1.5769
 IR Inten    --     12.5534                18.5300                 0.1131

                     82                     83                     84
                      A                      A                      A
 Frequencies --   1484.0801              1536.7015              1537.3774
 Red. masses --      2.4744                 8.4337                 6.2019
 Frc consts  --      3.2109                11.7341                 8.6364
 IR Inten    --     35.7444                 6.3384               829.6625

                     85                     86                     87
                      A                      A                      A
 Frequencies --   1568.8010              1618.9013              1622.7978
 Red. masses --      6.3208                 6.5281                 8.9621
 Frc consts  --      9.1656                10.0803                13.9055
 IR Inten    --    106.0063                12.3392                 6.7266

                     88                     89                     90
                      A                      A                      A
 Frequencies --   1631.2945              1807.1571              1810.8744
 Red. masses --      6.2113                11.6668                11.6317
 Frc consts  --      9.7386                22.4489                22.4735
 IR Inten    --      9.7294                 4.9189               498.1821

                     91                     92                     93
                      A                      A                      A
 Frequencies --   3046.3468              3046.4137              3116.3760
 Red. masses --      1.0340                 1.0340                 1.1003
 Frc consts  --      5.6536                 5.6538                 6.2957
 IR Inten    --     35.9755                 9.5225                 3.8944

                     94                     95                     96
                      A                      A                      A
 Frequencies --   3116.3973              3138.0862              3140.8597
 Red. masses --      1.1003                 1.0851                 1.1042
 Frc consts  --      6.2958                 6.2955                 6.4180
 IR Inten    --      9.4412                16.7882                14.6600

                     97                     98                     99
                      A                      A                      A
 Frequencies --   3140.9219              3156.9562              3178.2002
 Red. masses --      1.1042                 1.0917                 1.0875
 Frc consts  --      6.4182                 6.4103                 6.4720
 IR Inten    --     18.3850                51.2082                16.8807

                    100                    101                    102
                      A                      A                      A
 Frequencies --   3189.5851              3191.8056              3194.2773
 Red. masses --      1.0912                 1.0926                 1.0949
 Frc consts  --      6.5410                 6.5582                 6.5824
 IR Inten    --      7.4312                29.5696                11.5537

 - Thermochemistry -
 -------------------
 Temperature   298.150 Kelvin.  Pressure   1.00000 Atm.
 Atom     1 has atomic number  6 and mass  12.00000

 Molecular mass:   324.06339 amu.
 Principal axes and moments of inertia in atomic units:
                           1         2         3
     Eigenvalues --  6054.667857885.39111**********
           X            0.99909   0.00583  -0.04221
           Y           -0.02195   0.91946  -0.39258
           Z            0.03652   0.39315   0.91875
 This molecule is an asymmetric top.
 Rotational symmetry number  1.
 Warning -- assumption of classical behavior for rotation
           may cause significant error
 Rotational temperatures (Kelvin)      0.01431     0.01098     0.00664
 Rotational constants (GHZ):           0.29807     0.22887     0.13843
 Zero-point vibrational energy     679648.5 (Joules/Mol)
                                  162.43988 (Kcal/Mol)
 Warning -- explicit consideration of  33 degrees of freedom as
           vibrations may cause significant error
 Vibrational temperatures:     48.16    51.55    66.70   109.95   113.87
          (Kelvin)            146.58   146.68   169.20   170.32   171.77
                              201.14   228.57   267.84   318.08   370.96
                              397.60   442.57   466.72   486.63   548.27
                              581.20   598.19   601.62   619.07   635.20
                              705.43   710.83   723.96   754.63   813.61
                              815.85   830.32   862.71   907.82   933.26
                              949.67   992.98  1024.83  1045.87  1056.53
                             1120.29  1129.34  1160.44  1163.32  1247.93
                             1253.17  1257.80  1308.01  1323.48  1341.96
                             1382.68  1417.02  1419.04  1452.82  1476.32
                             1492.11  1516.96  1517.12  1536.57  1601.23
                             1644.45  1677.06  1721.10  1735.53  1758.26
                             1766.88  1770.03  1781.21  1792.81  1899.36
                             1932.82  1971.99  1984.92  1986.19  2000.06
                             2024.47  2116.22  2116.54  2129.48  2130.43
                             2130.78  2135.26  2210.97  2211.94  2257.15
                             2329.24  2334.84  2347.07  2600.10  2605.44
                             4383.01  4383.11  4483.77  4483.80  4515.01
                             4519.00  4519.09  4542.16  4572.72  4589.10
                             4592.30  4595.85

 Zero-point correction=                           0.258864 (Hartree/Particle)
 Thermal correction to Energy=                    0.279328
 Thermal correction to Enthalpy=                  0.280273
 Thermal correction to Gibbs Free Energy=         0.208168
 Sum of electronic and zero-point Energies=          -1144.645751
 Sum of electronic and thermal Energies=             -1144.625287
 Sum of electronic and thermal Enthalpies=           -1144.624343
 Sum of electronic and thermal Free Energies=        -1144.696448

                     E (Thermal)             CV                S
                      KCal/Mol        Cal/Mol-Kelvin    Cal/Mol-Kelvin
 Total                  175.281             77.939            151.757
 Electronic               0.000              0.000              1.377
 Translational            0.889              2.981             43.223
 Rotational               0.889              2.981             34.786
 Vibrational            173.504             71.977             72.370
 Vibration     1          0.594              1.983              5.612
 Vibration     2          0.594              1.982              5.477
 Vibration     3          0.595              1.979              4.967
 Vibration     4          0.599              1.965              3.981
 Vibration     5          0.600              1.963              3.912
 Vibration     6          0.604              1.948              3.418
 Vibration     7          0.604              1.948              3.417
 Vibration     8          0.608              1.935              3.139
 Vibration     9          0.609              1.934              3.127
 Vibration    10          0.609              1.933              3.110
 Vibration    11          0.615              1.914              2.807
 Vibration    12          0.621              1.893              2.563
 Vibration    13          0.632              1.859              2.266
 Vibration    14          0.648              1.809              1.950
 Vibration    15          0.667              1.750              1.676
 Vibration    16          0.678              1.717              1.556
 Vibration    17          0.697              1.659              1.375
 Vibration    18          0.709              1.627              1.288
 Vibration    19          0.719              1.599              1.221
 Vibration    20          0.751              1.511              1.035
 Vibration    21          0.769              1.462              0.948
 Vibration    22          0.779              1.436              0.906
 Vibration    23          0.781              1.431              0.898
 Vibration    24          0.791              1.404              0.858
 Vibration    25          0.801              1.380              0.822
 Vibration    26          0.846              1.272              0.683
 Vibration    27          0.850              1.263              0.673
 Vibration    28          0.858              1.243              0.650
 Vibration    29          0.879              1.196              0.600
 Vibration    30          0.921              1.106              0.513
 Vibration    31          0.923              1.103              0.510
 Vibration    32          0.934              1.081              0.491
 Vibration    33          0.958              1.033              0.450

 Optimization completed.
    -- Stationary point found.
 Normal termination of Gaussian 16 at Wed Dec 27 22:58:27 2023.
