 Gaussian 16, Revision A.03,
 Gaussian 16:  ES64L-G16RevA.03 25-Dec-2016

 ----------------------------------------------------------------------
 #P UB3LYP/6-311++G(d,p) nosym opt freq SCRF=(PCM,Solvent=n,n-DiMethylF
 ormamide)
 ----------------------------------------------------------------------

 -------
 Radical
 -------
 Symbolic Z-matrix:
 Charge = -1 Multiplicity = 2

 SCF Done:  E(UB3LYP) =  -1240.13766912     A.U. after   23 cycles
 SCF Done:  E(UB3LYP) =  -1240.13769397     A.U. after   23 cycles
 SCF Done:  E(UB3LYP) =  -1240.13852314     A.U. after   20 cycles
 SCF Done:  E(UB3LYP) =  -1240.13869850     A.U. after   17 cycles
 SCF Done:  E(UB3LYP) =  -1240.13872476     A.U. after   17 cycles
 SCF Done:  E(UB3LYP) =  -1240.13874606     A.U. after   16 cycles
 SCF Done:  E(UB3LYP) =  -1240.13875661     A.U. after   17 cycles
 SCF Done:  E(UB3LYP) =  -1240.13867930     A.U. after   22 cycles
 SCF Done:  E(UB3LYP) =  -1240.13876937     A.U. after   20 cycles
 SCF Done:  E(UB3LYP) =  -1240.13876906     A.U. after   18 cycles
 SCF Done:  E(UB3LYP) =  -1240.13880944     A.U. after   15 cycles
 SCF Done:  E(UB3LYP) =  -1240.13881007     A.U. after   14 cycles
 SCF Done:  E(UB3LYP) =  -1240.13881029     A.U. after   15 cycles
 SCF Done:  E(UB3LYP) =  -1240.13881064     A.U. after   13 cycles
 SCF Done:  E(UB3LYP) =  -1240.13881066     A.U. after   14 cycles
 SCF Done:  E(UB3LYP) =  -1240.13881080     A.U. after   14 cycles
 SCF Done:  E(UB3LYP) =  -1240.13881100     A.U. after   13 cycles
 SCF Done:  E(UB3LYP) =  -1240.13881106     A.U. after   12 cycles
 SCF Done:  E(UB3LYP) =  -1240.13881114     A.U. after   12 cycles
 Optimization completed.
    -- Stationary point found.
 Normal termination of Gaussian 16 at Sat Feb 10 16:14:46 2024.

 ----------------------------------------------------------------------
 #P Geom=AllCheck Guess=TCheck SCRF=Check GenChk UB3LYP/6-311++G(d,p) F
 req
 ----------------------------------------------------------------------

 Structure from the checkpoint file:  "070-rad.chk"
 -------
 Radical
 -------
 Charge = -1 Multiplicity = 2

                          Input orientation:
 ---------------------------------------------------------------------
 Center     Atomic      Atomic             Coordinates (Angstroms)
 Number     Number       Type             X           Y           Z
 ---------------------------------------------------------------------
      1          6           0        1.070500    1.708629   -0.561199
      2          6           0       -0.128594    1.179750    0.096426
      3          6           0       -0.415933   -0.165807    0.112193
      4          6           0        0.472022   -1.140041   -0.522114
      5          6           0        1.654147   -0.626893   -1.161541
      6          6           0        1.926513    0.718733   -1.181851
      7          8           0        1.344880    2.937792   -0.575113
      8          8           0        0.229371   -2.384935   -0.515735
      9         16           0        3.407914    1.256391   -2.037689
     10          6           0        4.438474    2.093376   -0.814149
     11          6           0        4.619479    3.470748   -0.892917
     12          6           0        5.064162    1.327813    0.169582
     13          6           0        5.886124    1.963803    1.097021
     14          6           0        5.452190    4.094873    0.035127
     15          6           0        6.081066    3.344539    1.028579
     16          8           0        3.078503    2.227841   -3.101059
     17          8           0        4.141480    0.036950   -2.449330
     18          1           0        4.118787    4.037448   -1.666052
     19          1           0        4.918024    0.255409    0.209285
     20          1           0        5.605787    5.166305   -0.018050
     21          1           0        2.327471   -1.335034   -1.628424
     22          1           0        6.377781    1.380924    1.866894
     23          6           0       -1.655724   -0.686734    0.791950
     24          6           0       -1.043740    2.176911    0.760620
     25          1           0        6.724313    3.834786    1.750205
     26          1           0       -1.649558   -0.456065    1.862882
     27          1           0       -1.725671   -1.766782    0.672752
     28          1           0       -2.559992   -0.229534    0.376968
     29          1           0       -0.637544    3.182793    0.669409
     30          1           0       -1.176021    1.949520    1.823566
     31          1           0       -2.041459    2.164179    0.308526
 ---------------------------------------------------------------------

 SCF Done:  E(UB3LYP) =  -1240.13881114     A.U. after    2 cycles

 Alpha  occ. eigenvalues --  -89.05174 -19.11720 -19.11600 -19.08578 -19.08548
 Alpha  occ. eigenvalues --  -10.23768 -10.22792 -10.21597 -10.19993 -10.19778
 Alpha  occ. eigenvalues --  -10.19550 -10.19140 -10.19032 -10.18969 -10.18197
 Alpha  occ. eigenvalues --  -10.17899 -10.17837 -10.15756 -10.15752  -8.11564
 Alpha  occ. eigenvalues --   -6.07850  -6.07737  -6.07652  -1.10779  -1.01214
 Alpha  occ. eigenvalues --   -1.00492  -1.00149  -0.88005  -0.84423  -0.80020
 Alpha  occ. eigenvalues --   -0.77905  -0.76717  -0.73018  -0.70980  -0.67538
 Alpha  occ. eigenvalues --   -0.65724  -0.62596  -0.60890  -0.57317  -0.56729
 Alpha  occ. eigenvalues --   -0.53659  -0.50692  -0.49872  -0.48465  -0.47772
 Alpha  occ. eigenvalues --   -0.45898  -0.45418  -0.45073  -0.44145  -0.44068
 Alpha  occ. eigenvalues --   -0.42373  -0.41217  -0.40248  -0.39888  -0.39863
 Alpha  occ. eigenvalues --   -0.38946  -0.38881  -0.38192  -0.37439  -0.36506
 Alpha  occ. eigenvalues --   -0.36287  -0.35466  -0.34121  -0.32729  -0.31195
 Alpha  occ. eigenvalues --   -0.30350  -0.29562  -0.27754  -0.27358  -0.25387
 Alpha  occ. eigenvalues --   -0.25135  -0.24328  -0.17358
 Alpha virt. eigenvalues --   -0.04998  -0.03005  -0.02258  -0.00623   0.00063
 Alpha virt. eigenvalues --    0.01068   0.01279   0.01746   0.02133   0.03113
 Alpha virt. eigenvalues --    0.03230   0.03627   0.04057   0.04277   0.04325

  Beta  occ. eigenvalues --  -89.05177 -19.11710 -19.11604 -19.07957 -19.07777
  Beta  occ. eigenvalues --  -10.23660 -10.22676 -10.21595 -10.19879 -10.19776
  Beta  occ. eigenvalues --  -10.19547 -10.19138 -10.19032 -10.18969 -10.17932
  Beta  occ. eigenvalues --  -10.17855 -10.17774 -10.15762 -10.15756  -8.11566
  Beta  occ. eigenvalues --   -6.07851  -6.07738  -6.07656  -1.10762  -1.00327
  Beta  occ. eigenvalues --   -0.99968  -0.99127  -0.87998  -0.83854  -0.79845
  Beta  occ. eigenvalues --   -0.77810  -0.76713  -0.72710  -0.70654  -0.67085
  Beta  occ. eigenvalues --   -0.65382  -0.62590  -0.60750  -0.56988  -0.56538
  Beta  occ. eigenvalues --   -0.53541  -0.50533  -0.49622  -0.48415  -0.47749
  Beta  occ. eigenvalues --   -0.45868  -0.45090  -0.45020  -0.44117  -0.43509
  Beta  occ. eigenvalues --   -0.41937  -0.40695  -0.39719  -0.39633  -0.39261
  Beta  occ. eigenvalues --   -0.38839  -0.38489  -0.37828  -0.36500  -0.36176
  Beta  occ. eigenvalues --   -0.35280  -0.35030  -0.34010  -0.32624  -0.31036
  Beta  occ. eigenvalues --   -0.30269  -0.28082  -0.27431  -0.26221  -0.24739
  Beta  occ. eigenvalues --   -0.24076  -0.23726
  Beta virt. eigenvalues --   -0.10088  -0.04757  -0.02890  -0.01123  -0.00596
  Beta virt. eigenvalues --    0.00074   0.01096   0.01542   0.02146   0.03026
  Beta virt. eigenvalues --    0.03136   0.03306   0.03659   0.04145   0.04331

 Mulliken charges and spin densities:
               1          2
     1  C   -1.079612   0.043818
     2  C    0.139783   0.008074
     3  C    1.001891   0.075237
     4  C   -0.968147   0.082145
     5  C    0.238085   0.183313
     6  C    0.079146   0.110021
     7  O   -0.393577   0.231690
     8  O   -0.464854   0.275121
     9  S    0.523589  -0.020241
    10  C    0.477677   0.014857
    11  C   -0.148910   0.015636
    12  C   -0.205936  -0.008007
    13  C   -0.457188  -0.001399
    14  C   -0.337004  -0.002453
    15  C   -0.364393   0.001491
    16  O   -0.252514   0.006164
    17  O   -0.244423  -0.002620
    18  H    0.246806   0.000467
    19  H    0.245031   0.000856
    20  H    0.216092   0.000037
    21  H    0.246670  -0.016527
    22  H    0.216448   0.000040
    23  C   -0.473621   0.009546
    24  C   -0.437699  -0.010461
    25  H    0.190254  -0.000100
    26  H    0.159757   0.001253
    27  H    0.185562  -0.002117
    28  H    0.156915   0.001099
    29  H    0.192773  -0.001488
    30  H    0.153497   0.002214
    31  H    0.157905   0.002333
 Sum of Mulliken charges =  -1.00000   1.00000

 Dipole moment (field-independent basis, Debye):
    X=             -7.3526    Y=             -0.2163    Z=             10.6342  Tot=             12.9304
 Quadrupole moment (field-independent basis, Debye-Ang):
   XX=           -131.1118   YY=           -149.1035   ZZ=           -145.1851
   XY=             -0.6377   XZ=             34.8403   YZ=             10.8954

  Exact polarizability: 294.794  50.350 375.952  -8.127   5.058 232.703
 Approx polarizability: 295.268  39.770 451.576   2.293  -1.788 264.337

                      1                      2                      3
                      A                      A                      A
 Frequencies --     27.5276                32.2789                43.8054
 Red. masses --      3.8204                 6.6667                 4.6657
 Frc consts  --      0.0017                 0.0041                 0.0053
 IR Inten    --      0.8148                 1.4913                 2.8190

                      4                      5                      6
                      A                      A                      A
 Frequencies --     65.9938                83.0085               112.4178
 Red. masses --      1.0862                 4.5137                 1.1170
 Frc consts  --      0.0028                 0.0183                 0.0083
 IR Inten    --      0.4513                 7.7637                 0.2875

                      7                      8                      9
                      A                      A                      A
 Frequencies --    129.9617               149.2531               155.6562
 Red. masses --      3.4584                 5.8929                 9.0004
 Frc consts  --      0.0344                 0.0773                 0.1285
 IR Inten    --      0.2491                13.1858                 7.7218

                     10                     11                     12
                      A                      A                      A
 Frequencies --    175.5310               218.2592               248.2199
 Red. masses --      6.6675                 5.5813                 6.3042
 Frc consts  --      0.1210                 0.1566                 0.2289
 IR Inten    --      0.8024                 1.8877                 1.3689

                     13                     14                     15
                      A                      A                      A
 Frequencies --    276.3694               283.2842               303.7781
 Red. masses --      6.4247                 5.5744                 7.5086
 Frc consts  --      0.2891                 0.2636                 0.4082
 IR Inten    --      1.7289                 2.5200                 5.6446

                     16                     17                     18
                      A                      A                      A
 Frequencies --    320.1449               333.8089               360.6828
 Red. masses --      2.7024                 3.9620                 6.9362
 Frc consts  --      0.1632                 0.2601                 0.5316
 IR Inten    --      1.2610                 7.2505                 6.2765

                     19                     20                     21
                      A                      A                      A
 Frequencies --    399.4899               409.0027               422.7024
 Red. masses --      8.7379                 2.8907                 8.3016
 Frc consts  --      0.8216                 0.2849                 0.8739
 IR Inten    --     38.3536                 0.3237                 0.5498

                     22                     23                     24
                      A                      A                      A
 Frequencies --    461.5007               478.4020               500.0740
 Red. masses --      5.5406                 7.2319                 4.7625
 Frc consts  --      0.6953                 0.9752                 0.7017
 IR Inten    --     21.0308                 2.7338                20.5618

                     25                     26                     27
                      A                      A                      A
 Frequencies --    504.3064               538.2251               584.7980
 Red. masses --      5.6383                 7.2802                 7.9894
 Frc consts  --      0.8449                 1.2426                 1.6098
 IR Inten    --     13.1610                95.9969               376.9840

                     28                     29                     30
                      A                      A                      A
 Frequencies --    625.9621               659.5219               680.2935
 Red. masses --      6.4502                 4.2750                 4.3234
 Frc consts  --      1.4891                 1.0956                 1.1789
 IR Inten    --      0.3879                13.4124                11.5277

                     31                     32                     33
                      A                      A                      A
 Frequencies --    691.6786               699.6145               716.5274
 Red. masses --      5.5098                 2.0775                 7.0700
 Frc consts  --      1.5531                 0.5991                 2.1386
 IR Inten    --     34.0976                81.4747                96.2619

                     34                     35                     36
                      A                      A                      A
 Frequencies --    757.0363               761.2290               827.3949
 Red. masses --      4.5907                 1.7675                 7.4084
 Frc consts  --      1.5501                 0.6034                 2.9881
 IR Inten    --     25.3802                31.8449                25.8825

                     37                     38                     39
                      A                      A                      A
 Frequencies --    852.3972               876.3778               879.6487
 Red. masses --      1.2482                 2.1704                 1.6294
 Frc consts  --      0.5343                 0.9821                 0.7428
 IR Inten    --      0.1293                19.0617                21.7685

                     40                     41                     42
                      A                      A                      A
 Frequencies --    939.9754               975.7421               994.3648
 Red. masses --      1.3418                 1.6270                 1.3797
 Frc consts  --      0.6985                 0.9126                 0.8038
 IR Inten    --      0.6864                 3.7826                 0.2433

                     43                     44                     45
                      A                      A                      A
 Frequencies --   1011.4228              1015.2401              1023.2828
 Red. masses --      5.3831                 1.3562                 1.4304
 Frc consts  --      3.2445                 0.8236                 0.8824
 IR Inten    --     27.4695                 1.2096                 0.6893

                     46                     47                     48
                      A                      A                      A
 Frequencies --   1031.3512              1048.0578              1056.6424
 Red. masses --      5.8398                 2.9864                 1.5498
 Frc consts  --      3.6598                 1.9327                 1.0195
 IR Inten    --    147.1407               123.3737                 0.0796

                     49                     50                     51
                      A                      A                      A
 Frequencies --   1088.5556              1094.9136              1101.2582
 Red. masses --      3.6814                 1.7174                 3.0592
 Frc consts  --      2.5702                 1.2131                 2.1859
 IR Inten    --    145.3319                53.2346               134.9765

                     52                     53                     54
                      A                      A                      A
 Frequencies --   1113.0041              1159.5879              1178.9837
 Red. masses --      2.4313                 2.1912                 1.1146
 Frc consts  --      1.7745                 1.7360                 0.9128
 IR Inten    --     46.9101                15.6250                 0.0899

                     55                     56                     57
                      A                      A                      A
 Frequencies --   1192.3339              1194.6289              1222.0351
 Red. masses --      1.1549                15.6627                 7.4174
 Frc consts  --      0.9673                13.1699                 6.5264
 IR Inten    --      2.3174               351.5471                33.3263

                     58                     59                     60
                      A                      A                      A
 Frequencies --   1303.7696              1328.1578              1340.8127
 Red. masses --      2.3316                 2.7491                 1.9247
 Frc consts  --      2.3351                 2.8572                 2.0387
 IR Inten    --     33.1038                 0.6376                 5.9688

                     61                     62                     63
                      A                      A                      A
 Frequencies --   1380.4698              1392.8964              1409.9936
 Red. masses --      1.4071                 1.2427                 3.2134
 Frc consts  --      1.5799                 1.4206                 3.7640
 IR Inten    --     21.6755                15.1052                60.1934

                     64                     65                     66
                      A                      A                      A
 Frequencies --   1459.0777              1468.1126              1473.1445
 Red. masses --      8.2237                 1.1064                 2.1167
 Frc consts  --     10.3152                 1.4050                 2.7065
 IR Inten    --    255.9922                 3.8385                20.3999

                     67                     68                     69
                      A                      A                      A
 Frequencies --   1478.5033              1480.4222              1493.0940
 Red. masses --      1.2355                 1.0481                 1.0455
 Frc consts  --      1.5913                 1.3534                 1.3733
 IR Inten    --    137.2220                 3.0560                28.9220

                     70                     71                     72
                      A                      A                      A
 Frequencies --   1502.1861              1504.8732              1535.1045
 Red. masses --      6.6354                 2.0601                 7.6281
 Frc consts  --      8.8219                 2.7488                10.5911
 IR Inten    --    842.5385                22.8994               140.7680

                     73                     74                     75
                      A                      A                      A
 Frequencies --   1618.0965              1622.1330              1623.3326
 Red. masses --      5.4390                 6.4126                 7.5651
 Frc consts  --      8.3903                 9.9416                11.7457
 IR Inten    --      0.8237                 1.9286                11.2765

                     76                     77                     78
                      A                      A                      A
 Frequencies --   3015.1696              3017.3262              3053.8541
 Red. masses --      1.0404                 1.0415                 1.0992
 Frc consts  --      5.5729                 5.5865                 6.0400
 IR Inten    --    104.5285                 5.2234                63.6539

                     79                     80                     81
                      A                      A                      A
 Frequencies --   3059.8396              3128.6794              3130.6155
 Red. masses --      1.0995                 1.0961                 1.0958
 Frc consts  --      6.0649                 6.3215                 6.3274
 IR Inten    --      0.5643                11.9065                13.5194

                     82                     83                     84
                      A                      A                      A
 Frequencies --   3173.0686              3182.7622              3191.3707
 Red. masses --      1.0866                 1.0896                 1.0936
 Frc consts  --      6.4456                 6.5029                 6.5625
 IR Inten    --      0.4370                13.6603                16.3501

                     85                     86                     87
                      A                      A                      A
 Frequencies --   3195.5070              3199.5872              3214.7832
 Red. masses --      1.0895                 1.0961                 1.0932
 Frc consts  --      6.5550                 6.6113                 6.6566
 IR Inten    --     13.2840                11.1486                 4.2223

 - Thermochemistry -
 -------------------
 Temperature   298.150 Kelvin.  Pressure   1.00000 Atm.
 Atom     1 has atomic number  6 and mass  12.00000

 Molecular mass:   276.04563 amu.
 Principal axes and moments of inertia in atomic units:
                           1         2         3
     Eigenvalues --  2987.523477796.543458554.25785
           X            0.87747  -0.34333   0.33491
           Y            0.47573   0.71183  -0.51670
           Z           -0.06100   0.61271   0.78795
 This molecule is an asymmetric top.
 Rotational symmetry number  1.
 Warning -- assumption of classical behavior for rotation
           may cause significant error
 Rotational temperatures (Kelvin)      0.02899     0.01111     0.01013
 Rotational constants (GHZ):           0.60409     0.23148     0.21098
 Zero-point vibrational energy     598517.4 (Joules/Mol)
                                  143.04908 (Kcal/Mol)
 Warning -- explicit consideration of  27 degrees of freedom as
           vibrations may cause significant error
 Vibrational temperatures:     39.61    46.44    63.03    94.95   119.43
          (Kelvin)            161.74   186.99   214.74   223.95   252.55
                              314.03   357.13   397.63   407.58   437.07
                              460.62   480.28   518.94   574.78   588.46
                              608.17   664.00   688.31   719.49   725.58
                              774.39   841.39   900.62   948.90   978.79
                              995.17  1006.59  1030.92  1089.21  1095.24
                             1190.44  1226.41  1260.91  1265.62  1352.41
                             1403.88  1430.67  1455.21  1460.70  1472.28
                             1483.88  1507.92  1520.27  1566.19  1575.34
                             1584.46  1601.36  1668.39  1696.29  1715.50
                             1718.80  1758.24  1875.83  1910.92  1929.13
                             1986.19  2004.07  2028.67  2099.29  2112.29
                             2119.53  2127.24  2130.00  2148.23  2161.31
                             2165.18  2208.67  2328.08  2333.89  2335.61
                             4338.16  4341.26  4393.81  4402.43  4501.47
                             4504.26  4565.34  4579.28  4591.67  4597.62
                             4603.49  4625.36

 Zero-point correction=                           0.227963 (Hartree/Particle)
 Thermal correction to Energy=                    0.245679
 Thermal correction to Enthalpy=                  0.246623
 Thermal correction to Gibbs Free Energy=         0.180289
 Sum of electronic and zero-point Energies=          -1239.910848
 Sum of electronic and thermal Energies=             -1239.893132
 Sum of electronic and thermal Enthalpies=           -1239.892188
 Sum of electronic and thermal Free Energies=        -1239.958522

                     E (Thermal)             CV                S
                      KCal/Mol        Cal/Mol-Kelvin    Cal/Mol-Kelvin
 Total                  154.166             66.512            139.612
 Electronic               0.000              0.000              1.377
 Translational            0.889              2.981             42.745
 Rotational               0.889              2.981             33.654
 Vibrational            152.389             60.551             61.835
 Vibration     1          0.593              1.984              6.000
 Vibration     2          0.594              1.983              5.684
 Vibration     3          0.595              1.980              5.079
 Vibration     4          0.597              1.970              4.269
 Vibration     5          0.600              1.961              3.818
 Vibration     6          0.607              1.939              3.227
 Vibration     7          0.612              1.923              2.947
 Vibration     8          0.618              1.903              2.682
 Vibration     9          0.620              1.896              2.602
 Vibration    10          0.627              1.873              2.375
 Vibration    11          0.646              1.813              1.973
 Vibration    12          0.662              1.766              1.743
 Vibration    13          0.678              1.717              1.556
 Vibration    14          0.682              1.705              1.514
 Vibration    15          0.695              1.667              1.396
 Vibration    16          0.706              1.635              1.309
 Vibration    17          0.715              1.608              1.242
 Vibration    18          0.735              1.553              1.119
 Vibration    19          0.766              1.471              0.965
 Vibration    20          0.773              1.451              0.930
 Vibration    21          0.785              1.421              0.883
 Vibration    22          0.819              1.335              0.762
 Vibration    23          0.835              1.298              0.714
 Vibration    24          0.855              1.250              0.658
 Vibration    25          0.860              1.240              0.647
 Vibration    26          0.893              1.166              0.569
 Vibration    27          0.942              1.064              0.477

 Optimization completed.
    -- Stationary point found.
 Normal termination of Gaussian 16 at Sat Feb 10 17:10:23 2024.
