 Gaussian 16, Revision A.03,
 Gaussian 16:  ES64L-G16RevA.03 25-Dec-2016

 --------------------------------------
 #P UB3LYP/6-311++G(d,p) nosym opt freq
 --------------------------------------

 -------
 Radical
 -------
 Symbolic Z-matrix:
 Charge = -1 Multiplicity = 2

 SCF Done:  E(UB3LYP) =  -839.548588561     A.U. after   18 cycles
 SCF Done:  E(UB3LYP) =  -839.548588476     A.U. after   10 cycles
 SCF Done:  E(UB3LYP) =  -839.548588610     A.U. after    9 cycles
 Optimization completed.
    -- Stationary point found.
 Normal termination of Gaussian 16 at Sun Jan  7 05:12:45 2024.

 ----------------------------------------------------------------------
 #P Geom=AllCheck Guess=TCheck SCRF=Check GenChk UB3LYP/6-311++G(d,p) F
 req
 ----------------------------------------------------------------------

 Structure from the checkpoint file:  "185-rad.chk"
 -------
 Radical
 -------
 Charge = -1 Multiplicity = 2

                          Input orientation:
 ---------------------------------------------------------------------
 Center     Atomic      Atomic             Coordinates (Angstroms)
 Number     Number       Type             X           Y           Z
 ---------------------------------------------------------------------
      1          6           0        4.891563   -2.864963   -0.357202
      2          6           0        5.611285   -1.970509   -1.123233
      3          6           0        5.014099   -0.761695   -1.545474
      4          6           0        3.556859   -2.593701    0.016904
      5          6           0        2.954963   -1.375348   -0.408679
      6          6           0        3.711081   -0.475429   -1.191869
      7          6           0        2.823316   -3.555145    0.824634
      8          6           0        1.458502   -3.229572    1.181267
      9          6           0        0.852275   -2.002418    0.752646
     10          6           0        1.584102   -1.046592   -0.051552
     11          6           0        0.702180   -4.141012    1.970950
     12          6           0       -0.609614   -3.834079    2.316984
     13          6           0       -0.492515   -1.722584    1.126293
     14          6           0       -1.201053   -2.636865    1.898830
     15          8           0        3.369877   -4.646974    1.203017
     16          8           0        1.050173    0.048959   -0.437163
     17          8           0        1.241624   -5.309434    2.393712
     18          1           0        5.325957   -3.798806   -0.020521
     19          1           0        6.636447   -2.194355   -1.402189
     20          1           0        5.581537   -0.058972   -2.148032
     21          1           0        3.229801    0.444336   -1.502539
     22          1           0        2.176940   -5.307215    2.026986
     23          8           0       -1.097582   -0.573852    0.739981
     24          1           0       -2.223908   -2.399243    2.169633
     25          1           0       -1.163570   -4.545719    2.919259
     26          1           0       -0.402048   -0.085804    0.203915
 ---------------------------------------------------------------------

 SCF Done:  E(UB3LYP) =  -839.548588610     A.U. after    1 cycles

 Alpha  occ. eigenvalues --  -19.00717 -19.00716 -18.96973 -18.96972 -10.11547
 Alpha  occ. eigenvalues --  -10.11546 -10.11191 -10.11190 -10.07021 -10.06974
 Alpha  occ. eigenvalues --  -10.06443 -10.06435 -10.06393 -10.06358 -10.05985
 Alpha  occ. eigenvalues --  -10.05944 -10.05532 -10.05480  -0.93134  -0.92967
 Alpha  occ. eigenvalues --   -0.88595  -0.88401  -0.75223  -0.73068  -0.67649
 Alpha  occ. eigenvalues --   -0.64507  -0.63193  -0.61646  -0.56069  -0.52850
 Alpha  occ. eigenvalues --   -0.52035  -0.47902  -0.46194  -0.43113  -0.41532
 Alpha  occ. eigenvalues --   -0.40245  -0.38725  -0.36183  -0.35433  -0.34731
 Alpha  occ. eigenvalues --   -0.31994  -0.31822  -0.30956  -0.30396  -0.30138
 Alpha  occ. eigenvalues --   -0.29007  -0.28643  -0.28181  -0.28028  -0.25475
 Alpha  occ. eigenvalues --   -0.24881  -0.24157  -0.23979  -0.23795  -0.22487
 Alpha  occ. eigenvalues --   -0.18641  -0.15629  -0.14943  -0.14123  -0.13816
 Alpha  occ. eigenvalues --   -0.12843  -0.09411  -0.02763
 Alpha virt. eigenvalues --    0.06208   0.07715   0.08689   0.09194   0.09660
 Alpha virt. eigenvalues --    0.11120   0.11231   0.12177   0.12828   0.13525
 Alpha virt. eigenvalues --    0.14870   0.15105   0.15187   0.15950   0.16564

  Beta  occ. eigenvalues --  -19.00663 -19.00662 -18.96483 -18.96483 -10.11361
  Beta  occ. eigenvalues --  -10.11360 -10.11147 -10.11146 -10.06967 -10.06919
  Beta  occ. eigenvalues --  -10.06436 -10.06435 -10.06317 -10.06273 -10.05986
  Beta  occ. eigenvalues --  -10.05944 -10.05429 -10.05376  -0.92940  -0.92778
  Beta  occ. eigenvalues --   -0.87815  -0.87599  -0.74986  -0.72902  -0.67243
  Beta  occ. eigenvalues --   -0.64289  -0.63018  -0.61365  -0.55400  -0.52668
  Beta  occ. eigenvalues --   -0.51789  -0.47807  -0.46031  -0.42862  -0.41416
  Beta  occ. eigenvalues --   -0.40112  -0.38571  -0.35971  -0.35327  -0.34554
  Beta  occ. eigenvalues --   -0.31786  -0.31132  -0.30793  -0.29997  -0.29920
  Beta  occ. eigenvalues --   -0.28897  -0.28436  -0.27351  -0.27217  -0.25366
  Beta  occ. eigenvalues --   -0.23992  -0.23937  -0.23271  -0.22765  -0.22325
  Beta  occ. eigenvalues --   -0.17932  -0.14283  -0.13798  -0.13706  -0.13319
  Beta  occ. eigenvalues --   -0.12446  -0.08306
  Beta virt. eigenvalues --    0.02650   0.07163   0.07709   0.09194   0.09655
  Beta virt. eigenvalues --    0.09719   0.11127   0.11239   0.12750   0.12830
  Beta virt. eigenvalues --    0.13529   0.14918   0.15134   0.15183   0.16667

 Mulliken charges and spin densities:
               1          2
     1  C    0.017301   0.024117
     2  C   -0.440559   0.043305
     3  C   -0.440583   0.043311
     4  C    0.123726   0.037977
     5  C    0.123785   0.037977
     6  C    0.017374   0.024108
     7  C   -0.328756   0.102172
     8  C    0.583201  -0.008087
     9  C    0.583428  -0.008093
    10  C   -0.328777   0.102166
    11  C   -0.419480   0.045942
    12  C   -0.028391   0.072214
    13  C   -0.419707   0.045948
    14  C   -0.028436   0.072198
    15  O   -0.423452   0.179426
    16  O   -0.423438   0.179430
    17  O   -0.363233   0.017356
    18  H    0.161470  -0.000295
    19  H    0.127476  -0.003621
    20  H    0.127472  -0.003622
    21  H    0.161470  -0.000294
    22  H    0.337910  -0.004071
    23  O   -0.363195   0.017357
    24  H    0.152750  -0.006423
    25  H    0.152752  -0.006424
    26  H    0.337891  -0.004072
 Sum of Mulliken charges =  -1.00000   1.00000

 Dipole moment (field-independent basis, Debye):
    X=             -7.4388    Y=             11.9974    Z=             -3.5980  Tot=             14.5677
 Quadrupole moment (field-independent basis, Debye-Ang):
   XX=           -136.4419   YY=           -164.4025   ZZ=           -118.5303
   XY=             27.4388   XZ=             -4.6340   YZ=             18.6567

  Exact polarizability: 288.430   3.469 206.210 -77.960 -62.385 157.934
 Approx polarizability: 466.788 -22.656 381.619-111.675-117.051 256.513

                      1                      2                      3
                      A                      A                      A
 Frequencies --     60.5971                90.9911               145.0288
 Red. masses --      6.5502                 6.7644                 5.8080
 Frc consts  --      0.0142                 0.0330                 0.0720
 IR Inten    --      2.3563                 0.0000                 0.0000

                      4                      5                      6
                      A                      A                      A
 Frequencies --    150.8034               175.2765               213.8840
 Red. masses --      7.5419                 8.2208                 5.5123
 Frc consts  --      0.1011                 0.1488                 0.1486
 IR Inten    --      0.5342                 0.7393                 0.3636

                      7                      8                      9
                      A                      A                      A
 Frequencies --    243.8793               329.6906               345.1524
 Red. masses --      6.0291                 6.8819                 6.4072
 Frc consts  --      0.2113                 0.4407                 0.4497
 IR Inten    --      0.2530                 1.5023                 5.4726

                     10                     11                     12
                      A                      A                      A
 Frequencies --    374.2093               398.4114               413.1617
 Red. masses --      6.7534                12.5911                 6.5004
 Frc consts  --      0.5572                 1.1775                 0.6538
 IR Inten    --      0.0000                 0.1040                 0.0000

                     13                     14                     15
                      A                      A                      A
 Frequencies --    431.5680               437.3914               440.6570
 Red. masses --      7.3251                 3.3539                12.3026
 Frc consts  --      0.8038                 0.3780                 1.4075
 IR Inten    --     27.3206                 1.2340                 4.6331

                     16                     17                     18
                      A                      A                      A
 Frequencies --    471.7307               491.4463               518.4651
 Red. masses --     10.2064                 4.5671                 5.9630
 Frc consts  --      1.3382                 0.6499                 0.9444
 IR Inten    --      4.5484                 0.0000                18.9599

                     19                     20                     21
                      A                      A                      A
 Frequencies --    530.1053               587.3684               604.5667
 Red. masses --      9.6897                 3.3356                 5.4162
 Frc consts  --      1.6043                 0.6780                 1.1664
 IR Inten    --      0.5567                23.9619                 0.8390

                     22                     23                     24
                      A                      A                      A
 Frequencies --    640.4253               664.3103               709.8694
 Red. masses --      4.9796                 6.6617                 6.9839
 Frc consts  --      1.2033                 1.7321                 2.0735
 IR Inten    --      0.0000                 6.9172                27.1199

                     25                     26                     27
                      A                      A                      A
 Frequencies --    714.7233               716.3680               763.0925
 Red. masses --      2.2345                 6.8997                 7.3130
 Frc consts  --      0.6725                 2.0862                 2.5090
 IR Inten    --     19.5435                 0.0002                18.5569

                     28                     29                     30
                      A                      A                      A
 Frequencies --    776.9319               779.9603               817.9603
 Red. masses --      5.6189                 1.8223                 1.7598
 Frc consts  --      1.9983                 0.6531                 0.6937
 IR Inten    --      0.0000                51.1707                48.2256

                     31                     32                     33
                      A                      A                      A
 Frequencies --    867.5189               879.3753               898.4639
 Red. masses --      1.4332                 7.6095                 1.3111
 Frc consts  --      0.6355                 3.4670                 0.6236
 IR Inten    --      0.0000                37.2475                 0.0033

                     34                     35                     36
                      A                      A                      A
 Frequencies --    913.7665               915.9313               917.3759
 Red. masses --      7.8630                 1.0615                 1.0578
 Frc consts  --      3.8682                 0.5247                 0.5245
 IR Inten    --     20.1809                11.7845               131.2160

                     37                     38                     39
                      A                      A                      A
 Frequencies --    981.1534               982.2905               983.0267
 Red. masses --      1.3624                 5.9841                 1.2600
 Frc consts  --      0.7727                 3.4020                 0.7174
 IR Inten    --      1.7042                58.2085                 0.0016

                     40                     41                     42
                      A                      A                      A
 Frequencies --   1033.2642              1070.6188              1110.5750
 Red. masses --      2.3980                 1.9556                 2.2217
 Frc consts  --      1.5084                 1.3207                 1.6145
 IR Inten    --     24.5901                 6.5532                26.6241

                     43                     44                     45
                      A                      A                      A
 Frequencies --   1148.9806              1171.2120              1194.4602
 Red. masses --      1.4239                 1.4845                 2.0525
 Frc consts  --      1.1075                 1.1998                 1.7254
 IR Inten    --     21.7727                11.1809                24.0712

                     46                     47                     48
                      A                      A                      A
 Frequencies --   1245.9862              1256.2026              1283.0992
 Red. masses --      1.7061                 3.9874                 7.5571
 Frc consts  --      1.5606                 3.7073                 7.3303
 IR Inten    --      1.3479                 0.3507                 0.6725

                     49                     50                     51
                      A                      A                      A
 Frequencies --   1284.5176              1308.3928              1325.6839
 Red. masses --      2.6263                 4.1233                 3.1087
 Frc consts  --      2.5532                 4.1589                 3.2189
 IR Inten    --     95.7101               133.0156               272.0127

                     52                     53                     54
                      A                      A                      A
 Frequencies --   1360.4575              1380.1921              1404.5250
 Red. masses --     10.7299                 5.7928                 2.8916
 Frc consts  --     11.7008                 6.5015                 3.3608
 IR Inten    --     11.1738                 0.1343               284.9983

                     55                     56                     57
                      A                      A                      A
 Frequencies --   1453.0305              1484.0400              1488.0693
 Red. masses --      5.7037                 2.3783                 4.0299
 Frc consts  --      7.0950                 3.0861                 5.2576
 IR Inten    --      0.0507                31.0718               132.5430

                     58                     59                     60
                      A                      A                      A
 Frequencies --   1512.0719              1523.7431              1564.1778
 Red. masses --      2.1401                 4.7502                 4.9743
 Frc consts  --      2.8829                 6.4981                 7.1706
 IR Inten    --    579.4867               302.9226                59.8151

                     61                     62                     63
                      A                      A                      A
 Frequencies --   1600.1767              1623.6533              1638.0425
 Red. masses --      1.8056                 5.7362                 5.6608
 Frc consts  --      2.7240                 8.9096                 8.9490
 IR Inten    --    156.5854                 0.7692                 0.9174

                     64                     65                     66
                      A                      A                      A
 Frequencies --   1654.3755              2998.3132              3005.8154
 Red. masses --      2.5036                 1.0726                 1.0731
 Frc consts  --      4.0372                 5.6814                 5.7123
 IR Inten    --      4.0541                 0.3968               555.5873

                     67                     68                     69
                      A                      A                      A
 Frequencies --   3139.0759              3157.6525              3162.6628
 Red. masses --      1.0850                 1.0913                 1.0864
 Frc consts  --      6.2990                 6.4108                 6.4027
 IR Inten    --     17.2635                45.1808                19.8047

                     70                     71                     72
                      A                      A                      A
 Frequencies --   3179.6332              3187.5169              3189.8443
 Red. masses --      1.0936                 1.0915                 1.0930
 Frc consts  --      6.5144                 6.5341                 6.5526
 IR Inten    --     32.3018                 7.8966                25.4144

 - Thermochemistry -
 -------------------
 Temperature   298.150 Kelvin.  Pressure   1.00000 Atm.
 Atom     1 has atomic number  6 and mass  12.00000

 Molecular mass:   240.04226 amu.
 Principal axes and moments of inertia in atomic units:
                           1         2         3
     Eigenvalues --  2563.691164632.940787196.63191
           X            0.84611  -0.42265   0.32476
           Y            0.25437   0.85561   0.45081
           Z           -0.46841  -0.29883   0.83144
 This molecule is an asymmetric top.
 Rotational symmetry number  1.
 Warning -- assumption of classical behavior for rotation
           may cause significant error
 Rotational temperatures (Kelvin)      0.03378     0.01870     0.01204
 Rotational constants (GHZ):           0.70396     0.38955     0.25078
 Zero-point vibrational energy     487579.9 (Joules/Mol)
                                  116.53439 (Kcal/Mol)
 Warning -- explicit consideration of  21 degrees of freedom as
           vibrations may cause significant error
 Vibrational temperatures:     87.19   130.92   208.66   216.97   252.18
          (Kelvin)            307.73   350.89   474.35   496.60   538.40
                              573.23   594.45   620.93   629.31   634.01
                              678.72   707.08   745.96   762.70   845.09
                              869.84   921.43   955.79  1021.34  1028.33
                             1030.69  1097.92  1117.83  1122.19  1176.86
                             1248.17  1265.22  1292.69  1314.71  1317.82
                             1319.90  1411.66  1413.30  1414.36  1486.64
                             1540.38  1597.87  1653.13  1685.11  1718.56
                             1792.70  1807.40  1846.09  1848.13  1882.49
                             1907.36  1957.39  1985.79  2020.80  2090.59
                             2135.20  2141.00  2175.53  2192.33  2250.50
                             2302.30  2336.07  2356.78  2380.28  4313.90
                             4324.70  4516.43  4543.16  4550.37  4574.78
                             4586.13  4589.47

 Zero-point correction=                           0.185709 (Hartree/Particle)
 Thermal correction to Energy=                    0.198415
 Thermal correction to Enthalpy=                  0.199359
 Thermal correction to Gibbs Free Energy=         0.146185
 Sum of electronic and zero-point Energies=           -839.362879
 Sum of electronic and thermal Energies=              -839.350174
 Sum of electronic and thermal Enthalpies=            -839.349230
 Sum of electronic and thermal Free Energies=         -839.402404

                     E (Thermal)             CV                S
                      KCal/Mol        Cal/Mol-Kelvin    Cal/Mol-Kelvin
 Total                  124.507             52.713            111.914
 Electronic               0.000              0.000              1.377
 Translational            0.889              2.981             42.328
 Rotational               0.889              2.981             32.813
 Vibrational            122.730             46.751             35.395
 Vibration     1          0.597              1.973              4.438
 Vibration     2          0.602              1.956              3.639
 Vibration     3          0.616              1.908              2.736
 Vibration     4          0.618              1.902              2.662
 Vibration     5          0.627              1.873              2.378
 Vibration     6          0.644              1.820              2.010
 Vibration     7          0.659              1.773              1.774
 Vibration     8          0.712              1.616              1.262
 Vibration     9          0.724              1.585              1.188
 Vibration    10          0.745              1.525              1.062
 Vibration    11          0.765              1.474              0.969
 Vibration    12          0.777              1.442              0.916
 Vibration    13          0.793              1.401              0.854
 Vibration    14          0.798              1.389              0.835
 Vibration    15          0.801              1.381              0.825
 Vibration    16          0.829              1.313              0.733
 Vibration    17          0.847              1.269              0.680
 Vibration    18          0.873              1.209              0.614
 Vibration    19          0.885              1.183              0.587
 Vibration    20          0.945              1.059              0.472
 Vibration    21          0.963              1.022              0.442

 Optimization completed.
    -- Stationary point found.
 Normal termination of Gaussian 16 at Sun Jan  7 06:23:04 2024.
