 Q-Chem 5.4, Q-Chem, Inc., Pleasanton, CA (2021)
 Q-Chem 5.4.0 for Intel X86 EM64T Linux

User input:
--------------------------------------------------------------
$molecule
-1 2
C                 -1.2353400000      2.8744710000     -0.0821850000
C                 -2.5335630000      2.3995080000     -0.0970400000
C                 -2.7785500000      1.0117980000     -0.0498620000
C                 -0.1359130000      1.9913970000     -0.0206610000
C                 -0.3853490000      0.5918420000      0.0271910000
C                 -1.7146740000      0.1292160000      0.0113380000
C                  1.2238420000      2.5457340000     -0.0048570000
C                  2.2856740000      1.5558200000      0.0583070000
C                  2.0462750000      0.1966260000      0.1039190000
C                  0.7260140000     -0.3721920000      0.0927030000
O                  1.4494500000      3.7825990000     -0.0402940000
O                  0.5300790000     -1.6156640000      0.1345420000
H                 -1.0204710000      3.9364780000     -0.1173830000
H                 -1.8683370000     -0.9435580000      0.0488750000
O                  3.5472650000      2.1036170000      0.0685430000
C                  4.6539500000      1.2356620000      0.2254420000
C                  5.8903870000      2.0788630000      0.3112520000
C                  7.0251600000      1.8266020000     -0.3363670000
H                 -3.3662660000      3.0956160000     -0.1452920000
H                 -3.7985990000      0.6388130000     -0.0615140000
H                  2.8562040000     -0.5213900000      0.1469570000
H                  4.7267710000      0.5248620000     -0.6086110000
H                  4.5396210000      0.6488940000      1.1503890000
H                  5.8133450000      2.9381850000      0.9729690000
H                  7.1161770000      0.9865070000     -1.0190310000
H                  7.9027570000      2.4514040000     -0.2100210000
$end

$rem
BASIS  =  6-311++G(d,p)
GUI  =  2
JOB_TYPE  =  SP
METHOD  =  B3LYP
SCF_CONVERGENCE  = 8
SOLVENT_METHOD = sm12
$end

$smx
solvent dimethylformamide
charges CM5
$end

--------------------------------------------------------------

             Standard Nuclear Orientation (Angstroms)
    I     Atom           X                Y                Z
 ----------------------------------------------------------------
    1      C      -1.2353400000     2.8744710000    -0.0821850000
    2      C      -2.5335630000     2.3995080000    -0.0970400000
    3      C      -2.7785500000     1.0117980000    -0.0498620000
    4      C      -0.1359130000     1.9913970000    -0.0206610000
    5      C      -0.3853490000     0.5918420000     0.0271910000
    6      C      -1.7146740000     0.1292160000     0.0113380000
    7      C       1.2238420000     2.5457340000    -0.0048570000
    8      C       2.2856740000     1.5558200000     0.0583070000
    9      C       2.0462750000     0.1966260000     0.1039190000
   10      C       0.7260140000    -0.3721920000     0.0927030000
   11      O       1.4494500000     3.7825990000    -0.0402940000
   12      O       0.5300790000    -1.6156640000     0.1345420000
   13      H      -1.0204710000     3.9364780000    -0.1173830000
   14      H      -1.8683370000    -0.9435580000     0.0488750000
   15      O       3.5472650000     2.1036170000     0.0685430000
   16      C       4.6539500000     1.2356620000     0.2254420000
   17      C       5.8903870000     2.0788630000     0.3112520000
   18      C       7.0251600000     1.8266020000    -0.3363670000
   19      H      -3.3662660000     3.0956160000    -0.1452920000
   20      H      -3.7985990000     0.6388130000    -0.0615140000
   21      H       2.8562040000    -0.5213900000     0.1469570000
   22      H       4.7267710000     0.5248620000    -0.6086110000
   23      H       4.5396210000     0.6488940000     1.1503890000
   24      H       5.8133450000     2.9381850000     0.9729690000
   25      H       7.1161770000     0.9865070000    -1.0190310000
   26      H       7.9027570000     2.4514040000    -0.2100210000
 ----------------------------------------------------------------

   17    -727.2970505734      4.68e-09  Convergence criterion met
 Total energy in the final basis set =     -727.3854160148

                    Orbital Energies (a.u.)
 --------------------------------------------------------------

 Alpha MOs
 -- Occupied --
-19.1537 -19.0754 -19.0729 -10.2315 -10.2307 -10.2251 -10.2221 -10.1830
-10.1824 -10.1820 -10.1800 -10.1793 -10.1785 -10.1781 -10.1723 -10.1627
 -1.0703  -0.9979  -0.9961  -0.8642  -0.8150  -0.7922  -0.7577  -0.7446
 -0.7084  -0.6664  -0.6274  -0.6091  -0.5751  -0.5636  -0.5311  -0.5189
 -0.4952  -0.4886  -0.4683  -0.4571  -0.4451  -0.4339  -0.4256  -0.4176
 -0.4109  -0.4061  -0.3996  -0.3789  -0.3705  -0.3625  -0.3607  -0.3479
 -0.3351  -0.3305  -0.2744  -0.2696  -0.2643  -0.2431  -0.2423  -0.2371
 -0.1500

 Beta MOs
 -- Occupied --
-19.1529 -19.0682 -19.0672 -10.2308 -10.2300 -10.2240 -10.2203 -10.1828
-10.1824 -10.1813 -10.1795 -10.1795 -10.1783 -10.1771 -10.1723 -10.1621
 -1.0684  -0.9873  -0.9843  -0.8621  -0.8119  -0.7903  -0.7558  -0.7428
 -0.7059  -0.6596  -0.6258  -0.6066  -0.5740  -0.5622  -0.5293  -0.5172
 -0.4930  -0.4870  -0.4663  -0.4561  -0.4432  -0.4332  -0.4205  -0.4141
 -0.4039  -0.4012  -0.3950  -0.3699  -0.3617  -0.3591  -0.3508  -0.3470
 -0.3329  -0.3177  -0.2736  -0.2576  -0.2495  -0.2368  -0.2315  -0.2311

          Ground-State Mulliken Net Atomic Charges

     Atom                 Charge (a.u.)    Spin (a.u.)
  --------------------------------------------------------
      1 C                    -0.143407       0.062366
      2 C                     0.791645       0.014600
      3 C                     0.799159       0.053192
      4 C                    -1.068947       0.013371
      5 C                    -0.889765       0.062368
      6 C                    -0.012796       0.005494
      7 C                    -1.171497       0.090648
      8 C                    -0.144813       0.132879
      9 C                     0.382122       0.022316
     10 C                    -1.107018       0.052814
     11 O                    -0.378500       0.276092
     12 O                    -0.366921       0.208480
     13 H                     0.139548      -0.003590
     14 H                     0.137011      -0.000946
     15 O                    -0.061573       0.016458
     16 C                    -0.375647       0.002677
     17 C                     0.520981       0.000249
     18 C                     0.079574      -0.000862
     19 H                     0.356855      -0.001527
     20 H                     0.358368      -0.003883
     21 H                     0.230549      -0.005186
     22 H                     0.125421       0.001032
     23 H                     0.183553       0.000942
     24 H                     0.173169      -0.000012
     25 H                     0.201676       0.000022
     26 H                     0.241251       0.000006
  --------------------------------------------------------
  Sum of atomic charges =    -1.000000

                    Cartesian Multipole Moments
 -----------------------------------------------------------------
    Charge (ESU x 10^10)
                -4.8032
    Dipole Moment (Debye)
         X      -2.7875      Y      -6.0530      Z      -0.0360
       Tot       6.6641
    Quadrupole Moments (Debye-Ang)
        XX     -94.7871     XY     -11.6656     YY    -139.6800
        XZ       0.0458     YZ       2.3585     ZZ     -99.6484

 Total job time:  515.42s(wall), 3995.91s(cpu)
        *  Thank you very much for using Q-Chem.  Have a nice day.  *
