 Q-Chem 5.4, Q-Chem, Inc., Pleasanton, CA (2021)
 Q-Chem 5.4.0 for Intel X86 EM64T Linux

User input:
--------------------------------------------------------------
$molecule
-2 1
O                 -2.6943580000      2.5240530000     -0.4545760000
C                 -2.6507730000      1.1853820000     -0.2205190000
C                 -3.8268080000      0.4686130000     -0.1002860000
C                 -3.7844330000     -0.9308320000      0.1443300000
C                 -2.5760120000     -1.5822220000      0.2632580000
C                 -1.3459420000     -0.8842470000      0.1466570000
C                 -0.0976280000     -1.6343320000      0.2824320000
O                 -0.1228510000     -2.8866630000      0.4990510000
C                  1.1237450000     -0.8495620000      0.1521430000
C                  2.4275570000     -1.4341140000      0.2616760000
O                  2.5609890000     -2.7998940000      0.5022130000
C                  3.5759230000     -0.6807570000      0.1358170000
C                  3.5175480000      0.7205260000     -0.1082030000
C                  2.3000520000      1.3440520000     -0.2241680000
O                  2.2527400000      2.6878410000     -0.4588220000
C                  1.0680900000      0.5914800000     -0.0997490000
C                 -0.1672000000      1.2728700000     -0.2249770000
O                 -0.2173620000      2.6091210000     -0.4588330000
C                 -1.3703530000      0.5303060000     -0.1005970000
H                 -1.7043040000      2.7981230000     -0.4985130000
H                 -4.7706820000      0.9988020000     -0.1969550000
H                 -4.7178210000     -1.4841680000      0.2369480000
H                 -2.5140910000     -2.6485720000      0.4494760000
H                  3.5109140000     -2.9527780000      0.5548540000
H                  4.5463460000     -1.1717110000      0.2247580000
H                  4.4248000000      1.3095090000     -0.2062240000
H                  1.2519140000      2.8991730000     -0.5011930000
$end
$rem
MAX_SCF_CYCLES=200
BASIS  =  6-311++G(d,p)
GUI  =  2
JOB_TYPE  =  SP
METHOD  =  B3LYP
SOLVENT_METHOD = COSMO
$end
$solvent
dielectric 37.219
opticaldielectric 1.43
$end

--------------------------------------------------------------

             Standard Nuclear Orientation (Angstroms)
    I     Atom           X                Y                Z
 ----------------------------------------------------------------
    1      O       3.0843628660    -2.0609036154     0.0005884948
    2      C       2.8267763982    -0.7258487142     0.0005920698
    3      C       3.8733351334     0.1774707878     0.0014786588
    4      C       3.6072053753     1.5736276149     0.0014321774
    5      C       2.3093942119     2.0366821844     0.0005580394
    6      C       1.2064555956     1.1437304198    -0.0002503551
    7      C      -0.1465525639     1.6993534910    -0.0017075969
    8      O      -0.3222822332     2.9583245353    -0.0036868392
    9      C      -1.2270402542     0.7210196713    -0.0010220763
   10      C      -2.6084060885     1.1024011951    -0.0001192127
   11      O      -2.9591120867     2.4507412186     0.0011611838
   12      C      -3.6218038288     0.1669030672    -0.0001160642
   13      C      -3.3396096465    -1.2284151161     0.0009124612
   14      C      -2.0372421726    -1.6624279165    -0.0000445673
   15      O      -1.7751647435    -3.0019745295     0.0002627506
   16      C      -0.9411303538    -0.7147395783    -0.0009200824
   17      C       0.3880543234    -1.2038038487    -0.0009576771
   18      O       0.6517544757    -2.5354320940    -0.0011473213
   19      C       1.4572680941    -0.2704066727    -0.0002911939
   20      H       2.1505346336    -2.4912704353    -0.0004017374
   21      H       4.8904610918    -0.2056711805     0.0021236154
   22      H       4.4403256888     2.2749707188     0.0020447610
   23      H       2.0773539599     3.0958190372     0.0002048635
   24      H      -3.9224434727     2.4584140485     0.0220385996
   25      H      -4.6588296060     0.5063761711    -0.0017530398
   26      H      -4.1412354039    -1.9612256784     0.0012398302
   27      H      -0.7528584587    -3.0567363101    -0.0001905268
 ----------------------------------------------------------------

   11    -914.7054154566      9.10e-06  Convergence criterion met
 Total energy in the final basis set =     -914.7054154566
    6    -914.9754171208      2.66e-06  Convergence criterion met
 Total energy in the final basis set =     -914.9754171208

                    Orbital Energies (a.u.)
 --------------------------------------------------------------

 Alpha MOs
 -- Occupied --
-19.1315 -19.1128 -19.1078 -19.0645 -19.0315 -10.2155 -10.2124 -10.2081
-10.1954 -10.1924 -10.1582 -10.1549 -10.1547 -10.1541 -10.1489 -10.1463
-10.1456 -10.1450 -10.1431  -1.0388  -1.0333  -1.0239  -0.9579  -0.9559
 -0.8341  -0.8185  -0.7644  -0.7230  -0.7203  -0.7103  -0.6521  -0.6218
 -0.6132  -0.5664  -0.5609  -0.5340  -0.5130  -0.5015  -0.4840  -0.4610
 -0.4530  -0.4456  -0.4273  -0.4174  -0.4142  -0.3987  -0.3960  -0.3930
 -0.3826  -0.3766  -0.3757  -0.3614  -0.3527  -0.3520  -0.3397  -0.3334
 -0.3329  -0.3201  -0.3054  -0.2874  -0.2457  -0.2411  -0.2268  -0.2109
 -0.2049  -0.1964  -0.1206

          Ground-State Mulliken Net Atomic Charges

     Atom                 Charge (a.u.)
  ----------------------------------------
      1 O                    -0.501899
      2 C                    -0.029435
      3 C                    -0.365256
      4 C                    -0.423190
      5 C                    -0.258691
      6 C                     0.238487
      7 C                    -0.224874
      8 O                    -0.649975
      9 C                     0.094378
     10 C                    -0.352158
     11 O                    -0.299327
     12 C                    -0.257614
     13 C                    -0.232589
     14 C                    -0.295721
     15 O                    -0.515343
     16 C                     0.569698
     17 C                    -0.247126
     18 O                    -0.796351
     19 C                     0.453108
     20 H                     0.457993
     21 H                     0.181407
     22 H                     0.189321
     23 H                     0.151512
     24 H                     0.303115
     25 H                     0.171198
     26 H                     0.187364
     27 H                     0.451969
  ----------------------------------------
  Sum of atomic charges =    -2.000000

                    Cartesian Multipole Moments
 -----------------------------------------------------------------
    Charge (ESU x 10^10)
                -9.6064
    Dipole Moment (Debye)
         X      -2.9773      Y      -0.3260      Z       0.0493
       Tot       2.9955
    Quadrupole Moments (Debye-Ang)
        XX    -138.1282     XY       2.6728     YY    -180.2610
        XZ      -0.1679     YZ       0.1374     ZZ    -121.1440

 Total job time:  186.67s(wall), 589.98s(cpu)
        *  Thank you very much for using Q-Chem.  Have a nice day.  *
