 Gaussian 16, Revision A.03,
 Gaussian 16:  ES64L-G16RevA.03 25-Dec-2016

 --------------------------------------
 #P UB3LYP/6-311++G(d,p) nosym opt freq
 --------------------------------------

 -------
 Radical
 -------
 Symbolic Z-matrix:
 Charge = -1 Multiplicity = 2

 SCF Done:  E(UB3LYP) =  -496.168098002     A.U. after   20 cycles
 SCF Done:  E(UB3LYP) =  -496.189897108     A.U. after   17 cycles
 SCF Done:  E(UB3LYP) =  -496.191537691     A.U. after   16 cycles
 SCF Done:  E(UB3LYP) =  -496.191724253     A.U. after   15 cycles
 SCF Done:  E(UB3LYP) =  -496.192578497     A.U. after   18 cycles
 SCF Done:  E(UB3LYP) =  -496.191469590     A.U. after   19 cycles
 SCF Done:  E(UB3LYP) =  -496.193633640     A.U. after   16 cycles
 SCF Done:  E(UB3LYP) =  -496.194426130     A.U. after   17 cycles
 SCF Done:  E(UB3LYP) =  -496.196060650     A.U. after   17 cycles
 SCF Done:  E(UB3LYP) =  -496.196309503     A.U. after   16 cycles
 SCF Done:  E(UB3LYP) =  -496.196488046     A.U. after   15 cycles
 SCF Done:  E(UB3LYP) =  -496.196568735     A.U. after   15 cycles
 SCF Done:  E(UB3LYP) =  -496.196571704     A.U. after   13 cycles
 SCF Done:  E(UB3LYP) =  -496.196572605     A.U. after   11 cycles
 SCF Done:  E(UB3LYP) =  -496.196572907     A.U. after   11 cycles
 SCF Done:  E(UB3LYP) =  -496.196573128     A.U. after   12 cycles
 Optimization completed.
    -- Stationary point found.
 Normal termination of Gaussian 16 at Wed Dec 20 01:55:35 2023.

 ----------------------------------------------------------------------
 #P Geom=AllCheck Guess=TCheck SCRF=Check GenChk UB3LYP/6-311++G(d,p) F
 req
 ----------------------------------------------------------------------

 Structure from the checkpoint file:  "082-rad.chk"
 -------
 Radical
 -------
 Charge = -1 Multiplicity = 2

                          Input orientation:
 ---------------------------------------------------------------------
 Center     Atomic      Atomic             Coordinates (Angstroms)
 Number     Number       Type             X           Y           Z
 ---------------------------------------------------------------------
      1          6           0        2.610286   -0.180426    0.713109
      2          8           0        1.826802    0.233805   -0.404237
      3          6           0        0.453134    0.144946   -0.248636
      4          6           0       -0.288979    1.269375   -0.498914
      5          6           0       -1.735951    1.285259   -0.440491
      6          8           0       -2.411960    2.328418   -0.672259
      7          6           0       -2.350418    0.021471   -0.085305
      8          6           0       -1.607924   -1.102963    0.162765
      9          6           0       -0.164853   -1.138081    0.082096
     10          8           0        0.503314   -2.198351    0.269368
     11          1           0        2.406690   -1.221586    0.968115
     12          1           0        3.654323   -0.058000    0.414326
     13          1           0        2.410097    0.463670    1.581228
     14          1           0        0.216548    2.193753   -0.759406
     15          1           0       -3.435215    0.003990   -0.026559
     16          1           0       -2.085895   -2.045281    0.417360
 ---------------------------------------------------------------------

 SCF Done:  E(UB3LYP) =  -496.196573128     A.U. after    1 cycles

 Alpha  occ. eigenvalues --  -19.00744 -18.93424 -18.92997 -10.08926 -10.08212
 Alpha  occ. eigenvalues --  -10.07988 -10.07710 -10.02685 -10.02495 -10.02009
 Alpha  occ. eigenvalues --   -0.91984  -0.85187  -0.84916  -0.68191  -0.61492
 Alpha  occ. eigenvalues --   -0.56235  -0.53440  -0.46121  -0.43191  -0.36065
 Alpha  occ. eigenvalues --   -0.35051  -0.33245  -0.32522  -0.30357  -0.28889
 Alpha  occ. eigenvalues --   -0.26273  -0.25938  -0.24027  -0.23029  -0.22820
 Alpha  occ. eigenvalues --   -0.21802  -0.16614  -0.13684  -0.10756  -0.09442
 Alpha  occ. eigenvalues --   -0.09256  -0.01958
 Alpha virt. eigenvalues --    0.09230   0.10838   0.12090   0.12378   0.13087
 Alpha virt. eigenvalues --    0.13195   0.14334   0.15970   0.16621   0.17585
 Alpha virt. eigenvalues --    0.18736   0.18810   0.20126   0.20933   0.21287

  Beta  occ. eigenvalues --  -19.00729 -18.92687 -18.92262 -10.08923 -10.08106
  Beta  occ. eigenvalues --  -10.07839 -10.07629 -10.02597 -10.02332 -10.01922
  Beta  occ. eigenvalues --   -0.91894  -0.83925  -0.83629  -0.67588  -0.61268
  Beta  occ. eigenvalues --   -0.55959  -0.52499  -0.45725  -0.42883  -0.35870
  Beta  occ. eigenvalues --   -0.34840  -0.33069  -0.32096  -0.30226  -0.28680
  Beta  occ. eigenvalues --   -0.25261  -0.24783  -0.23464  -0.22636  -0.21508
  Beta  occ. eigenvalues --   -0.19900  -0.16220  -0.10654  -0.09617  -0.08772
  Beta  occ. eigenvalues --   -0.08569
  Beta virt. eigenvalues --    0.05397   0.09247   0.10850   0.12105   0.12442
  Beta virt. eigenvalues --    0.13148   0.14348   0.14427   0.16024   0.17522
  Beta virt. eigenvalues --    0.17806   0.18866   0.19805   0.20248   0.20997

 Mulliken charges and spin densities:
               1          2
     1  C   -0.275644   0.006462
     2  O   -0.190006  -0.000204
     3  C   -0.368350   0.105576
     4  C    0.699858   0.033980
     5  C   -0.789135   0.089092
     6  O   -0.422103   0.259268
     7  C    0.247092   0.119559
     8  C    0.063311   0.083349
     9  C   -0.383224   0.059675
    10  O   -0.428763   0.267164
    11  H    0.185721  -0.002176
    12  H    0.105066   0.001218
    13  H    0.093058   0.000123
    14  H    0.174854  -0.007139
    15  H    0.140859  -0.009214
    16  H    0.147406  -0.006734
 Sum of Mulliken charges =  -1.00000   1.00000

 Dipole moment (field-independent basis, Debye):
    X=              3.9359    Y=             -1.0476    Z=              2.0078  Tot=              4.5410
 Quadrupole moment (field-independent basis, Debye-Ang):
   XX=            -77.1297   YY=            -87.4424   ZZ=            -64.2603
   XY=             15.9385   XZ=             -1.8084   YZ=              5.0239

  Exact polarizability: 138.925 -24.196 133.995   8.800 -16.307  69.045
 Approx polarizability: 199.788 -57.383 229.278  11.816 -30.687 102.483

                      1                      2                      3
                      A                      A                      A
 Frequencies --     86.4634               116.5837               147.1057
 Red. masses --      2.6329                 5.3527                 1.3659
 Frc consts  --      0.0116                 0.0429                 0.0174
 IR Inten    --      4.2347                 9.3849                 0.8686

                      4                      5                      6
                      A                      A                      A
 Frequencies --    200.4374               277.9786               329.0952
 Red. masses --      2.9771                 5.7825                 6.5228
 Frc consts  --      0.0705                 0.2633                 0.4162
 IR Inten    --      5.5616                 3.9432                 0.5190

                      7                      8                      9
                      A                      A                      A
 Frequencies --    357.2108               378.9736               448.3570
 Red. masses --      4.7489                 9.4314                 6.8775
 Frc consts  --      0.3570                 0.7981                 0.8146
 IR Inten    --      3.2724                 5.6606                 3.3789

                     10                     11                     12
                      A                      A                      A
 Frequencies --    470.2759               503.9001               614.2237
 Red. masses --      3.5451                 6.1332                 3.9603
 Frc consts  --      0.4619                 0.9175                 0.8803
 IR Inten    --      2.7577                 1.5968                 6.0395

                     13                     14                     15
                      A                      A                      A
 Frequencies --    652.8227               704.1452               735.3045
 Red. masses --      3.1833                 6.9040                 3.1771
 Frc consts  --      0.7993                 2.0169                 1.0121
 IR Inten    --      7.0112                 5.9762                 1.3815

                     16                     17                     18
                      A                      A                      A
 Frequencies --    811.3355               818.5495               869.1050
 Red. masses --      3.2024                 2.9208                 1.5980
 Frc consts  --      1.2420                 1.1530                 0.7112
 IR Inten    --     32.2488                26.3959                34.1094

                     19                     20                     21
                      A                      A                      A
 Frequencies --    910.6299               933.1886              1028.4886
 Red. masses --      3.6168                 1.2594                 4.0817
 Frc consts  --      1.7671                 0.6462                 2.5439
 IR Inten    --     11.3558                 0.9877                20.6611

                     22                     23                     24
                      A                      A                      A
 Frequencies --   1089.5970              1162.3191              1168.4762
 Red. masses --      1.8331                 1.7797                 1.4896
 Frc consts  --      1.2823                 1.4166                 1.1983
 IR Inten    --     59.5097               148.8363                31.3733

                     25                     26                     27
                      A                      A                      A
 Frequencies --   1208.1037              1214.4397              1238.6537
 Red. masses --      2.0011                 1.6543                 2.2196
 Frc consts  --      1.7208                 1.4375                 2.0064
 IR Inten    --     44.3915                17.0697                61.6768

                     28                     29                     30
                      A                      A                      A
 Frequencies --   1340.6082              1426.3251              1445.0415
 Red. masses --      2.1567                 3.5730                 1.3713
 Frc consts  --      2.2837                 4.2827                 1.6872
 IR Inten    --     33.1448                34.0474                49.3115

                     31                     32                     33
                      A                      A                      A
 Frequencies --   1474.8780              1486.7169              1517.7352
 Red. masses --      1.1164                 5.9757                 5.3342
 Frc consts  --      1.4309                 7.7821                 7.2395
 IR Inten    --     13.4218                 7.1896                26.0001

                     34                     35                     36
                      A                      A                      A
 Frequencies --   1518.8933              1529.7270              1641.2024
 Red. masses --      1.0531                 5.6627                 7.0522
 Frc consts  --      1.4315                 7.8073                11.1917
 IR Inten    --     10.8538               523.6208                17.5504

                     37                     38                     39
                      A                      A                      A
 Frequencies --   2972.5386              3060.6627              3105.3824
 Red. masses --      1.0471                 1.0840                 1.1050
 Frc consts  --      5.4513                 5.9830                 6.2783
 IR Inten    --    133.5318                89.8836                10.9771

                     40                     41                     42
                      A                      A                      A
 Frequencies --   3132.1751              3154.5637              3164.3012
 Red. masses --      1.0850                 1.0943                 1.0899
 Frc consts  --      6.2714                 6.4161                 6.4299
 IR Inten    --     21.1729                47.4247                11.1249

 - Thermochemistry -
 -------------------
 Temperature   298.150 Kelvin.  Pressure   1.00000 Atm.
 Atom     1 has atomic number  6 and mass  12.00000

 Molecular mass:   138.03169 amu.
 Principal axes and moments of inertia in atomic units:
                           1         2         3
     Eigenvalues --   729.974851714.213362367.69265
           X            0.87119   0.48627  -0.06759
           Y           -0.46417   0.86068   0.20924
           Z            0.15992  -0.15091   0.97553
 This molecule is an asymmetric top.
 Rotational symmetry number  1.
 Warning -- assumption of classical behavior for rotation
           may cause significant error
 Rotational temperatures (Kelvin)      0.11865     0.05053     0.03658
 Rotational constants (GHZ):           2.47233     1.05281     0.76224
 Zero-point vibrational energy     301737.2 (Joules/Mol)
                                   72.11691 (Kcal/Mol)
 Warning -- explicit consideration of  12 degrees of freedom as
           vibrations may cause significant error
 Vibrational temperatures:    124.40   167.74   211.65   288.38   399.95
          (Kelvin)            473.49   513.95   545.26   645.09   676.62
                              725.00   883.73   939.27  1013.11  1057.94
                             1167.33  1177.71  1250.45  1310.19  1342.65
                             1479.77  1567.69  1672.32  1681.18  1738.19
                             1747.31  1782.15  1928.84  2052.16  2079.09
                             2122.02  2139.05  2183.68  2185.35  2200.94
                             2361.32  4276.82  4403.61  4467.95  4506.50
                             4538.71  4552.72

 Zero-point correction=                           0.114926 (Hartree/Particle)
 Thermal correction to Energy=                    0.123679
 Thermal correction to Enthalpy=                  0.124623
 Thermal correction to Gibbs Free Energy=         0.080398
 Sum of electronic and zero-point Energies=           -496.081648
 Sum of electronic and thermal Energies=              -496.072894
 Sum of electronic and thermal Enthalpies=            -496.071950
 Sum of electronic and thermal Free Energies=         -496.116175

                     E (Thermal)             CV                S
                      KCal/Mol        Cal/Mol-Kelvin    Cal/Mol-Kelvin
 Total                   77.610             32.577             93.079
 Electronic               0.000              0.000              1.377
 Translational            0.889              2.981             40.679
 Rotational               0.889              2.981             29.473
 Vibrational             75.832             26.616             21.550
 Vibration     1          0.601              1.959              3.739
 Vibration     2          0.608              1.936              3.156
 Vibration     3          0.617              1.906              2.709
 Vibration     4          0.638              1.839              2.129
 Vibration     5          0.679              1.714              1.546
 Vibration     6          0.712              1.617              1.265
 Vibration     7          0.732              1.560              1.134
 Vibration     8          0.749              1.515              1.043
 Vibration     9          0.807              1.365              0.801
 Vibration    10          0.827              1.316              0.737
 Vibration    11          0.859              1.241              0.648
 Vibration    12          0.974              1.002              0.426

                           ! Non-Optimized Parameters !
 Normal termination of Gaussian 16 at Wed Dec 20 02:07:32 2023.
