 Q-Chem 5.4, Q-Chem, Inc., Pleasanton, CA (2021)
 Q-Chem 5.4.0 for Intel X86 EM64T Linux

User input:
--------------------------------------------------------------
$molecule
-1 2
C                 -1.7977400000      2.8011950000     -0.7501200000
C                 -2.9023300000      1.9975220000     -0.5349130000
C                 -2.7311550000      0.6462740000     -0.1668430000
C                 -0.4834390000      2.3072990000     -0.6117870000
C                 -0.3177680000      0.9355880000     -0.2381750000
C                 -1.4557870000      0.1292370000     -0.0223040000
C                  0.6541440000      3.2075490000     -0.8530660000
C                  2.0296840000      2.6314610000     -0.6920540000
C                  2.1071840000      1.2341910000     -0.3118440000
C                  1.0163600000      0.4382550000     -0.0987890000
O                  0.4791740000      4.4022590000     -1.1782240000
O                  3.0616820000      3.3126790000     -0.8739090000
H                 -1.9036970000      3.8423310000     -1.0335630000
H                 -3.9024660000      2.4055780000     -0.6489460000
H                 -3.5962600000      0.0124220000      0.0029280000
H                 -1.3122990000     -0.9073550000      0.2601080000
H                  3.1125280000      0.8297870000     -0.1987160000
O                  1.1416850000     -0.8966230000      0.2647310000
H                  2.0824490000     -1.0912790000      0.3209260000
$end
$rem
MAX_SCF_CYCLES=200
BASIS  =  6-311++G(d,p)
GUI  =  2
JOB_TYPE  =  SP
METHOD  =  B3LYP
SOLVENT_METHOD = PCM
$end
$pcm
theory = CPCM
$end
$solvent
dielectric 37.219
opticaldielectric 1.43
$end

--------------------------------------------------------------

             Standard Nuclear Orientation (Angstroms)
    I     Atom           X                Y                Z
 ----------------------------------------------------------------
    1      C      -1.7977400000     2.8011950000    -0.7501200000
    2      C      -2.9023300000     1.9975220000    -0.5349130000
    3      C      -2.7311550000     0.6462740000    -0.1668430000
    4      C      -0.4834390000     2.3072990000    -0.6117870000
    5      C      -0.3177680000     0.9355880000    -0.2381750000
    6      C      -1.4557870000     0.1292370000    -0.0223040000
    7      C       0.6541440000     3.2075490000    -0.8530660000
    8      C       2.0296840000     2.6314610000    -0.6920540000
    9      C       2.1071840000     1.2341910000    -0.3118440000
   10      C       1.0163600000     0.4382550000    -0.0987890000
   11      O       0.4791740000     4.4022590000    -1.1782240000
   12      O       3.0616820000     3.3126790000    -0.8739090000
   13      H      -1.9036970000     3.8423310000    -1.0335630000
   14      H      -3.9024660000     2.4055780000    -0.6489460000
   15      H      -3.5962600000     0.0124220000     0.0029280000
   16      H      -1.3122990000    -0.9073550000     0.2601080000
   17      H       3.1125280000     0.8297870000    -0.1987160000
   18      O       1.1416850000    -0.8966230000     0.2647310000
   19      H       2.0824490000    -1.0912790000     0.3209260000
 ----------------------------------------------------------------

    9    -610.6649492855      5.41e-06  Convergence criterion met
 Total energy in the final basis set =     -610.6649492855

                    Orbital Energies (a.u.)
 --------------------------------------------------------------

 Alpha MOs
 -- Occupied --
-19.1559 -19.0800 -19.0756 -10.2373 -10.2205 -10.2185 -10.1822 -10.1748
-10.1743 -10.1724 -10.1717 -10.1697 -10.1566  -1.0617  -1.0163  -0.9895
 -0.8630  -0.8018  -0.7558  -0.7302  -0.6830  -0.6243  -0.5968  -0.5864
 -0.5253  -0.5154  -0.4991  -0.4511  -0.4467  -0.4307  -0.4270  -0.4234
 -0.4136  -0.3975  -0.3910  -0.3868  -0.3675  -0.3516  -0.3431  -0.3402
 -0.2832  -0.2630  -0.2604  -0.2275  -0.2248  -0.1532

 Beta MOs
 -- Occupied --
-19.1549 -19.0736 -19.0706 -10.2349 -10.2189 -10.2163 -10.1814 -10.1744
-10.1743 -10.1718 -10.1713 -10.1693 -10.1574  -1.0593  -1.0061  -0.9790
 -0.8607  -0.7983  -0.7531  -0.7287  -0.6746  -0.6220  -0.5930  -0.5842
 -0.5236  -0.5134  -0.4962  -0.4489  -0.4448  -0.4265  -0.4199  -0.4180
 -0.4093  -0.3886  -0.3850  -0.3791  -0.3589  -0.3501  -0.3392  -0.3189
 -0.2724  -0.2573  -0.2507  -0.2222  -0.2170

          Ground-State Mulliken Net Atomic Charges

     Atom                 Charge (a.u.)    Spin (a.u.)
  --------------------------------------------------------
      1 C                     0.222260       0.068143
      2 C                    -0.389072       0.013368
      3 C                    -0.439306       0.063873
      4 C                     0.025822       0.014845
      5 C                    -0.261877       0.044455
      6 C                     0.220285       0.014707
      7 C                    -0.287073       0.142562
      8 C                    -0.111559       0.160317
      9 C                     0.253529      -0.074663
     10 C                    -0.130158       0.113379
     11 O                    -0.508144       0.244171
     12 O                    -0.546091       0.177252
     13 H                     0.164262      -0.004406
     14 H                     0.199470      -0.001715
     15 H                     0.197713      -0.004578
     16 H                     0.187007       0.000949
     17 H                     0.181963       0.001688
     18 O                    -0.291739       0.026514
     19 H                     0.312710      -0.000862
  --------------------------------------------------------
  Sum of atomic charges =    -1.000000

                    Cartesian Multipole Moments
 -----------------------------------------------------------------
    Charge (ESU x 10^10)
                -4.8032
    Dipole Moment (Debye)
         X      -7.0218      Y     -18.8962      Z       5.0338
       Tot      20.7777
    Quadrupole Moments (Debye-Ang)
        XX     -92.8791     XY     -34.6850     YY    -153.1490
        XZ       9.2748     YZ      19.2816     ZZ     -85.7823

 Total job time:  35.04s(wall), 186.12s(cpu)
        *  Thank you very much for using Q-Chem.  Have a nice day.  *
