 Q-Chem 5.4, Q-Chem, Inc., Pleasanton, CA (2021)
 Q-Chem 5.4.0 for Intel X86 EM64T Linux

User input:
--------------------------------------------------------------
$molecule
0 1
C                  5.7796220000     -5.1346740000      1.2384440000
C                  6.7912080000     -5.0417360000      0.2881690000
C                  6.7018600000     -4.1045330000     -0.7435530000
C                  4.6701670000     -4.2886020000      1.1619770000
C                  4.5809510000     -3.3459640000      0.1237320000
C                  5.6002080000     -3.2587600000     -0.8261560000
C                  3.5998260000     -4.4098800000      2.1945360000
C                  2.4353190000     -3.4697860000      2.0535930000
C                  2.3512420000     -2.5704210000      1.0621650000
C                  3.4033400000     -2.4370740000      0.0296750000
O                  3.6560000000     -5.2157990000      3.0991800000
O                  3.2891290000     -1.6056420000     -0.8556420000
H                  5.8310920000     -5.8548750000      2.0455470000
H                  7.6505920000     -5.6993640000      0.3500990000
H                  5.5107520000     -2.5249870000     -1.6177500000
Cl                 1.1916010000     -3.6114190000      3.2549950000
H                  7.4921210000     -4.0351390000     -1.4822010000
H                  1.5077570000     -1.8971600000      0.9691300000
$end

$rem
BASIS  =  6-311++G(d,p)
GUI  =  2
JOB_TYPE  =  SP
METHOD  =  B3LYP
SCF_CONVERGENCE  = 8
SOLVENT_METHOD = sm12
$end

$smx
solvent dimethylformamide
charges CM5
$end

--------------------------------------------------------------

             Standard Nuclear Orientation (Angstroms)
    I     Atom           X                Y                Z
 ----------------------------------------------------------------
    1      C       5.7796220000    -5.1346740000     1.2384440000
    2      C       6.7912080000    -5.0417360000     0.2881690000
    3      C       6.7018600000    -4.1045330000    -0.7435530000
    4      C       4.6701670000    -4.2886020000     1.1619770000
    5      C       4.5809510000    -3.3459640000     0.1237320000
    6      C       5.6002080000    -3.2587600000    -0.8261560000
    7      C       3.5998260000    -4.4098800000     2.1945360000
    8      C       2.4353190000    -3.4697860000     2.0535930000
    9      C       2.3512420000    -2.5704210000     1.0621650000
   10      C       3.4033400000    -2.4370740000     0.0296750000
   11      O       3.6560000000    -5.2157990000     3.0991800000
   12      O       3.2891290000    -1.6056420000    -0.8556420000
   13      H       5.8310920000    -5.8548750000     2.0455470000
   14      H       7.6505920000    -5.6993640000     0.3500990000
   15      H       5.5107520000    -2.5249870000    -1.6177500000
   16      Cl      1.1916010000    -3.6114190000     3.2549950000
   17      H       7.4921210000    -4.0351390000    -1.4822010000
   18      H       1.5077570000    -1.8971600000     0.9691300000
 ----------------------------------------------------------------

   15    -994.8772927292      6.64e-09  Convergence criterion met
 Total energy in the final basis set =     -994.8948503084

                    Orbital Energies (a.u.)
 --------------------------------------------------------------

 Alpha MOs
 -- Occupied --
******** -19.1457 -19.1396 -10.2986 -10.2908 -10.2766 -10.2218 -10.2163
-10.2139 -10.2028 -10.2020 -10.2013 -10.2007  -9.4913  -7.2561  -7.2464
 -7.2453  -1.0821  -1.0723  -0.9119  -0.8920  -0.8275  -0.7838  -0.7749
 -0.7054  -0.6574  -0.6406  -0.5976  -0.5569  -0.5379  -0.5101  -0.4925
 -0.4682  -0.4671  -0.4629  -0.4557  -0.4435  -0.4412  -0.4292  -0.3945
 -0.3877  -0.3744  -0.3722  -0.3371  -0.3005  -0.2979  -0.2861  -0.2831
 -0.2825

          Ground-State Mulliken Net Atomic Charges

     Atom                 Charge (a.u.)
  ----------------------------------------
      1 C                     0.084985
      2 C                     0.374192
      3 C                     0.389646
      4 C                    -0.142160
      5 C                    -0.021038
      6 C                     0.201980
      7 C                    -2.132198
      8 C                     0.843207
      9 C                     0.599174
     10 C                    -1.382073
     11 O                    -0.222202
     12 O                    -0.293305
     13 H                     0.192652
     14 H                     0.330217
     15 H                     0.191548
     16 Cl                    0.353834
     17 H                     0.330766
     18 H                     0.300774
  ----------------------------------------
  Sum of atomic charges =     0.000000

                    Cartesian Multipole Moments
 -----------------------------------------------------------------
    Charge (ESU x 10^10)
                 0.0000
    Dipole Moment (Debye)
         X       3.0803      Y      -0.7969      Z      -1.6205
       Tot       3.5707
    Quadrupole Moments (Debye-Ang)
        XX     -44.6329     XY     -19.3797     YY     -79.6575
        XZ      -8.1252     YZ      13.5089     ZZ     -91.0229

 Total job time:  216.91s(wall), 1670.77s(cpu)
        *  Thank you very much for using Q-Chem.  Have a nice day.  *
