 Q-Chem 5.4, Q-Chem, Inc., Pleasanton, CA (2021)
 Q-Chem 5.4.0 for Intel X86 EM64T Linux

User input:
--------------------------------------------------------------
$molecule
-2 1
C                 -2.7024080000     -1.6159030000      0.0475670000
O                 -2.2359320000     -0.6563240000     -0.8897830000
C                 -1.1587850000      0.0991530000     -0.4332550000
C                 -1.2993390000      1.4889730000     -0.3337010000
Br                -3.0374600000      2.2759240000     -0.7681610000
C                 -0.2786960000      2.4229010000      0.0611090000
O                 -0.4240030000      3.6862880000      0.1364510000
C                  0.9319660000      1.7043940000      0.3575190000
C                  1.1109970000      0.3170150000      0.2909370000
O                  2.3370400000     -0.2233440000      0.6707730000
C                  2.9960200000     -0.9368820000     -0.3653730000
C                  0.0658090000     -0.5716010000     -0.1177450000
O                  0.2145340000     -1.8651130000     -0.1949770000
Br                 2.4526550000      2.8076630000      0.9046850000
H                 -3.1368180000     -1.1174750000      0.9289130000
H                 -3.4902660000     -2.1879410000     -0.4575660000
H                 -1.8832410000     -2.2765980000      0.3484950000
H                  3.8990120000     -1.3713580000      0.0806650000
H                  2.3434120000     -1.7257170000     -0.7526020000
H                  3.2955030000     -0.2540560000     -1.1765330000
$end
$rem
MAX_SCF_CYCLES=200
BASIS  =  6-311++G(d,p)
GUI  =  2
JOB_TYPE  =  SP
METHOD  =  B3LYP
SOLVENT_METHOD = PCM
$end
$pcm
theory = CPCM
$end
$solvent
dielectric 37.219
opticaldielectric 1.43
$end

--------------------------------------------------------------

             Standard Nuclear Orientation (Angstroms)
    I     Atom           X                Y                Z
 ----------------------------------------------------------------
    1      C      -2.7024080000    -1.6159030000     0.0475670000
    2      O      -2.2359320000    -0.6563240000    -0.8897830000
    3      C      -1.1587850000     0.0991530000    -0.4332550000
    4      C      -1.2993390000     1.4889730000    -0.3337010000
    5      Br     -3.0374600000     2.2759240000    -0.7681610000
    6      C      -0.2786960000     2.4229010000     0.0611090000
    7      O      -0.4240030000     3.6862880000     0.1364510000
    8      C       0.9319660000     1.7043940000     0.3575190000
    9      C       1.1109970000     0.3170150000     0.2909370000
   10      O       2.3370400000    -0.2233440000     0.6707730000
   11      C       2.9960200000    -0.9368820000    -0.3653730000
   12      C       0.0658090000    -0.5716010000    -0.1177450000
   13      O       0.2145340000    -1.8651130000    -0.1949770000
   14      Br      2.4526550000     2.8076630000     0.9046850000
   15      H      -3.1368180000    -1.1174750000     0.9289130000
   16      H      -3.4902660000    -2.1879410000    -0.4575660000
   17      H      -1.8832410000    -2.2765980000     0.3484950000
   18      H       3.8990120000    -1.3713580000     0.0806650000
   19      H       2.3434120000    -1.7257170000    -0.7526020000
   20      H       3.2955030000    -0.2540560000    -1.1765330000
 ----------------------------------------------------------------

    9   -5758.0349124400      4.45e-06  Convergence criterion met
 Total energy in the final basis set =    -5758.0349124400

                    Orbital Energies (a.u.)
 --------------------------------------------------------------

 Alpha MOs
 -- Occupied --
********-482.8080 -62.4608 -62.4607 -56.2811 -56.2810 -56.2777 -56.2776
-56.2774 -56.2773 -19.1241 -19.1241 -19.0346 -19.0264 -10.2027 -10.1987
-10.1987 -10.1929 -10.1929 -10.1885 -10.1885 -10.1857  -8.6694  -8.6693
 -6.5000  -6.4999  -6.4886  -6.4886  -6.4879  -6.4878  -2.6110  -2.6109
 -2.6079  -2.6079  -2.6074  -2.6072  -2.5983  -2.5983  -2.5982  -2.5982
 -1.0382  -1.0347  -0.9590  -0.9340  -0.8176  -0.7877  -0.7507  -0.7106
 -0.6881  -0.6476  -0.6405  -0.5570  -0.5487  -0.4919  -0.4894  -0.4544
 -0.4474  -0.4392  -0.4275  -0.4111  -0.4076  -0.3820  -0.3778  -0.3526
 -0.3501  -0.3397  -0.3364  -0.3245  -0.3064  -0.2843  -0.2837  -0.2750
 -0.2686  -0.2620  -0.2340  -0.2165  -0.2042  -0.2031  -0.1351

          Ground-State Mulliken Net Atomic Charges

     Atom                 Charge (a.u.)
  ----------------------------------------
      1 C                    -0.304116
      2 O                    -0.178794
      3 C                    -2.020521
      4 C                     2.628147
      5 Br                   -0.158928
      6 C                    -2.422110
      7 O                    -0.565816
      8 C                     2.602466
      9 C                    -2.000521
     10 O                    -0.180654
     11 C                    -0.304854
     12 C                     0.852013
     13 O                    -0.711654
     14 Br                   -0.157319
     15 H                     0.125588
     16 H                     0.153706
     17 H                     0.181688
     18 H                     0.153586
     19 H                     0.182135
     20 H                     0.125958
  ----------------------------------------
  Sum of atomic charges =    -2.000000

                    Cartesian Multipole Moments
 -----------------------------------------------------------------
    Charge (ESU x 10^10)
                -9.6064
    Dipole Moment (Debye)
         X       1.4693      Y     -12.7277      Z       0.0458
       Tot      12.8123
    Quadrupole Moments (Debye-Ang)
        XX    -133.0508     XY       7.0377     YY    -186.4502
        XZ     -12.6115     YZ      -4.3991     ZZ    -119.8607

 Total job time:  30.85s(wall), 216.80s(cpu)
        *  Thank you very much for using Q-Chem.  Have a nice day.  *
