 Gaussian 16, Revision A.03,
 Gaussian 16:  ES64L-G16RevA.03 25-Dec-2016

 --------------------------------------
 #P UB3LYP/6-311++G(d,p) nosym opt freq
 --------------------------------------

 -------
 Reduced
 -------
 Symbolic Z-matrix:
 Charge = -2 Multiplicity = 1

 SCF Done:  E(UB3LYP) =  -5757.76345857     A.U. after   21 cycles
 SCF Done:  E(UB3LYP) =  -5757.76345879     A.U. after   12 cycles
 SCF Done:  E(UB3LYP) =  -5757.76345887     A.U. after   12 cycles
 Optimization completed.
    -- Stationary point found.
 Normal termination of Gaussian 16 at Sat Jan  6 05:59:08 2024.

 ----------------------------------------------------------------------
 #P Geom=AllCheck Guess=TCheck SCRF=Check GenChk UB3LYP/6-311++G(d,p) F
 req
 ----------------------------------------------------------------------

 Structure from the checkpoint file:  "023-an.chk"
 -------
 Reduced
 -------
 Charge = -2 Multiplicity = 1

                          Input orientation:
 ---------------------------------------------------------------------
 Center     Atomic      Atomic             Coordinates (Angstroms)
 Number     Number       Type             X           Y           Z
 ---------------------------------------------------------------------
      1          6           0       -2.702408   -1.615903    0.047567
      2          8           0       -2.235932   -0.656324   -0.889783
      3          6           0       -1.158785    0.099153   -0.433255
      4          6           0       -1.299339    1.488973   -0.333701
      5         35           0       -3.037460    2.275924   -0.768161
      6          6           0       -0.278696    2.422901    0.061109
      7          8           0       -0.424003    3.686288    0.136451
      8          6           0        0.931966    1.704394    0.357519
      9          6           0        1.110997    0.317015    0.290937
     10          8           0        2.337040   -0.223344    0.670773
     11          6           0        2.996020   -0.936882   -0.365373
     12          6           0        0.065809   -0.571601   -0.117745
     13          8           0        0.214534   -1.865113   -0.194977
     14         35           0        2.452655    2.807663    0.904685
     15          1           0       -3.136818   -1.117475    0.928913
     16          1           0       -3.490266   -2.187941   -0.457566
     17          1           0       -1.883241   -2.276598    0.348495
     18          1           0        3.899012   -1.371358    0.080665
     19          1           0        2.343412   -1.725717   -0.752602
     20          1           0        3.295503   -0.254056   -1.176533
 ---------------------------------------------------------------------

 SCF Done:  E(UB3LYP) =  -5757.76345887     A.U. after    2 cycles

 Alpha  occ. eigenvalues -- -482.56340-482.56340 -62.21604 -62.21604 -56.03606
 Alpha  occ. eigenvalues --  -56.03606 -56.03286 -56.03286 -56.03251 -56.03250
 Alpha  occ. eigenvalues --  -18.88382 -18.88381 -18.76930 -18.76697  -9.97415
 Alpha  occ. eigenvalues --   -9.97415  -9.94796  -9.94794  -9.94508  -9.93687
 Alpha  occ. eigenvalues --   -9.93686  -9.93200  -8.42550  -8.42549  -6.25577
 Alpha  occ. eigenvalues --   -6.25577  -6.24503  -6.24503  -6.24390  -6.24390
 Alpha  occ. eigenvalues --   -2.36691  -2.36691  -2.36404  -2.36404  -2.36317
 Alpha  occ. eigenvalues --   -2.36317  -2.35462  -2.35462  -2.35460  -2.35459
 Alpha  occ. eigenvalues --   -0.79686  -0.79400  -0.69166  -0.67677  -0.56600
 Alpha  occ. eigenvalues --   -0.54060  -0.50378  -0.47535  -0.45458  -0.40273
 Alpha  occ. eigenvalues --   -0.39987  -0.31166  -0.30385  -0.24842  -0.24567
 Alpha  occ. eigenvalues --   -0.21844  -0.21142  -0.21105  -0.19711  -0.17534
 Alpha  occ. eigenvalues --   -0.16282  -0.12947  -0.11400  -0.11048  -0.10418
 Alpha  occ. eigenvalues --   -0.09439  -0.09271  -0.07122  -0.06035  -0.04109
 Alpha  occ. eigenvalues --   -0.03325  -0.02876  -0.02341  -0.01560   0.02486
 Alpha  occ. eigenvalues --    0.04458   0.04986   0.05406   0.12477
 Alpha virt. eigenvalues --    0.17021   0.17175   0.19552   0.20242   0.20435
 Alpha virt. eigenvalues --    0.20717   0.21685   0.23422   0.23841   0.24284
 Alpha virt. eigenvalues --    0.24855   0.25013   0.25999   0.26175   0.26262

  Beta  occ. eigenvalues -- -482.56340-482.56340 -62.21604 -62.21604 -56.03606
  Beta  occ. eigenvalues --  -56.03606 -56.03286 -56.03286 -56.03251 -56.03250
  Beta  occ. eigenvalues --  -18.88382 -18.88381 -18.76930 -18.76697  -9.97415
  Beta  occ. eigenvalues --   -9.97415  -9.94796  -9.94794  -9.94508  -9.93687
  Beta  occ. eigenvalues --   -9.93686  -9.93200  -8.42550  -8.42549  -6.25577
  Beta  occ. eigenvalues --   -6.25577  -6.24503  -6.24503  -6.24390  -6.24390
  Beta  occ. eigenvalues --   -2.36691  -2.36691  -2.36404  -2.36404  -2.36317
  Beta  occ. eigenvalues --   -2.36317  -2.35462  -2.35462  -2.35460  -2.35459
  Beta  occ. eigenvalues --   -0.79686  -0.79400  -0.69166  -0.67677  -0.56600
  Beta  occ. eigenvalues --   -0.54060  -0.50378  -0.47535  -0.45458  -0.40273
  Beta  occ. eigenvalues --   -0.39987  -0.31166  -0.30385  -0.24842  -0.24567
  Beta  occ. eigenvalues --   -0.21844  -0.21142  -0.21105  -0.19711  -0.17534
  Beta  occ. eigenvalues --   -0.16282  -0.12947  -0.11400  -0.11048  -0.10418
  Beta  occ. eigenvalues --   -0.09439  -0.09271  -0.07122  -0.06035  -0.04109
  Beta  occ. eigenvalues --   -0.03325  -0.02876  -0.02341  -0.01560   0.02486
  Beta  occ. eigenvalues --    0.04458   0.04986   0.05406   0.12477
  Beta virt. eigenvalues --    0.17021   0.17175   0.19552   0.20242   0.20435
  Beta virt. eigenvalues --    0.20717   0.21685   0.23422   0.23841   0.24284
  Beta virt. eigenvalues --    0.24855   0.25013   0.25999   0.26175   0.26262

 Mulliken charges and spin densities:
               1          2
     1  C   -0.213003  -0.000000
     2  O   -0.140048  -0.000000
     3  C   -0.427203   0.000000
     4  C    1.301320  -0.000000
     5  Br  -0.315379   0.000000
     6  C   -1.106969   0.000000
     7  O   -0.435637  -0.000000
     8  C    1.301044  -0.000000
     9  C   -0.427270   0.000000
    10  O   -0.140081  -0.000000
    11  C   -0.212858  -0.000000
    12  C   -0.890847  -0.000000
    13  O   -0.556715  -0.000000
    14  Br  -0.315473  -0.000000
    15  H    0.050091  -0.000000
    16  H    0.047535   0.000000
    17  H    0.191949   0.000000
    18  H    0.047506   0.000000
    19  H    0.192073   0.000000
    20  H    0.049964  -0.000000
 Sum of Mulliken charges =  -2.00000   0.00000

 Dipole moment (field-independent basis, Debye):
    X=              1.3359    Y=            -11.6168    Z=              0.1095  Tot=             11.6939
 Quadrupole moment (field-independent basis, Debye-Ang):
   XX=           -152.3759   YY=           -186.1389   ZZ=           -121.9358
   XY=              4.7413   XZ=            -12.8498   YZ=             -4.3774

  Exact polarizability: 324.648   8.546 238.880  22.959   8.973 131.977
 Approx polarizability: 397.825   2.513 355.509  38.269  13.804 198.297

                      1                      2                      3
                      A                      A                      A
 Frequencies --     56.8035                69.8364                85.4718
 Red. masses --      5.4741                12.8670                 3.5635
 Frc consts  --      0.0104                 0.0370                 0.0153
 IR Inten    --      0.2828                 7.4112                 0.2529

                      4                      5                      6
                      A                      A                      A
 Frequencies --     94.7587               104.3118               129.9260
 Red. masses --      4.9969                 3.3998                12.0463
 Frc consts  --      0.0264                 0.0218                 0.1198
 IR Inten    --      2.6863                 1.5990                10.1907

                      7                      8                      9
                      A                      A                      A
 Frequencies --    163.6155               178.4837               182.4580
 Red. masses --      5.7761                 1.5723                 1.0984
 Frc consts  --      0.0911                 0.0295                 0.0215
 IR Inten    --      5.6331                 3.1888                 0.0659

                     10                     11                     12
                      A                      A                      A
 Frequencies --    209.8851               215.5063               229.6366
 Red. masses --      3.9292                 3.1805                12.7241
 Frc consts  --      0.1020                 0.0870                 0.3953
 IR Inten    --      0.9804                 3.2437                 2.0822

                     13                     14                     15
                      A                      A                      A
 Frequencies --    233.8253               276.6205               346.1405
 Red. masses --     14.1182                 7.5613                 9.2472
 Frc consts  --      0.4548                 0.3409                 0.6528
 IR Inten    --      0.5810                 1.1214                 1.4469

                     16                     17                     18
                      A                      A                      A
 Frequencies --    348.2121               356.1089               396.0634
 Red. masses --     10.5123                 9.3485                 6.8886
 Frc consts  --      0.7510                 0.6985                 0.6367
 IR Inten    --      5.2093                 1.3086                 1.1063

                     19                     20                     21
                      A                      A                      A
 Frequencies --    426.1714               471.8354               550.8079
 Red. masses --      5.7587                11.5563                 9.8743
 Frc consts  --      0.6162                 1.5158                 1.7650
 IR Inten    --      1.3248                 0.4843                 7.6333

                     22                     23                     24
                      A                      A                      A
 Frequencies --    637.3841               653.0113               706.8673
 Red. masses --     11.2924                 6.8261                12.1550
 Frc consts  --      2.7030                 1.7150                 3.5783
 IR Inten    --     68.9461                 3.3700                 2.4989

                     25                     26                     27
                      A                      A                      A
 Frequencies --    734.3186               762.5699               852.9346
 Red. masses --     11.7321                 9.6903                12.5934
 Frc consts  --      3.7273                 3.3201                 5.3979
 IR Inten    --      0.6240                23.8493               205.4044

                     28                     29                     30
                      A                      A                      A
 Frequencies --    942.0699              1004.4463              1080.1125
 Red. masses --      5.9701                 8.3629                11.1908
 Frc consts  --      3.1217                 4.9712                 7.6922
 IR Inten    --     13.7066                 2.3156                36.6079

                     31                     32                     33
                      A                      A                      A
 Frequencies --   1107.3075              1119.6478              1163.5492
 Red. masses --     10.5062                 9.9170                 1.2706
 Frc consts  --      7.5899                 7.3248                 1.0135
 IR Inten    --     42.4512               485.0463                10.1776

                     34                     35                     36
                      A                      A                      A
 Frequencies --   1164.0287              1187.0395              1220.0086
 Red. masses --      1.2932                 2.2307                 1.4953
 Frc consts  --      1.0324                 1.8520                 1.3113
 IR Inten    --     19.6132                13.9761                20.9882

                     37                     38                     39
                      A                      A                      A
 Frequencies --   1235.9343              1353.4057              1391.0855
 Red. masses --      2.6619                11.2699                 6.5356
 Frc consts  --      2.3957                12.1626                 7.4514
 IR Inten    --      2.4724                 1.3987               362.2577

                     40                     41                     42
                      A                      A                      A
 Frequencies --   1403.5132              1421.8803              1450.3697
 Red. masses --      1.9399                 1.6459                 1.6192
 Frc consts  --      2.2515                 1.9606                 2.0068
 IR Inten    --      3.6905                90.5117                 1.6544

                     43                     44                     45
                      A                      A                      A
 Frequencies --   1468.1800              1470.6625              1472.4349
 Red. masses --      3.0090                 1.1495                 1.2704
 Frc consts  --      3.8215                 1.4649                 1.6228
 IR Inten    --    454.0295                41.2734                 0.4771

                     46                     47                     48
                      A                      A                      A
 Frequencies --   1516.9005              1517.0208              1584.5338
 Red. masses --      1.0564                 1.0556                10.2619
 Frc consts  --      1.4322                 1.4313                15.1803
 IR Inten    --      2.3295                 3.7397                74.9363

                     49                     50                     51
                      A                      A                      A
 Frequencies --   2939.2050              2940.4178              3010.5757
 Red. masses --      1.0428                 1.0436                 1.0871
 Frc consts  --      5.3077                 5.3160                 5.8051
 IR Inten    --    398.8617                22.7141               152.9276

                     52                     53                     54
                      A                      A                      A
 Frequencies --   3011.2307              3054.9210              3055.6407
 Red. masses --      1.0863                 1.1042                 1.1042
 Frc consts  --      5.8037                 6.0717                 6.0744
 IR Inten    --    145.3977                44.4364                 0.1693

 - Thermochemistry -
 -------------------
 Temperature   298.150 Kelvin.  Pressure   1.00000 Atm.
 Atom     1 has atomic number  6 and mass  12.00000

 Molecular mass:   323.86328 amu.
 Principal axes and moments of inertia in atomic units:
                           1         2         3
     Eigenvalues --  3338.978186522.034639620.08913
           X            0.96452  -0.11401  -0.23812
           Y            0.09622   0.99172  -0.08509
           Z            0.24585   0.05916   0.96750
 This molecule is an asymmetric top.
 Rotational symmetry number  1.
 Warning -- assumption of classical behavior for rotation
           may cause significant error
 Rotational temperatures (Kelvin)      0.02594     0.01328     0.00900
 Rotational constants (GHZ):           0.54051     0.27671     0.18760
 Zero-point vibrational energy     327535.7 (Joules/Mol)
                                   78.28290 (Kcal/Mol)
 Warning -- explicit consideration of  21 degrees of freedom as
           vibrations may cause significant error
 Vibrational temperatures:     81.73   100.48   122.97   136.34   150.08
          (Kelvin)            186.93   235.41   256.80   262.52   301.98
                              310.07   330.40   336.42   398.00   498.02
                              501.00   512.36   569.85   613.17   678.87
                              792.49   917.05   939.54  1017.02  1056.52
                             1097.17  1227.18  1355.43  1445.17  1554.04
                             1593.17  1610.92  1674.09  1674.78  1707.89
                             1755.32  1778.23  1947.25  2001.46  2019.34
                             2045.77  2086.76  2112.38  2115.96  2118.51
                             2182.48  2182.65  2279.79  4228.86  4230.61
                             4331.55  4332.49  4395.35  4396.39

 Zero-point correction=                           0.124752 (Hartree/Particle)
 Thermal correction to Energy=                    0.139536
 Thermal correction to Enthalpy=                  0.140481
 Thermal correction to Gibbs Free Energy=         0.081142
 Sum of electronic and zero-point Energies=          -5757.638707
 Sum of electronic and thermal Energies=             -5757.623923
 Sum of electronic and thermal Enthalpies=           -5757.622978
 Sum of electronic and thermal Free Energies=        -5757.682317

                     E (Thermal)             CV                S
                      KCal/Mol        Cal/Mol-Kelvin    Cal/Mol-Kelvin
 Total                   87.560             50.728            124.889
 Electronic               0.000              0.000              0.000
 Translational            0.889              2.981             43.221
 Rotational               0.889              2.981             33.704
 Vibrational             85.783             44.766             47.964
 Vibration     1          0.596              1.975              4.565
 Vibration     2          0.598              1.969              4.158
 Vibration     3          0.601              1.959              3.761
 Vibration     4          0.603              1.953              3.559
 Vibration     5          0.605              1.946              3.372
 Vibration     6          0.612              1.923              2.947
 Vibration     7          0.623              1.887              2.508
 Vibration     8          0.629              1.869              2.344
 Vibration     9          0.630              1.864              2.303
 Vibration    10          0.642              1.826              2.045
 Vibration    11          0.645              1.817              1.997
 Vibration    12          0.652              1.796              1.882
 Vibration    13          0.654              1.789              1.849
 Vibration    14          0.678              1.717              1.554
 Vibration    15          0.724              1.583              1.184
 Vibration    16          0.726              1.579              1.174
 Vibration    17          0.732              1.563              1.139
 Vibration    18          0.763              1.479              0.977
 Vibration    19          0.788              1.413              0.871
 Vibration    20          0.829              1.313              0.732
 Vibration    21          0.906              1.138              0.542

 Optimization completed.
    -- Stationary point found.
 Normal termination of Gaussian 16 at Sat Jan  6 06:31:28 2024.
