 Gaussian 16, Revision A.03,
 Gaussian 16:  ES64L-G16RevA.03 25-Dec-2016

 ----------------------------------------------------------------------
 #P UB3LYP/6-311++G(d,p) nosym opt freq SCRF=(PCM,Solvent=n,n-DiMethylF
 ormamide)
 ----------------------------------------------------------------------

 -------
 Reduced
 -------
 Symbolic Z-matrix:
 Charge = -2 Multiplicity = 1

 SCF Done:  E(UB3LYP) =  -803.746639917     A.U. after   17 cycles
 SCF Done:  E(UB3LYP) =  -803.748247386     A.U. after   12 cycles
 SCF Done:  E(UB3LYP) =  -803.748525166     A.U. after   12 cycles
 SCF Done:  E(UB3LYP) =  -803.748509961     A.U. after   12 cycles
 SCF Done:  E(UB3LYP) =  -803.748559588     A.U. after   11 cycles
 SCF Done:  E(UB3LYP) =  -803.748565208     A.U. after   11 cycles
 SCF Done:  E(UB3LYP) =  -803.748566511     A.U. after   10 cycles
 SCF Done:  E(UB3LYP) =  -803.748566975     A.U. after    9 cycles
 SCF Done:  E(UB3LYP) =  -803.748567034     A.U. after    8 cycles
 Optimization completed.
    -- Stationary point found.
 Normal termination of Gaussian 16 at Sat Feb 10 18:20:50 2024.

 ----------------------------------------------------------------------
 #P Geom=AllCheck Guess=TCheck SCRF=Check GenChk UB3LYP/6-311++G(d,p) F
 req
 ----------------------------------------------------------------------

 Structure from the checkpoint file:  "138-an.chk"
 -------
 Reduced
 -------
 Charge = -2 Multiplicity = 1

                          Input orientation:
 ---------------------------------------------------------------------
 Center     Atomic      Atomic             Coordinates (Angstroms)
 Number     Number       Type             X           Y           Z
 ---------------------------------------------------------------------
      1          6           0        4.712067   -0.710957    0.881050
      2          8           0        4.262614    0.348238    0.044299
      3          6           0        2.900878    0.487192   -0.142473
      4          6           0        2.525073    1.566874   -0.993840
      5          6           0        1.195261    1.795145   -1.245464
      6          6           0        0.158289    0.993128   -0.691216
      7          6           0       -1.216332    1.290003   -0.998552
      8          8           0       -1.558752    2.280491   -1.771205
      9          6           0       -2.181345    0.413660   -0.390020
     10          6           0       -3.570879    0.611665   -0.629246
     11          6           0       -4.539236   -0.191426   -0.070953
     12          6           0       -4.154232   -1.266734    0.780041
     13          6           0       -2.821722   -1.494138    1.033789
     14          6           0       -1.786807   -0.686361    0.475358
     15          6           0       -0.414015   -0.977328    0.778460
     16          8           0       -0.061444   -1.970915    1.555009
     17          6           0        0.546386   -0.103808    0.170611
     18          6           0        1.941129   -0.317513    0.419182
     19          1           0        4.408109   -1.686829    0.487371
     20          1           0        4.329096   -0.603107    1.901541
     21          1           0        5.799444   -0.647700    0.893384
     22          1           0        3.300882    2.189171   -1.427294
     23          1           0        0.898468    2.614245   -1.890932
     24          1           0       -3.848324    1.433624   -1.280198
     25          1           0       -5.589943   -0.009686   -0.275825
     26          1           0       -4.913097   -1.903466    1.225326
     27          1           0       -2.516439   -2.310471    1.679002
     28          1           0        2.194871   -1.142996    1.069870
 ---------------------------------------------------------------------

 SCF Done:  E(UB3LYP) =  -803.748567034     A.U. after    1 cycles

 Alpha  occ. eigenvalues --  -19.14182 -19.01849 -19.01332 -10.21102 -10.20986
 Alpha  occ. eigenvalues --  -10.17345 -10.16689 -10.15094 -10.14940 -10.14780
 Alpha  occ. eigenvalues --  -10.14643 -10.14549 -10.14429 -10.14154 -10.13783
 Alpha  occ. eigenvalues --  -10.13544 -10.13471 -10.13457  -1.05121  -0.92993
 Alpha  occ. eigenvalues --   -0.92143  -0.82653  -0.81972  -0.75616  -0.72643
 Alpha  occ. eigenvalues --   -0.72121  -0.71826  -0.68045  -0.63687  -0.60552
 Alpha  occ. eigenvalues --   -0.58443  -0.56150  -0.52918  -0.51724  -0.50419
 Alpha  occ. eigenvalues --   -0.46552  -0.46007  -0.45770  -0.43883  -0.42774
 Alpha  occ. eigenvalues --   -0.41322  -0.40402  -0.39695  -0.38158  -0.38028
 Alpha  occ. eigenvalues --   -0.37145  -0.36406  -0.35450  -0.35366  -0.33595
 Alpha  occ. eigenvalues --   -0.32228  -0.32206  -0.31777  -0.31223  -0.29575
 Alpha  occ. eigenvalues --   -0.28132  -0.23348  -0.22297  -0.21888  -0.20218
 Alpha  occ. eigenvalues --   -0.19895  -0.19254  -0.10636
 Alpha virt. eigenvalues --   -0.02516  -0.00073   0.00605   0.00616   0.01305
 Alpha virt. eigenvalues --    0.02150   0.02239   0.02372   0.03812   0.03835
 Alpha virt. eigenvalues --    0.04050   0.04784   0.05570   0.05896   0.06517

  Beta  occ. eigenvalues --  -19.14182 -19.01849 -19.01332 -10.21102 -10.20986
  Beta  occ. eigenvalues --  -10.17345 -10.16689 -10.15094 -10.14940 -10.14780
  Beta  occ. eigenvalues --  -10.14643 -10.14549 -10.14429 -10.14154 -10.13783
  Beta  occ. eigenvalues --  -10.13544 -10.13471 -10.13457  -1.05121  -0.92993
  Beta  occ. eigenvalues --   -0.92143  -0.82653  -0.81972  -0.75616  -0.72643
  Beta  occ. eigenvalues --   -0.72121  -0.71826  -0.68045  -0.63687  -0.60552
  Beta  occ. eigenvalues --   -0.58443  -0.56150  -0.52918  -0.51724  -0.50419
  Beta  occ. eigenvalues --   -0.46552  -0.46007  -0.45770  -0.43883  -0.42774
  Beta  occ. eigenvalues --   -0.41322  -0.40402  -0.39695  -0.38158  -0.38028
  Beta  occ. eigenvalues --   -0.37145  -0.36406  -0.35450  -0.35366  -0.33595
  Beta  occ. eigenvalues --   -0.32228  -0.32206  -0.31777  -0.31223  -0.29575
  Beta  occ. eigenvalues --   -0.28132  -0.23348  -0.22297  -0.21888  -0.20218
  Beta  occ. eigenvalues --   -0.19895  -0.19254  -0.10636
  Beta virt. eigenvalues --   -0.02516  -0.00073   0.00605   0.00616   0.01305
  Beta virt. eigenvalues --    0.02150   0.02239   0.02372   0.03812   0.03835
  Beta virt. eigenvalues --    0.04050   0.04784   0.05570   0.05896   0.06517

 Mulliken charges and spin densities:
               1          2
     1  C   -0.327992  -0.000000
     2  O   -0.235703   0.000000
     3  C   -0.698440   0.000000
     4  C   -0.410049   0.000000
     5  C    0.070605   0.000000
     6  C    0.207010  -0.000000
     7  C   -0.661331   0.000000
     8  O   -0.669790  -0.000000
     9  C    0.153163  -0.000000
    10  C    0.023263   0.000000
    11  C   -0.503906  -0.000000
    12  C   -0.508391  -0.000000
    13  C   -0.032616   0.000000
    14  C    0.352359   0.000000
    15  C   -0.578656  -0.000000
    16  O   -0.698328   0.000000
    17  C    0.551475  -0.000000
    18  C    0.400588  -0.000000
    19  H    0.158051  -0.000000
    20  H    0.158070  -0.000000
    21  H    0.181078   0.000000
    22  H    0.182117  -0.000000
    23  H    0.156707  -0.000000
    24  H    0.144738   0.000000
    25  H    0.153609  -0.000000
    26  H    0.155614  -0.000000
    27  H    0.143115  -0.000000
    28  H    0.133641   0.000000
 Sum of Mulliken charges =  -2.00000  -0.00000

 Dipole moment (field-independent basis, Debye):
    X=              7.8987    Y=             -2.1803    Z=              1.5781  Tot=              8.3447
 Quadrupole moment (field-independent basis, Debye-Ang):
   XX=           -140.1270   YY=           -147.3435   ZZ=           -134.8289
   XY=              2.9309   XZ=             -3.0991   YZ=             22.7728

  Exact polarizability: 568.260  34.485 306.790  -2.452-104.643 247.036
 Approx polarizability: 620.392  37.559 353.601  -2.727-127.792 280.951

                      1                      2                      3
                      A                      A                      A
 Frequencies --     50.5179                75.7591               127.4916
 Red. masses --      5.0900                 4.2642                 3.8938
 Frc consts  --      0.0077                 0.0144                 0.0373
 IR Inten    --     15.1233                 1.2442                 6.0320

                      4                      5                      6
                      A                      A                      A
 Frequencies --    145.1414               148.0964               164.7820
 Red. masses --      5.1486                 4.4368                 5.8174
 Frc consts  --      0.0639                 0.0573                 0.0931
 IR Inten    --     11.4763                 8.0825                 3.8934

                      7                      8                      9
                      A                      A                      A
 Frequencies --    201.6663               247.0360               248.0752
 Red. masses --      2.7739                 3.1625                 1.6646
 Frc consts  --      0.0665                 0.1137                 0.0604
 IR Inten    --      0.3539                19.9687                 5.3607

                     10                     11                     12
                      A                      A                      A
 Frequencies --    289.7829               325.5627               347.6430
 Red. masses --      7.1207                 5.0734                 8.5251
 Frc consts  --      0.3523                 0.3168                 0.6070
 IR Inten    --      0.3501                 0.2918                 2.3506

                     13                     14                     15
                      A                      A                      A
 Frequencies --    366.1937               408.7505               433.4780
 Red. masses --      8.1975                 5.7521                 6.6710
 Frc consts  --      0.6477                 0.5662                 0.7385
 IR Inten    --      3.7112                 1.3443                 8.0896

                     16                     17                     18
                      A                      A                      A
 Frequencies --    435.2590               472.8528               478.6233
 Red. masses --      3.7914                 4.9365                 2.8839
 Frc consts  --      0.4232                 0.6503                 0.3892
 IR Inten    --      8.0163                 0.9582                 0.0892

                     19                     20                     21
                      A                      A                      A
 Frequencies --    502.1612               544.1016               564.8220
 Red. masses --      8.6681                 4.2578                 6.4447
 Frc consts  --      1.2878                 0.7427                 1.2114
 IR Inten    --      3.0140                 9.9523                65.6945

                     22                     23                     24
                      A                      A                      A
 Frequencies --    632.5774               644.4686               665.5040
 Red. masses --      6.9120                 3.3088                 6.1818
 Frc consts  --      1.6296                 0.8097                 1.6131
 IR Inten    --     11.0965                27.3835                12.0185

                     25                     26                     27
                      A                      A                      A
 Frequencies --    693.1264               697.7045               724.7206
 Red. masses --      6.1915                 2.6322                 4.3567
 Frc consts  --      1.7526                 0.7549                 1.3482
 IR Inten    --      5.2821               115.2491                 1.5974

                     28                     29                     30
                      A                      A                      A
 Frequencies --    741.6397               769.8942               782.1355
 Red. masses --      6.4470                 1.8225                 1.8654
 Frc consts  --      2.0893                 0.6365                 0.6723
 IR Inten    --     68.8946                27.5973                19.6495

                     31                     32                     33
                      A                      A                      A
 Frequencies --    812.8759               850.8654               851.2539
 Red. masses --      2.4370                 1.7556                 5.8569
 Frc consts  --      0.9488                 0.7489                 2.5005
 IR Inten    --     30.7208                 2.4640                71.0021

                     34                     35                     36
                      A                      A                      A
 Frequencies --    870.7318               921.9073               974.5996
 Red. masses --      1.5765                 6.1928                 1.3281
 Frc consts  --      0.7042                 3.1011                 0.7432
 IR Inten    --     45.2577                23.6229                 2.5424

                     37                     38                     39
                      A                      A                      A
 Frequencies --    979.5396               983.2710               984.9247
 Red. masses --      2.7557                 1.4466                 1.2609
 Frc consts  --      1.5579                 0.8240                 0.7207
 IR Inten    --     17.0039                 5.0831                 1.7749

                     40                     41                     42
                      A                      A                      A
 Frequencies --   1013.5207              1038.2176              1078.4210
 Red. masses --      2.0331                 3.9923                 3.9869
 Frc consts  --      1.2305                 2.5354                 2.7319
 IR Inten    --    112.7451               160.6172               539.5489

                     43                     44                     45
                      A                      A                      A
 Frequencies --   1103.7878              1126.0175              1137.5598
 Red. masses --      1.7689                 1.7173                 1.8090
 Frc consts  --      1.2697                 1.2829                 1.3792
 IR Inten    --     37.0170               483.3031                43.9750

                     46                     47                     48
                      A                      A                      A
 Frequencies --   1165.1397              1167.2503              1192.5045
 Red. masses --      1.5651                 1.2788                 2.0475
 Frc consts  --      1.2518                 1.0266                 1.7155
 IR Inten    --    673.2540                 2.9265               277.7190

                     49                     50                     51
                      A                      A                      A
 Frequencies --   1196.1774              1218.4316              1221.8298
 Red. masses --      1.6375                 2.1895                 3.3314
 Frc consts  --      1.3805                 1.9151                 2.9302
 IR Inten    --     25.9118               257.8675               359.7063

                     52                     53                     54
                      A                      A                      A
 Frequencies --   1253.0104              1306.0368              1332.2328
 Red. masses --      2.4977                 5.7498                 3.2977
 Frc consts  --      2.3104                 5.7784                 3.4484
 IR Inten    --    226.5194                75.1178              1627.3808

                     55                     56                     57
                      A                      A                      A
 Frequencies --   1353.9557              1355.6785              1436.6438
 Red. masses --      2.9320                 4.7353                 3.5139
 Frc consts  --      3.1668                 5.1276                 4.2731
 IR Inten    --    556.5154              1048.6249                90.9971

                     58                     59                     60
                      A                      A                      A
 Frequencies --   1448.5652              1454.2476              1474.4224
 Red. masses --      4.8313                 1.9631                 1.7886
 Frc consts  --      5.9730                 2.4461                 2.2909
 IR Inten    --     17.2509               218.2178                 7.5655

                     61                     62                     63
                      A                      A                      A
 Frequencies --   1477.3564              1483.4570              1499.1715
 Red. masses --      1.0453                 2.4291                 1.1184
 Frc consts  --      1.3442                 3.1495                 1.4810
 IR Inten    --     11.8435               109.1516                10.1627

                     64                     65                     66
                      A                      A                      A
 Frequencies --   1504.8835              1532.1945              1579.6781
 Red. masses --      4.2086                 5.8512                 7.9075
 Frc consts  --      5.6155                 8.0933                11.6259
 IR Inten    --      3.1250                89.1210                14.3921

                     67                     68                     69
                      A                      A                      A
 Frequencies --   1605.0346              1617.7795              3002.6926
 Red. masses --      5.2572                 6.3990                 1.0336
 Frc consts  --      7.9794                 9.8673                 5.4904
 IR Inten    --     34.4089               449.4764                89.2196

                     70                     71                     72
                      A                      A                      A
 Frequencies --   3058.0138              3124.8492              3136.8521
 Red. masses --      1.1057                 1.0999                 1.0845
 Frc consts  --      6.0923                 6.3280                 6.2873
 IR Inten    --     71.8177                44.4117                26.0675

                     73                     74                     75
                      A                      A                      A
 Frequencies --   3152.2998              3159.4778              3170.1187
 Red. masses --      1.0887                 1.0861                 1.0910
 Frc consts  --      6.3741                 6.3878                 6.4600
 IR Inten    --     31.3041                 5.8844                40.2122

                     76                     77                     78
                      A                      A                      A
 Frequencies --   3174.2193              3177.6645              3204.5652
 Red. masses --      1.0939                 1.0936                 1.0881
 Frc consts  --      6.4941                 6.5064                 6.5837
 IR Inten    --    104.9182                44.8532                26.1826

 - Thermochemistry -
 -------------------
 Temperature   298.150 Kelvin.  Pressure   1.00000 Atm.
 Atom     1 has atomic number  6 and mass  12.00000

 Molecular mass:   238.06299 amu.
 Principal axes and moments of inertia in atomic units:
                           1         2         3
     Eigenvalues --  1956.961266529.822578475.32355
           X            0.99742  -0.05402  -0.04727
           Y            0.07164   0.79198   0.60633
           Z            0.00468  -0.60816   0.79380
 This molecule is an asymmetric top.
 Rotational symmetry number  1.
 Warning -- assumption of classical behavior for rotation
           may cause significant error
 Rotational temperatures (Kelvin)      0.04426     0.01326     0.01022
 Rotational constants (GHZ):           0.92222     0.27638     0.21294
 Zero-point vibrational energy     543663.8 (Joules/Mol)
                                  129.93878 (Kcal/Mol)
 Warning -- explicit consideration of  21 degrees of freedom as
           vibrations may cause significant error
 Vibrational temperatures:     72.68   109.00   183.43   208.83   213.08
          (Kelvin)            237.08   290.15   355.43   356.92   416.93
                              468.41   500.18   526.87   588.10   623.68
                              626.24   680.33   688.63   722.50   782.84
                              812.65   910.14   927.25   957.51   997.25
                             1003.84  1042.71  1067.05  1107.71  1125.32
                             1169.55  1224.21  1224.76  1252.79  1326.42
                             1402.23  1409.34  1414.71  1417.09  1458.23
                             1493.76  1551.61  1588.10  1620.09  1636.69
                             1676.38  1679.41  1715.75  1721.03  1753.05
                             1757.94  1802.80  1879.10  1916.79  1948.04
                             1950.52  2067.01  2084.16  2092.34  2121.37
                             2125.59  2134.36  2156.97  2165.19  2204.49
                             2272.80  2309.29  2327.62  4320.20  4399.80
                             4495.96  4513.23  4535.46  4545.78  4561.09
                             4566.99  4571.95  4610.65

 Zero-point correction=                           0.207071 (Hartree/Particle)
 Thermal correction to Energy=                    0.220982
 Thermal correction to Enthalpy=                  0.221926
 Thermal correction to Gibbs Free Energy=         0.166627
 Sum of electronic and zero-point Energies=           -803.541496
 Sum of electronic and thermal Energies=              -803.527585
 Sum of electronic and thermal Enthalpies=            -803.526641
 Sum of electronic and thermal Free Energies=         -803.581940

                     E (Thermal)             CV                S
                      KCal/Mol        Cal/Mol-Kelvin    Cal/Mol-Kelvin
 Total                  138.668             56.089            116.386
 Electronic               0.000              0.000              0.000
 Translational            0.889              2.981             42.303
 Rotational               0.889              2.981             33.049
 Vibrational            136.891             50.128             41.034
 Vibration     1          0.595              1.977              4.797
 Vibration     2          0.599              1.965              3.998
 Vibration     3          0.611              1.926              2.984
 Vibration     4          0.617              1.908              2.735
 Vibration     5          0.617              1.905              2.697
 Vibration     6          0.623              1.886              2.494
 Vibration     7          0.639              1.838              2.118
 Vibration     8          0.661              1.768              1.752
 Vibration     9          0.662              1.766              1.744
 Vibration    10          0.686              1.693              1.475
 Vibration    11          0.710              1.624              1.282
 Vibration    12          0.725              1.580              1.177
 Vibration    13          0.739              1.542              1.096
 Vibration    14          0.773              1.451              0.931
 Vibration    15          0.794              1.397              0.847
 Vibration    16          0.796              1.393              0.842
 Vibration    17          0.830              1.310              0.730
 Vibration    18          0.835              1.297              0.714
 Vibration    19          0.858              1.245              0.653
 Vibration    20          0.899              1.153              0.557
 Vibration    21          0.921              1.107              0.514

 Optimization completed.
    -- Stationary point found.
 Normal termination of Gaussian 16 at Sat Feb 10 19:11:18 2024.
