 Q-Chem 5.4, Q-Chem, Inc., Pleasanton, CA (2021)
 Q-Chem 5.4.0 for Intel X86 EM64T Linux

User input:
--------------------------------------------------------------
$molecule
-1 2
C                  4.1691540000     -1.3119880000      3.8478200000
C                  3.3709270000     -0.9834310000      4.9266320000
C                  2.4534080000      0.0851460000      4.8382800000
C                  4.0704840000     -0.5755350000      2.6433590000
C                  3.1503660000      0.5010390000      2.5436240000
C                  2.3551310000      0.8049680000      3.6631350000
C                  4.9054030000     -0.9199650000      1.5140690000
C                  4.7445340000     -0.1231170000      0.3198100000
C                  3.8676160000      0.9326210000      0.1909120000
C                  3.0142600000      1.2932260000      1.3045250000
O                  5.7621900000     -1.8663270000      1.4981750000
O                  2.1904170000      2.2412540000      1.2288220000
O                  5.5612250000     -0.5089480000     -0.7039900000
O                  3.3930850000     -1.6405460000      6.1421900000
C                  4.2934430000     -2.7220730000      6.2850160000
C                  3.7541460000      1.7149130000     -1.0918020000
C                  2.6379330000      1.1971420000     -2.0207770000
C                  2.5059670000      2.0211810000     -3.3075930000
C                  1.3438890000      1.6187570000     -4.2323750000
C                  1.5106560000      0.2069100000     -4.8249840000
C                  1.1495510000      2.6428650000     -5.3665750000
C                 -0.0037340000      2.2714760000     -6.3099220000
C                  0.1708590000      0.8590520000     -6.8851750000
C                  0.3588620000     -0.1748480000     -5.7665630000
H                  4.8851740000     -2.1224100000      3.8717070000
H                  1.8406660000      0.3188910000      5.7018110000
H                  1.6568170000      1.6291460000      3.5716340000
H                  6.0527030000     -1.2577590000     -0.2997300000
H                  4.1564970000     -3.0982620000      7.2998470000
H                  5.3341310000     -2.4023140000      6.1531070000
H                  4.0796400000     -3.5238500000      5.5679960000
H                  4.7089410000      1.6826860000     -1.6268470000
H                  3.5369910000      2.7576970000     -0.8388580000
H                  1.6911850000      1.2251060000     -1.4702780000
H                  2.8413580000      0.1478710000     -2.2577800000
H                  3.4466810000      1.9695800000     -3.8748750000
H                  2.3767740000      3.0759800000     -3.0311110000
H                  0.4239810000      1.6180920000     -3.6276240000
H                  1.5923530000     -0.5308980000     -4.0225370000
H                  2.4598270000      0.1683930000     -5.3787310000
H                  2.0819350000      2.7112410000     -5.9452560000
H                  0.9789870000      3.6370480000     -4.9380820000
H                 -0.0820390000      3.0049330000     -7.1210620000
H                 -0.9508710000      2.3184740000     -5.7559210000
H                  1.0522060000      0.8442810000     -7.5407950000
H                 -0.6885530000      0.5932460000     -7.5117870000
H                  0.5357730000     -1.1681560000     -6.1946270000
H                 -0.5705580000     -0.2486620000     -5.1861580000
$end
$rem
SCF_ALGORITHM = RCA_DIIS
BASIS  =  6-311++G(d,p)
GUI  =  2
THRESH = 14
SCF_CONVERGENCE = 8
JOB_TYPE  =  SP
METHOD  =  B3LYP
SOLVENT_METHOD = COSMO
$end
$solvent
dielectric 37.219
opticaldielectric 1.43
$end

--------------------------------------------------------------

             Standard Nuclear Orientation (Angstroms)
    I     Atom           X                Y                Z
 ----------------------------------------------------------------
    1      C       4.4538020336    -0.4047426516     0.4209224080
    2      C       5.1610389926     0.7633070229     0.6317000603
    3      C       4.5715860848     2.0157595277     0.3570876261
    4      C       3.1288852360    -0.3511453561    -0.0735954379
    5      C       2.5262057334     0.9036333748    -0.3526716555
    6      C       3.2780566408     2.0702705312    -0.1251757661
    7      C       2.3884953666    -1.5736469595    -0.2934370552
    8      C       1.0415782228    -1.4361044778    -0.7974176134
    9      C       0.4285715009    -0.2356583494    -1.0860946808
   10      C       1.1454338958     1.0039503766    -0.8673142981
   11      O       2.8349795080    -2.7497022664    -0.0755300930
   12      O       0.6222779096     2.1233449199    -1.1049463504
   13      O       0.4043336611    -2.6303365058    -0.9755900635
   14      O       6.4563343607     0.8153102358     1.1106342175
   15      C       7.0949097682    -0.4120342718     1.4048983079
   16      C      -0.9842473370    -0.1735243399    -1.6059924747
   17      C      -2.0322087494     0.0190782648    -0.4916792624
   18      C      -3.4638996633     0.1170950827    -1.0329782067
   19      C      -4.5481042299     0.4106142697     0.0186581591
   20      C      -4.7169808126    -0.7298673191     1.0399764522
   21      C      -5.9025651091     0.7237913617    -0.6449154463
   22      C      -7.0090631664     1.0217021182     0.3772444596
   23      C      -7.1594877492    -0.1185803002     1.3938411036
   24      C      -5.8189454266    -0.4383054748     2.0693477569
   25      H       4.8662210589    -1.3851736235     0.6176575198
   26      H       5.1518695972     2.9147621600     0.5327024994
   27      H       2.8042330902     3.0208747497    -0.3422635688
   28      H       1.0946902656    -3.2717565279    -0.6968737207
   29      H       8.0924486050    -0.1558884359     1.7647036846
   30      H       7.1813060543    -1.0468018546     0.5147954412
   31      H       6.5599293423    -0.9701308265     2.1827157289
   32      H      -1.2128248049    -1.0912878963    -2.1577239487
   33      H      -1.0573995371     0.6711031102    -2.2986602580
   34      H      -1.7860095343     0.9340928530     0.0581363065
   35      H      -1.9464274060    -0.8133035954     0.2142270940
   36      H      -3.7217399765    -0.8129889013    -1.5601181464
   37      H      -3.4938536952     0.9121453185    -1.7897687567
   38      H      -4.2371653503     1.3092574330     0.5733764849
   39      H      -3.7708489361    -0.9177648990     1.5542577022
   40      H      -4.9630188730    -1.6538460364     0.4970459876
   41      H      -6.2019747215    -0.1361282724    -1.2611775718
   42      H      -5.7878041766     1.5701880154    -1.3316037306
   43      H      -7.9613213741     1.2014648252    -0.1355211969
   44      H      -6.7642565214     1.9490888969     0.9122378110
   45      H      -7.5247043722    -1.0159994363     0.8760728023
   46      H      -7.9155288380     0.1373807026     2.1453530801
   47      H      -5.9317736409    -1.2887360768     2.7514288797
   48      H      -5.5158171631     0.4169626690     2.6880315735
 ----------------------------------------------------------------

   20   -1077.8661371756      5.58E-09 Convergence criterion met
   13   -1077.9491314840      6.03E-09 Convergence criterion met
 Total energy in the final basis set = -1077.94913148

                    Orbital Energies (a.u.)
 --------------------------------------------------------------

 Alpha MOs
 -- Occupied --
-19.1567 -19.1441 -19.0884 -19.0765 -10.2356 -10.2256 -10.2224 -10.2219
-10.2143 -10.1785 -10.1733 -10.1710 -10.1696 -10.1694 -10.1621 -10.1598
-10.1562 -10.1544 -10.1542 -10.1540 -10.1534 -10.1527 -10.1526 -10.1519
 -1.0679  -1.0639  -1.0024  -0.9979  -0.8605  -0.8279  -0.8118  -0.7821
 -0.7578  -0.7540  -0.7319  -0.7284  -0.6972  -0.6822  -0.6527  -0.6191
 -0.6104  -0.5996  -0.5793  -0.5749  -0.5631  -0.5448  -0.5431  -0.5163
 -0.4891  -0.4824  -0.4809  -0.4674  -0.4672  -0.4557  -0.4387  -0.4374
 -0.4331  -0.4295  -0.4276  -0.4221  -0.4184  -0.4064  -0.4024  -0.3974
 -0.3902  -0.3893  -0.3773  -0.3726  -0.3690  -0.3620  -0.3569  -0.3564
 -0.3469  -0.3387  -0.3360  -0.3336  -0.3302  -0.3243  -0.3175  -0.3130
 -0.3063  -0.2899  -0.2856  -0.2658  -0.2630  -0.2478  -0.2418  -0.2205
 -0.1531

 Beta MOs
 -- Occupied --
-19.1568 -19.1437 -19.0822 -19.0715 -10.2356 -10.2242 -10.2213 -10.2190
-10.2143 -10.1783 -10.1736 -10.1703 -10.1688 -10.1685 -10.1610 -10.1598
-10.1563 -10.1544 -10.1542 -10.1540 -10.1533 -10.1527 -10.1525 -10.1519
 -1.0679  -1.0619  -0.9936  -0.9873  -0.8583  -0.8279  -0.8087  -0.7806
 -0.7567  -0.7521  -0.7319  -0.7275  -0.6962  -0.6760  -0.6494  -0.6173
 -0.6095  -0.5992  -0.5781  -0.5725  -0.5628  -0.5439  -0.5428  -0.5142
 -0.4873  -0.4819  -0.4781  -0.4673  -0.4669  -0.4553  -0.4366  -0.4330
 -0.4326  -0.4272  -0.4226  -0.4205  -0.4148  -0.4042  -0.4008  -0.3940
 -0.3878  -0.3824  -0.3757  -0.3690  -0.3637  -0.3602  -0.3557  -0.3470
 -0.3419  -0.3363  -0.3352  -0.3331  -0.3297  -0.3239  -0.3162  -0.3063
 -0.3050  -0.2895  -0.2855  -0.2577  -0.2536  -0.2372  -0.2330  -0.2149

          Ground-State Mulliken Net Atomic Charges

     Atom                 Charge (a.u.)    Spin (a.u.)
  --------------------------------------------------------
      1 C                     0.918895       0.096347
      2 C                    -0.934645      -0.013101
      3 C                    -0.488345       0.054700
      4 C                     0.825033       0.008111
      5 C                    -0.571743       0.057765
      6 C                     0.167378       0.003389
      7 C                    -0.713543       0.203188
      8 C                    -0.615963       0.015402
      9 C                     1.539248       0.071331
     10 C                    -1.046767       0.076795
     11 O                    -0.549387       0.226444
     12 O                    -0.481050       0.185553
     13 O                    -0.293612       0.015007
     14 O                    -0.224119       0.001042
     15 C                    -0.365678       0.000132
     16 C                     0.084325       0.010583
     17 C                    -0.567830      -0.010820
     18 C                    -0.738513       0.008051
     19 C                     0.929987      -0.003092
     20 C                    -0.470242       0.000633
     21 C                    -0.453074       0.000245
     22 C                    -0.342180      -0.000060
     23 C                    -0.400799       0.000212
     24 C                    -0.364880       0.000534
     25 H                     0.173645      -0.004530
     26 H                     0.223694      -0.004793
     27 H                     0.194206       0.000220
     28 H                     0.313173      -0.003380
     29 H                     0.201582      -0.000091
     30 H                     0.175654       0.000163
     31 H                     0.174849       0.000194
     32 H                     0.217732      -0.000476
     33 H                     0.201199       0.003415
     34 H                     0.180504      -0.001796
     35 H                     0.165371       0.003283
     36 H                     0.117554      -0.000249
     37 H                     0.137773       0.000309
     38 H                     0.147121      -0.000080
     39 H                     0.143123      -0.000456
     40 H                     0.161319      -0.000157
     41 H                     0.156602       0.000015
     42 H                     0.145479      -0.000028
     43 H                     0.182818      -0.000017
     44 H                     0.131848       0.000020
     45 H                     0.124720      -0.000001
     46 H                     0.175734       0.000022
     47 H                     0.170960       0.000022
     48 H                     0.140844       0.000001
  --------------------------------------------------------
  Sum of atomic charges =    -1.000000

                    Cartesian Multipole Moments
 -----------------------------------------------------------------
    Charge (ESU x 10^10)
                -4.8032
    Dipole Moment (Debye)
         X      -6.9088      Y      -0.0311      Z       3.5717
       Tot       7.7775
    Quadrupole Moments (Debye-Ang)
        XX    -162.9586     XY       1.5643     YY    -176.2723
        XZ       4.5112     YZ       1.9778     ZZ    -154.3360

 Total job time:  793.37s(wall), 6173.84s(cpu)
        *  Thank you very much for using Q-Chem.  Have a nice day.  *
