 Q-Chem 5.4, Q-Chem, Inc., Pleasanton, CA (2021)
 Q-Chem 5.4.0 for Intel X86 EM64T Linux

User input:
--------------------------------------------------------------
$molecule
-2 1
C                 -4.8343240000      1.1252120000     -1.5815710000
C                 -3.5990510000      0.6094170000     -0.8837880000
C                 -3.7257950000     -0.2325300000      0.2559280000
C                 -2.6282210000     -0.7233780000      0.9432870000
C                 -2.8979050000     -1.6096240000      2.1425260000
C                 -1.2967360000     -0.3978800000      0.5073360000
C                 -0.1166000000     -0.9058830000      1.1833790000
O                 -0.1685850000     -1.6857960000      2.2001830000
C                  1.1629770000     -0.4744840000      0.6401560000
C                  2.3303720000     -0.9508530000      1.2907760000
C                  3.5992640000     -0.6296650000      0.8686130000
C                  4.8344620000     -1.1376220000      1.5722460000
C                  3.7258170000      0.2295130000     -0.2581980000
C                  2.6280730000      0.7369640000     -0.9331080000
C                  2.8975600000      1.6428170000     -2.1176500000
C                  1.2967770000      0.3923870000     -0.5114480000
C                  0.1168240000      0.8834820000     -1.2001450000
O                  0.1689870000      1.6416560000     -2.2332560000
C                 -1.1628960000      0.4661570000     -0.6463710000
C                 -2.3302670000      0.9414330000     -1.2978280000
H                 -5.4661460000      0.3097110000     -1.9561310000
H                 -5.4739590000      1.7249810000     -0.9096710000
H                 -4.5702530000      1.7582670000     -2.4344390000
H                 -4.7227700000     -0.5068250000      0.5997440000
H                 -2.4642750000     -2.6036560000      2.0124860000
H                 -2.4282840000     -1.2159100000      3.0459240000
H                 -3.9821020000     -1.6963880000      2.2989290000
H                  2.1673450000     -1.5921440000      2.1513290000
H                  5.4820870000     -1.7158870000      0.9008870000
H                  4.5705590000     -1.7833890000      2.4155800000
H                  5.4579940000     -0.3157080000      1.9672030000
H                  4.7228750000      0.4956680000     -0.6081220000
H                  3.9812170000      1.7827880000     -2.2341310000
H                  2.4138810000      2.6141040000     -1.9980330000
H                  2.4784010000      1.2333760000     -3.0394640000
H                 -2.1673030000      1.5896910000     -2.1531580000
$end
$rem
MAX_SCF_CYCLES=200
BASIS  =  6-311++G(d,p)
GUI  =  2
JOB_TYPE  =  SP
METHOD  =  B3LYP
SOLVENT_METHOD = COSMO
$end
$solvent
dielectric 37.219
opticaldielectric 1.43
$end

--------------------------------------------------------------

             Standard Nuclear Orientation (Angstroms)
    I     Atom           X                Y                Z
 ----------------------------------------------------------------
    1      C       4.9930174444    -1.4858792221    -0.0038232896
    2      C       3.6829216750    -0.7358965186    -0.0082955183
    3      C       3.6782528335     0.6866896668     0.0025718728
    4      C       2.5073014085     1.4261677901     0.0129499765
    5      C       2.6381068215     2.9358280903     0.0252517361
    6      C       1.2317718060     0.7615369012     0.0009273968
    7      C      -0.0213310868     1.4946387073    -0.0098914011
    8      O      -0.0877265125     2.7753641084    -0.0237187806
    9      C      -1.2315588579     0.6860691583    -0.0010794613
   10      C      -2.4684296671     1.3811915046    -0.0017271201
   11      C      -3.6829323142     0.7358939908    -0.0084111587
   12      C      -4.9930322265     1.4858565576    -0.0031026949
   13      C      -3.6782500713    -0.6866986921     0.0022500973
   14      C      -2.5073008415    -1.4261729568     0.0126244896
   15      C      -2.6381122412    -2.9358325605     0.0248273220
   16      C      -1.2317635357    -0.7615343569     0.0008085180
   17      C       0.0213298911    -1.4946221391    -0.0094922812
   18      O       0.0877731392    -2.7753540555    -0.0228408418
   19      C       1.2315548385    -0.6860508109    -0.0007138396
   20      C       2.4684144149    -1.3811885003    -0.0014429278
   21      H       5.6118734672    -1.2383291921    -0.8757592505
   22      H       5.6061966133    -1.2503348443     0.8843408560
   23      H       4.8281598838    -2.5678437311    -0.0109463197
   24      H       4.6304691083     1.2164680980    -0.0024599429
   25      H       2.1681212319     3.3864789263    -0.8517159743
   26      H       2.1185129774     3.3765142869     0.8781881096
   27      H       3.7010826793     3.2123115798     0.0586018571
   28      H      -2.4051885046     2.4648729323     0.0025779884
   29      H      -5.6131611081     1.2371505359    -0.8738018063
   30      H      -4.8282104667     2.5678126382    -0.0118705103
   31      H      -5.6049285841     1.2514805169     0.8862659178
   32      H      -4.6304645631    -1.2164826410    -0.0028952241
   33      H      -3.7011020462    -3.2122824948     0.0579981843
   34      H      -2.1185806932    -3.3765671125     0.8777587750
   35      H      -2.1680788564    -3.3864397955    -0.8521555668
   36      H       2.4051641010    -2.4648697839     0.0029595870
 ----------------------------------------------------------------

   14    -846.2234725574      6.52e-06  Convergence criterion met
 Total energy in the final basis set =     -846.2234725574
    6    -846.4863371048      3.30e-06  Convergence criterion met
 Total energy in the final basis set =     -846.4863371048

                    Orbital Energies (a.u.)
 --------------------------------------------------------------

 Alpha MOs
 -- Occupied --
-19.0149 -19.0149 -10.1722 -10.1721 -10.1580 -10.1580 -10.1510 -10.1509
-10.1502 -10.1502 -10.1381 -10.1381 -10.1373 -10.1373 -10.1360 -10.1360
-10.1336 -10.1336 -10.1301 -10.1301  -0.9403  -0.9370  -0.8288  -0.8252
 -0.7625  -0.7537  -0.7500  -0.7210  -0.6776  -0.6643  -0.6625  -0.6568
 -0.6117  -0.5902  -0.5623  -0.5338  -0.5069  -0.5017  -0.4687  -0.4478
 -0.4317  -0.4293  -0.4093  -0.4065  -0.4025  -0.3922  -0.3901  -0.3892
 -0.3847  -0.3795  -0.3751  -0.3730  -0.3692  -0.3612  -0.3585  -0.3436
 -0.3393  -0.3346  -0.3249  -0.3103  -0.3099  -0.3097  -0.2958  -0.2902
 -0.2217  -0.2179  -0.2177  -0.2065  -0.1960  -0.1888  -0.1002

          Ground-State Mulliken Net Atomic Charges

     Atom                 Charge (a.u.)
  ----------------------------------------
      1 C                    -0.412572
      2 C                     0.452543
      3 C                    -0.514527
      4 C                     0.361779
      5 C                    -0.546736
      6 C                     0.203362
      7 C                    -0.798016
      8 O                    -0.654508
      9 C                     0.079059
     10 C                    -0.329441
     11 C                     0.453078
     12 C                    -0.412673
     13 C                    -0.514406
     14 C                     0.362053
     15 C                    -0.547021
     16 C                     0.205336
     17 C                    -0.797897
     18 O                    -0.654531
     19 C                     0.080014
     20 C                    -0.329327
     21 H                     0.158620
     22 H                     0.157754
     23 H                     0.156533
     24 H                     0.114930
     25 H                     0.154984
     26 H                     0.154835
     27 H                     0.139057
     28 H                     0.120473
     29 H                     0.158512
     30 H                     0.156533
     31 H                     0.157884
     32 H                     0.114945
     33 H                     0.139112
     34 H                     0.154830
     35 H                     0.154945
     36 H                     0.120481
  ----------------------------------------
  Sum of atomic charges =    -2.000005

                    Cartesian Multipole Moments
 -----------------------------------------------------------------
    Charge (ESU x 10^10)
                -9.6064
    Dipole Moment (Debye)
         X      -0.0004      Y      -0.0028      Z       0.1638
       Tot       0.1638
    Quadrupole Moments (Debye-Ang)
        XX    -145.0646     XY       2.3783     YY    -181.1999
        XZ       0.0002     YZ       0.0097     ZZ    -131.5363

 Total job time:  149.76s(wall), 1137.60s(cpu)
        *  Thank you very much for using Q-Chem.  Have a nice day.  *
