 Gaussian 16, Revision A.03,
 Gaussian 16:  ES64L-G16RevA.03 25-Dec-2016

 --------------------------------------
 #P UB3LYP/6-311++G(d,p) nosym opt freq
 --------------------------------------

 -------
 Radical
 -------
 Symbolic Z-matrix:
 Charge = -1 Multiplicity = 2

 SCF Done:  E(UB3LYP) =  -1279.37858276     A.U. after   25 cycles
 Optimization completed.
    -- Stationary point found.
 Normal termination of Gaussian 16 at Wed Jan 10 05:03:36 2024.

 ----------------------------------------------------------------------
 #P Geom=AllCheck Guess=TCheck SCRF=Check GenChk UB3LYP/6-311++G(d,p) F
 req
 ----------------------------------------------------------------------

 Structure from the checkpoint file:  "071-rad.chk"
 -------
 Radical
 -------
 Charge = -1 Multiplicity = 2

                          Input orientation:
 ---------------------------------------------------------------------
 Center     Atomic      Atomic             Coordinates (Angstroms)
 Number     Number       Type             X           Y           Z
 ---------------------------------------------------------------------
      1          6           0        1.248547    1.608276   -0.520241
      2          6           0        0.006229    1.195859    0.127946
      3          6           0       -0.395953   -0.114147    0.125962
      4          6           0        0.391324   -1.157475   -0.525642
      5          6           0        1.644994   -0.776759   -1.181302
      6          6           0        2.039845    0.553477   -1.131650
      7          8           0        1.611948    2.811759   -0.537375
      8          8           0       -0.000739   -2.358296   -0.525081
      9         16           0        3.574815    1.129195   -1.899432
     10          6           0        4.465420    2.079481   -0.625364
     11          6           0        4.399341    3.468936   -0.615657
     12          6           0        5.265616    1.386492    0.278447
     13          6           0        6.005917    2.100290    1.220561
     14          6           0        5.154197    4.174845    0.318487
     15          6           0        5.952468    3.493630    1.238631
     16          8           0        3.297590    2.044258   -3.018649
     17          8           0        4.448682   -0.034212   -2.160123
     18          1           0        3.751988    3.968315   -1.322265
     19          1           0        5.315888    0.305886    0.229957
     20          1           0        5.109931    5.258658    0.335022
     21          1           0        6.629345    1.568212    1.931331
     22          6           0       -1.681764   -0.538364    0.790863
     23          6           0       -0.810698    2.278279    0.787233
     24          1           0        6.531250    4.048658    1.969957
     25          1           0       -2.544702   -0.012641    0.364833
     26          1           0       -1.671972   -0.310121    1.863642
     27          1           0       -1.823711   -1.610787    0.661840
     28          1           0       -1.808188    2.358739    0.338243
     29          1           0       -0.302000    3.235837    0.678504
     30          1           0       -0.959408    2.075823    1.854744
     31          6           0        2.382270   -1.897914   -1.870119
     32          1           0        1.747887   -2.782837   -1.843137
     33          1           0        3.330374   -2.119923   -1.373942
     34          1           0        2.633130   -1.647050   -2.901925
 ---------------------------------------------------------------------

 SCF Done:  E(UB3LYP) =  -1279.37858276     A.U. after    2 cycles

 Alpha  occ. eigenvalues --  -88.92563 -18.98817 -18.98691 -18.95802 -18.95746
 Alpha  occ. eigenvalues --  -10.11120 -10.10291 -10.10248 -10.09555 -10.09284
 Alpha  occ. eigenvalues --  -10.09215 -10.09032 -10.08707 -10.07544 -10.07370
 Alpha  occ. eigenvalues --  -10.05876 -10.05732 -10.05163 -10.05144 -10.03595
 Alpha  occ. eigenvalues --   -7.98905  -5.95172  -5.95096  -5.95005  -0.98055
 Alpha  occ. eigenvalues --   -0.88729  -0.88182  -0.87460  -0.77493  -0.72207
 Alpha  occ. eigenvalues --   -0.68528  -0.67290  -0.66402  -0.61769  -0.61007
 Alpha  occ. eigenvalues --   -0.58140  -0.54091  -0.52583  -0.52313  -0.49624
 Alpha  occ. eigenvalues --   -0.45510  -0.43603  -0.42711  -0.39263  -0.38020
 Alpha  occ. eigenvalues --   -0.37313  -0.35898  -0.35581  -0.34018  -0.33044
 Alpha  occ. eigenvalues --   -0.32491  -0.32385  -0.30128  -0.30067  -0.29348
 Alpha  occ. eigenvalues --   -0.29206  -0.28697  -0.28146  -0.27954  -0.27709
 Alpha  occ. eigenvalues --   -0.26485  -0.26211  -0.25675  -0.24843  -0.24130
 Alpha  occ. eigenvalues --   -0.23707  -0.21120  -0.19892  -0.18387  -0.17817
 Alpha  occ. eigenvalues --   -0.17032  -0.16495  -0.15902  -0.13096  -0.12820
 Alpha  occ. eigenvalues --   -0.11549  -0.04437
 Alpha virt. eigenvalues --    0.05836   0.06497   0.07469   0.08032   0.08419
 Alpha virt. eigenvalues --    0.09451   0.09723   0.10303   0.10893   0.11165
 Alpha virt. eigenvalues --    0.12482   0.12814   0.13175   0.13508   0.13894

  Beta  occ. eigenvalues --  -88.92565 -18.98810 -18.98688 -18.95139 -18.95017
  Beta  occ. eigenvalues --  -10.11023 -10.10289 -10.10139 -10.09553 -10.09283
  Beta  occ. eigenvalues --  -10.09215 -10.09032 -10.08704 -10.07472 -10.07090
  Beta  occ. eigenvalues --  -10.05828 -10.05640 -10.05171 -10.05149 -10.03614
  Beta  occ. eigenvalues --   -7.98906  -5.95174  -5.95097  -5.95009  -0.98038
  Beta  occ. eigenvalues --   -0.87802  -0.87352  -0.86815  -0.77488  -0.71658
  Beta  occ. eigenvalues --   -0.68339  -0.67196  -0.66398  -0.61503  -0.60741
  Beta  occ. eigenvalues --   -0.57983  -0.53945  -0.52342  -0.51964  -0.49500
  Beta  occ. eigenvalues --   -0.45360  -0.43254  -0.42563  -0.39112  -0.37869
  Beta  occ. eigenvalues --   -0.37299  -0.35817  -0.35527  -0.34006  -0.32661
  Beta  occ. eigenvalues --   -0.32392  -0.32079  -0.29825  -0.29507  -0.29029
  Beta  occ. eigenvalues --   -0.28915  -0.28634  -0.28090  -0.27883  -0.27389
  Beta  occ. eigenvalues --   -0.26227  -0.25669  -0.25082  -0.23961  -0.23447
  Beta  occ. eigenvalues --   -0.22270  -0.21012  -0.19790  -0.18313  -0.17684
  Beta  occ. eigenvalues --   -0.16978  -0.16425  -0.13140  -0.12214  -0.12036
  Beta  occ. eigenvalues --   -0.10943
  Beta virt. eigenvalues --    0.02693   0.05992   0.06498   0.07519   0.08039
  Beta virt. eigenvalues --    0.08420   0.09718   0.10311   0.10751   0.10900
  Beta virt. eigenvalues --    0.11199   0.12508   0.12883   0.13192   0.13525

 Mulliken charges and spin densities:
               1          2
     1  C   -0.910799   0.025533
     2  C    0.597516   0.072655
     3  C    1.033567   0.055840
     4  C   -1.684336   0.028830
     5  C    0.901692   0.205183
     6  C    0.068457   0.089129
     7  O   -0.300999   0.226536
     8  O   -0.355366   0.287719
     9  S    0.190536  -0.025729
    10  C    0.334589  -0.009318
    11  C   -0.281333   0.027246
    12  C    0.125844  -0.003173
    13  C   -0.494855   0.003017
    14  C   -0.372226  -0.003819
    15  C   -0.274974   0.001494
    16  O   -0.105899   0.004356
    17  O   -0.134009  -0.001193
    18  H    0.275536   0.000160
    19  H    0.219393   0.000620
    20  H    0.160261  -0.000047
    21  H    0.157702   0.000020
    22  C   -0.493315   0.001374
    23  C   -0.577126  -0.001830
    24  H    0.133242  -0.000112
    25  H    0.125077   0.001512
    26  H    0.124671   0.001349
    27  H    0.202785  -0.002278
    28  H    0.122319   0.003008
    29  H    0.199999  -0.001366
    30  H    0.119916   0.002859
    31  C   -0.629231  -0.005439
    32  H    0.185533  -0.002231
    33  H    0.169829   0.010440
    34  H    0.166001   0.007654
 Sum of Mulliken charges =  -1.00000   1.00000

 Dipole moment (field-independent basis, Debye):
    X=             -9.0540    Y=             -1.5749    Z=              7.2737  Tot=             11.7202
 Quadrupole moment (field-independent basis, Debye-Ang):
   XX=           -165.5543   YY=           -155.5457   ZZ=           -148.2015
   XY=            -12.8169   XZ=             27.1539   YZ=              6.9133

  Exact polarizability: 254.601  39.538 263.917  -6.845  19.997 178.433
 Approx polarizability: 336.482  37.857 469.219   1.900  13.471 283.751

                      1                      2                      3
                      A                      A                      A
 Frequencies --     21.6853                32.7356                50.5928
 Red. masses --      4.5296                 5.3035                 4.3775
 Frc consts  --      0.0013                 0.0033                 0.0066
 IR Inten    --      0.3871                 0.7555                 0.4396

                      4                      5                      6
                      A                      A                      A
 Frequencies --     55.1352                78.9920                93.5274
 Red. masses --      1.0784                 3.8831                 3.7656
 Frc consts  --      0.0019                 0.0143                 0.0194
 IR Inten    --      0.0382                 1.7620                 6.4882

                      7                      8                      9
                      A                      A                      A
 Frequencies --    107.1921               130.6354               151.1694
 Red. masses --      1.1273                 3.0755                 1.2021
 Frc consts  --      0.0076                 0.0309                 0.0162
 IR Inten    --      0.4248                 0.2011                 0.1590

                     10                     11                     12
                      A                      A                      A
 Frequencies --    167.2107               182.1390               190.3848
 Red. masses --      4.6984                 6.2536                 5.6605
 Frc consts  --      0.0774                 0.1222                 0.1209
 IR Inten    --      0.5060                 0.8582                 6.0472

                     13                     14                     15
                      A                      A                      A
 Frequencies --    217.0405               241.6312               264.3434
 Red. masses --      5.3487                 6.0094                 9.8607
 Frc consts  --      0.1484                 0.2067                 0.4060
 IR Inten    --      1.9842                 1.0329                 0.7193

                     16                     17                     18
                      A                      A                      A
 Frequencies --    300.3169               316.7494               333.0062
 Red. masses --      7.1885                 2.6462                 3.4432
 Frc consts  --      0.3820                 0.1564                 0.2250
 IR Inten    --      0.9023                 0.7106                 3.0052

                     19                     20                     21
                      A                      A                      A
 Frequencies --    341.9982               375.6534               395.9080
 Red. masses --      4.7178                 4.6120                 5.7933
 Frc consts  --      0.3251                 0.3835                 0.5350
 IR Inten    --      2.9363                 4.0276                 1.1183

                     22                     23                     24
                      A                      A                      A
 Frequencies --    412.6550               419.6653               431.9930
 Red. masses --      2.9058                 6.6878                 7.1872
 Frc consts  --      0.2915                 0.6940                 0.7902
 IR Inten    --      0.2046                12.3629                 0.8016

                     25                     26                     27
                      A                      A                      A
 Frequencies --    441.9291               463.3127               508.0122
 Red. masses --      6.3895                 5.1195                 7.1063
 Frc consts  --      0.7352                 0.6475                 1.0805
 IR Inten    --      6.5873                11.7304                 4.4446

                     28                     29                     30
                      A                      A                      A
 Frequencies --    521.0848               568.2677               576.1415
 Red. masses --      7.0267                 5.3965                 5.9647
 Frc consts  --      1.1241                 1.0268                 1.1665
 IR Inten    --     32.6961                25.2919                23.7831

                     31                     32                     33
                      A                      A                      A
 Frequencies --    602.5341               628.4245               692.4585
 Red. masses --      6.9211                 6.4150                 3.7897
 Frc consts  --      1.4804                 1.4926                 1.0706
 IR Inten    --    207.3024                 0.1766                 2.5532

                     34                     35                     36
                      A                      A                      A
 Frequencies --    699.6903               706.2774               718.2900
 Red. masses --      1.7956                 5.9118                 6.3605
 Frc consts  --      0.5179                 1.7375                 1.9335
 IR Inten    --     50.6617                 8.3777                53.6714

                     37                     38                     39
                      A                      A                      A
 Frequencies --    757.2075               768.0484               780.8716
 Red. masses --      1.9786                 6.3421                 5.7356
 Frc consts  --      0.6684                 2.2042                 2.0606
 IR Inten    --     15.0079                 7.3082                13.0866

                     40                     41                     42
                      A                      A                      A
 Frequencies --    843.3079               884.6621               927.8904
 Red. masses --      1.2459                 2.3938                 1.3907
 Frc consts  --      0.5221                 1.1038                 0.7055
 IR Inten    --      0.3038                 3.6492                 0.4585

                     43                     44                     45
                      A                      A                      A
 Frequencies --    952.8502               977.3107               988.4588
 Red. masses --      2.7977                 1.3717                 1.3010
 Frc consts  --      1.4966                 0.7719                 0.7490
 IR Inten    --      1.9959                 0.0904                 0.0975

                     46                     47                     48
                      A                      A                      A
 Frequencies --   1010.5701              1015.0537              1026.5445
 Red. masses --      2.1116                 5.4807                 1.4094
 Frc consts  --      1.2706                 3.3271                 0.8750
 IR Inten    --      2.8820                 7.7130                 0.0195

                     49                     50                     51
                      A                      A                      A
 Frequencies --   1039.7904              1044.3924              1055.7804
 Red. masses --      3.8365                 1.4881                 1.8144
 Frc consts  --      2.4439                 0.9563                 1.1916
 IR Inten    --     30.5994                 0.5207                 5.1445

                     52                     53                     54
                      A                      A                      A
 Frequencies --   1059.3927              1060.1588              1093.5194
 Red. masses --      1.5914                 3.8786                 1.5800
 Frc consts  --      1.0523                 2.5684                 1.1132
 IR Inten    --      8.6369               131.4356                11.2025

                     55                     56                     57
                      A                      A                      A
 Frequencies --   1104.8640              1111.3621              1127.9982
 Red. masses --      3.7100                 3.1262                 4.0444
 Frc consts  --      2.6684                 2.2750                 3.0319
 IR Inten    --     80.7154                17.1073                18.3433

                     58                     59                     60
                      A                      A                      A
 Frequencies --   1175.7092              1194.3368              1200.9958
 Red. masses --      1.1131                 1.1497                 6.4028
 Frc consts  --      0.9065                 0.9662                 5.4413
 IR Inten    --      0.0792                 6.4208                28.4366

                     61                     62                     63
                      A                      A                      A
 Frequencies --   1228.6492              1263.9661              1330.9609
 Red. masses --     15.1211                 4.5805                 2.1018
 Frc consts  --     13.4490                 4.3116                 2.1937
 IR Inten    --    129.7827                73.3989                 0.1339

                     64                     65                     66
                      A                      A                      A
 Frequencies --   1341.9355              1367.4266              1390.0785
 Red. masses --      2.3701                 1.5323                 1.2662
 Frc consts  --      2.5147                 1.6882                 1.4415
 IR Inten    --      2.9426                18.9495                10.8147

                     67                     68                     69
                      A                      A                      A
 Frequencies --   1396.7889              1407.8821              1459.1692
 Red. masses --      1.3491                 2.2948                 2.1761
 Frc consts  --      1.5509                 2.6799                 2.7299
 IR Inten    --     39.2192                23.0242               139.6269

                     70                     71                     72
                      A                      A                      A
 Frequencies --   1470.9893              1476.3860              1481.6141
 Red. masses --      2.1468                 1.0898                 1.5935
 Frc consts  --      2.7369                 1.3996                 2.0610
 IR Inten    --     12.9124                 1.7684                23.3915

                     73                     74                     75
                      A                      A                      A
 Frequencies --   1484.9119              1492.3971              1495.6435
 Red. masses --      1.2259                 1.0482                 1.1395
 Frc consts  --      1.5925                 1.3755                 1.5018
 IR Inten    --      8.3946                 0.0332                16.8172

                     76                     77                     78
                      A                      A                      A
 Frequencies --   1505.6600              1506.9482              1512.6591
 Red. masses --      2.0677                 1.0483                 5.9968
 Frc consts  --      2.7618                 1.4026                 8.0845
 IR Inten    --      9.6684                12.9555               200.8854

                     79                     80                     81
                      A                      A                      A
 Frequencies --   1544.5726              1620.0140              1623.8181
 Red. masses --      8.8922                 5.5995                 7.8761
 Frc consts  --     12.4991                 8.6584                12.2360
 IR Inten    --    148.7588                 1.2519                10.4218

                     82                     83                     84
                      A                      A                      A
 Frequencies --   1625.0979              2997.5791              2998.6244
 Red. masses --      6.2851                 1.0411                 1.0408
 Frc consts  --      9.7796                 5.5115                 5.5140
 IR Inten    --      3.4854                54.2900               110.0179

                     85                     86                     87
                      A                      A                      A
 Frequencies --   3031.3505              3035.6328              3040.2659
 Red. masses --      1.0991                 1.0989                 1.0373
 Frc consts  --      5.9503                 5.9662                 5.6490
 IR Inten    --     71.6088                 1.6808                34.3840

                     88                     89                     90
                      A                      A                      A
 Frequencies --   3089.2921              3118.2391              3120.9614
 Red. masses --      1.0966                 1.0947                 1.0948
 Frc consts  --      6.1664                 6.2711                 6.2830
 IR Inten    --     19.1942                 5.3668                 8.1923

                     91                     92                     93
                      A                      A                      A
 Frequencies --   3129.0091              3147.7671              3162.7359
 Red. masses --      1.1022                 1.0848                 1.0898
 Frc consts  --      6.3580                 6.3331                 6.4225
 IR Inten    --      8.0791                 1.3106                28.5516

                     94                     95                     96
                      A                      A                      A
 Frequencies --   3174.0596              3197.7217              3226.4018
 Red. masses --      1.0953                 1.0928                 1.0926
 Frc consts  --      6.5017                 6.5835                 6.7011
 IR Inten    --     44.0255                 6.1416                 4.1419

 - Thermochemistry -
 -------------------
 Temperature   298.150 Kelvin.  Pressure   1.00000 Atm.
 Atom     1 has atomic number  6 and mass  12.00000

 Molecular mass:   290.06128 amu.
 Principal axes and moments of inertia in atomic units:
                           1         2         3
     Eigenvalues --  3426.841267778.201589213.25669
           X            0.85196  -0.42985   0.29900
           Y            0.52360   0.69523  -0.49243
           Z            0.00380   0.57609   0.81738
 This molecule is an asymmetric top.
 Rotational symmetry number  1.
 Warning -- assumption of classical behavior for rotation
           may cause significant error
 Rotational temperatures (Kelvin)      0.02528     0.01114     0.00940
 Rotational constants (GHZ):           0.52665     0.23203     0.19589
 Zero-point vibrational energy     670728.6 (Joules/Mol)
                                  160.30799 (Kcal/Mol)
 Warning -- explicit consideration of  31 degrees of freedom as
           vibrations may cause significant error
 Vibrational temperatures:     31.20    47.10    72.79    79.33   113.65
          (Kelvin)            134.57   154.23   187.96   217.50   240.58
                              262.06   273.92   312.27   347.65   380.33
                              432.09   455.73   479.12   492.06   540.48
                              569.62   593.72   603.80   621.54   635.84
                              666.60   730.92   749.72   817.61   828.94
                              866.91   904.16   996.29  1006.70  1016.18
                             1033.46  1089.45  1105.05  1123.50  1213.33
                             1272.83  1335.03  1370.94  1406.13  1422.17
                             1453.98  1460.44  1476.97  1496.03  1502.65
                             1519.03  1524.23  1525.33  1573.33  1589.65
                             1599.00  1622.94  1691.58  1718.38  1727.97
                             1767.75  1818.57  1914.96  1930.75  1967.42
                             2000.01  2009.67  2025.63  2099.42  2116.43
                             2124.19  2131.71  2136.46  2147.23  2151.90
                             2166.31  2168.16  2176.38  2222.30  2330.84
                             2336.31  2338.15  4312.85  4314.35  4361.44
                             4367.60  4374.26  4444.80  4486.45  4490.37
                             4501.95  4528.93  4550.47  4566.76  4600.81
                             4642.07

 Zero-point correction=                           0.255467 (Hartree/Particle)
 Thermal correction to Energy=                    0.274805
 Thermal correction to Enthalpy=                  0.275750
 Thermal correction to Gibbs Free Energy=         0.205866
 Sum of electronic and zero-point Energies=          -1279.123116
 Sum of electronic and thermal Energies=             -1279.103777
 Sum of electronic and thermal Enthalpies=           -1279.102833
 Sum of electronic and thermal Free Energies=        -1279.172717

                     E (Thermal)             CV                S
                      KCal/Mol        Cal/Mol-Kelvin    Cal/Mol-Kelvin
 Total                  172.443             72.263            147.083
 Electronic               0.000              0.000              1.377
 Translational            0.889              2.981             42.892
 Rotational               0.889              2.981             33.862
 Vibrational            170.666             66.301             68.951
 Vibration     1          0.593              1.985              6.474
 Vibration     2          0.594              1.983              5.656
 Vibration     3          0.595              1.977              4.794
 Vibration     4          0.596              1.976              4.624
 Vibration     5          0.600              1.963              3.916
 Vibration     6          0.603              1.954              3.585
 Vibration     7          0.606              1.943              3.319
 Vibration     8          0.612              1.923              2.937
 Vibration     9          0.619              1.901              2.657
 Vibration    10          0.624              1.883              2.467
 Vibration    11          0.630              1.864              2.306
 Vibration    12          0.634              1.853              2.224
 Vibration    13          0.646              1.815              1.984
 Vibration    14          0.658              1.777              1.791
 Vibration    15          0.671              1.738              1.633
 Vibration    16          0.693              1.673              1.415
 Vibration    17          0.704              1.642              1.327
 Vibration    18          0.715              1.610              1.245
 Vibration    19          0.721              1.592              1.203
 Vibration    20          0.746              1.522              1.057
 Vibration    21          0.763              1.479              0.978
 Vibration    22          0.776              1.443              0.917
 Vibration    23          0.782              1.428              0.893
 Vibration    24          0.793              1.401              0.852
 Vibration    25          0.802              1.379              0.821
 Vibration    26          0.821              1.331              0.757
 Vibration    27          0.863              1.232              0.638
 Vibration    28          0.876              1.203              0.607
 Vibration    29          0.924              1.100              0.508
 Vibration    30          0.933              1.083              0.493
 Vibration    31          0.961              1.026              0.445

 Optimization completed.
    -- Stationary point found.
 Normal termination of Gaussian 16 at Wed Jan 10 07:51:18 2024.
