 Q-Chem 5.4, Q-Chem, Inc., Pleasanton, CA (2021)
 Q-Chem 5.4.0 for Intel X86 EM64T Linux

User input:
--------------------------------------------------------------
$molecule
-1 2
C                  1.2485470000      1.6082760000     -0.5202410000
C                  0.0062290000      1.1958590000      0.1279460000
C                 -0.3959530000     -0.1141470000      0.1259620000
C                  0.3913240000     -1.1574750000     -0.5256420000
C                  1.6449940000     -0.7767590000     -1.1813020000
C                  2.0398450000      0.5534770000     -1.1316500000
O                  1.6119480000      2.8117590000     -0.5373750000
O                 -0.0007390000     -2.3582960000     -0.5250810000
S                  3.5748150000      1.1291950000     -1.8994320000
C                  4.4654200000      2.0794810000     -0.6253640000
C                  4.3993410000      3.4689360000     -0.6156570000
C                  5.2656160000      1.3864920000      0.2784470000
C                  6.0059170000      2.1002900000      1.2205610000
C                  5.1541970000      4.1748450000      0.3184870000
C                  5.9524680000      3.4936300000      1.2386310000
O                  3.2975900000      2.0442580000     -3.0186490000
O                  4.4486820000     -0.0342120000     -2.1601230000
H                  3.7519880000      3.9683150000     -1.3222650000
H                  5.3158880000      0.3058860000      0.2299570000
H                  5.1099310000      5.2586580000      0.3350220000
H                  6.6293450000      1.5682120000      1.9313310000
C                 -1.6817640000     -0.5383640000      0.7908630000
C                 -0.8106980000      2.2782790000      0.7872330000
H                  6.5312500000      4.0486580000      1.9699570000
H                 -2.5447020000     -0.0126410000      0.3648330000
H                 -1.6719720000     -0.3101210000      1.8636420000
H                 -1.8237110000     -1.6107870000      0.6618400000
H                 -1.8081880000      2.3587390000      0.3382430000
H                 -0.3020000000      3.2358370000      0.6785040000
H                 -0.9594080000      2.0758230000      1.8547440000
C                  2.3822700000     -1.8979140000     -1.8701190000
H                  1.7478870000     -2.7828370000     -1.8431370000
H                  3.3303740000     -2.1199230000     -1.3739420000
H                  2.6331300000     -1.6470500000     -2.9019250000
$end

$rem
BASIS  =  6-311++G(d,p)
GUI  =  2
JOB_TYPE  =  SP
METHOD  =  B3LYP
SCF_CONVERGENCE  = 8
SOLVENT_METHOD = sm12
$end

$smx
solvent dimethylformamide
charges CM5
$end

--------------------------------------------------------------

             Standard Nuclear Orientation (Angstroms)
    I     Atom           X                Y                Z
 ----------------------------------------------------------------
    1      C       1.2485470000     1.6082760000    -0.5202410000
    2      C       0.0062290000     1.1958590000     0.1279460000
    3      C      -0.3959530000    -0.1141470000     0.1259620000
    4      C       0.3913240000    -1.1574750000    -0.5256420000
    5      C       1.6449940000    -0.7767590000    -1.1813020000
    6      C       2.0398450000     0.5534770000    -1.1316500000
    7      O       1.6119480000     2.8117590000    -0.5373750000
    8      O      -0.0007390000    -2.3582960000    -0.5250810000
    9      S       3.5748150000     1.1291950000    -1.8994320000
   10      C       4.4654200000     2.0794810000    -0.6253640000
   11      C       4.3993410000     3.4689360000    -0.6156570000
   12      C       5.2656160000     1.3864920000     0.2784470000
   13      C       6.0059170000     2.1002900000     1.2205610000
   14      C       5.1541970000     4.1748450000     0.3184870000
   15      C       5.9524680000     3.4936300000     1.2386310000
   16      O       3.2975900000     2.0442580000    -3.0186490000
   17      O       4.4486820000    -0.0342120000    -2.1601230000
   18      H       3.7519880000     3.9683150000    -1.3222650000
   19      H       5.3158880000     0.3058860000     0.2299570000
   20      H       5.1099310000     5.2586580000     0.3350220000
   21      H       6.6293450000     1.5682120000     1.9313310000
   22      C      -1.6817640000    -0.5383640000     0.7908630000
   23      C      -0.8106980000     2.2782790000     0.7872330000
   24      H       6.5312500000     4.0486580000     1.9699570000
   25      H      -2.5447020000    -0.0126410000     0.3648330000
   26      H      -1.6719720000    -0.3101210000     1.8636420000
   27      H      -1.8237110000    -1.6107870000     0.6618400000
   28      H      -1.8081880000     2.3587390000     0.3382430000
   29      H      -0.3020000000     3.2358370000     0.6785040000
   30      H      -0.9594080000     2.0758230000     1.8547440000
   31      C       2.3822700000    -1.8979140000    -1.8701190000
   32      H       1.7478870000    -2.7828370000    -1.8431370000
   33      H       3.3303740000    -2.1199230000    -1.3739420000
   34      H       2.6331300000    -1.6470500000    -2.9019250000
 ----------------------------------------------------------------

   18   -1279.3748810963      6.24e-09  Convergence criterion met
 Total energy in the final basis set =    -1279.4599712225

                    Orbital Energies (a.u.)
 --------------------------------------------------------------

 Alpha MOs
 -- Occupied --
-89.0430 -19.1072 -19.1047 -19.0818 -19.0800 -10.2331 -10.2256 -10.2096
-10.1970 -10.1961 -10.1941 -10.1904 -10.1902 -10.1889 -10.1874 -10.1787
-10.1774 -10.1635 -10.1635 -10.1594  -8.1065  -6.0693  -6.0683  -6.0676
 -1.0987  -1.0097  -1.0055  -0.9935  -0.8752  -0.8428  -0.8037  -0.7769
 -0.7634  -0.7345  -0.7285  -0.6974  -0.6514  -0.6460  -0.6226  -0.6050
 -0.5656  -0.5564  -0.5347  -0.5120  -0.4910  -0.4771  -0.4714  -0.4566
 -0.4465  -0.4448  -0.4413  -0.4374  -0.4209  -0.4203  -0.4116  -0.4040
 -0.4000  -0.3934  -0.3906  -0.3815  -0.3786  -0.3754  -0.3698  -0.3617
 -0.3595  -0.3554  -0.3297  -0.3179  -0.3007  -0.2917  -0.2835  -0.2731
 -0.2699  -0.2517  -0.2497  -0.2370  -0.1678

 Beta MOs
 -- Occupied --
-89.0430 -19.1071 -19.1047 -19.0740 -19.0738 -10.2321 -10.2244 -10.2096
-10.1962 -10.1941 -10.1934 -10.1904 -10.1902 -10.1889 -10.1874 -10.1783
-10.1765 -10.1636 -10.1636 -10.1596  -8.1066  -6.0693  -6.0683  -6.0676
 -1.0985  -0.9995  -0.9933  -0.9917  -0.8751  -0.8372  -0.8014  -0.7764
 -0.7633  -0.7306  -0.7268  -0.6956  -0.6500  -0.6403  -0.6226  -0.6037
 -0.5640  -0.5527  -0.5336  -0.5103  -0.4894  -0.4766  -0.4709  -0.4561
 -0.4432  -0.4418  -0.4387  -0.4366  -0.4171  -0.4155  -0.4081  -0.3998
 -0.3973  -0.3926  -0.3877  -0.3797  -0.3750  -0.3699  -0.3614  -0.3581
 -0.3532  -0.3452  -0.3285  -0.3169  -0.2998  -0.2904  -0.2730  -0.2706
 -0.2540  -0.2446  -0.2407  -0.2313

          Ground-State Mulliken Net Atomic Charges

     Atom                 Charge (a.u.)    Spin (a.u.)
  --------------------------------------------------------
      1 C                    -1.419025       0.021509
      2 C                     0.285647       0.070406
      3 C                     0.862816       0.050142
      4 C                    -2.269587       0.031461
      5 C                     0.267098       0.199132
      6 C                    -0.630174       0.097933
      7 O                    -0.257875       0.232588
      8 O                    -0.313611       0.285404
      9 S                    -0.317601      -0.026796
     10 C                    -1.380223      -0.009365
     11 C                    -0.956937       0.026662
     12 C                    -0.016286      -0.002020
     13 C                     0.431436       0.002041
     14 C                     0.414727      -0.003399
     15 C                     1.019850       0.000765
     16 O                    -0.150047       0.005060
     17 O                    -0.111670      -0.001125
     18 H                     0.163252       0.000178
     19 H                     0.235529       0.000699
     20 H                     0.333330      -0.000053
     21 H                     0.344100       0.000023
     22 C                     0.461701       0.003160
     23 C                     0.275408      -0.000188
     24 H                     0.384478      -0.000063
     25 H                     0.220047       0.001292
     26 H                     0.224719       0.001151
     27 H                     0.192135      -0.002024
     28 H                     0.205731       0.002849
     29 H                     0.191573      -0.001255
     30 H                     0.213373       0.002721
     31 C                    -0.403427      -0.004524
     32 H                     0.163957      -0.002286
     33 H                     0.189350       0.010303
     34 H                     0.146203       0.007613
  --------------------------------------------------------
  Sum of atomic charges =    -1.000000

                    Cartesian Multipole Moments
 -----------------------------------------------------------------
    Charge (ESU x 10^10)
                -4.8032
    Dipole Moment (Debye)
         X      -8.3927      Y      -0.5844      Z       8.5473
       Tot      11.9931
    Quadrupole Moments (Debye-Ang)
        XX    -155.8139     XY      -7.6205     YY    -152.0786
        XZ      31.8890     YZ       9.4537     ZZ    -148.1288

 Total job time:  1281.36s(wall), 9993.99s(cpu)
        *  Thank you very much for using Q-Chem.  Have a nice day.  *
