 Gaussian 16, Revision A.03,
 Gaussian 16:  ES64L-G16RevA.03 25-Dec-2016

 ----------------------------------------------------------------
 #P UB3LYP/6-311++G(d,p) SCRF=(PCM,Solvent=n,n-DiMethylFormamide)
 ----------------------------------------------------------------

 ------------------
 Radical PCM in DMF
 ------------------
 Symbolic Z-matrix:
 Charge = -1 Multiplicity = 2

                         Standard orientation:
 ---------------------------------------------------------------------
 Center     Atomic      Atomic             Coordinates (Angstroms)
 Number     Number       Type             X           Y           Z
 ---------------------------------------------------------------------
      1          6           0        4.985111   -1.129290    0.002299
      2          8           0        3.577143   -1.154101    0.001105
      3          6           0        2.894860    0.030240    0.000367
      4          6           0        3.557628    1.250157    0.000382
      5          6           0        2.826747    2.455004   -0.000187
      6          6           0        1.453166    2.429916   -0.000673
      7          6           0        0.750057    1.204448   -0.000693
      8          6           0       -0.724175    1.298641   -0.001141
      9          8           0       -1.270496    2.426172   -0.002171
     10          6           0       -1.461194    0.033727   -0.000452
     11          6           0       -2.894861   -0.030244    0.000363
     12          8           0       -3.577146    1.154105    0.001361
     13          6           0       -4.985119    1.129259    0.002284
     14          6           0       -3.557632   -1.250153    0.000404
     15          6           0       -2.826745   -2.455004   -0.000271
     16          6           0       -1.453169   -2.429905   -0.000800
     17          6           0       -0.750046   -1.204443   -0.000780
     18          6           0        0.724179   -1.298631   -0.001060
     19          8           0        1.270503   -2.426165   -0.001883
     20          6           0        1.461188   -0.033716   -0.000361
     21          1           0        5.297253   -2.174473    0.003048
     22          1           0        5.390484   -0.633379   -0.890233
     23          1           0        5.388954   -0.632456    0.895005
     24          1           0        4.638430    1.289098    0.000777
     25          1           0        3.361600    3.400335   -0.000126
     26          1           0        0.862414    3.336831   -0.001041
     27          1           0       -5.297282    2.174436    0.002832
     28          1           0       -5.389102    0.632563    0.895008
     29          1           0       -5.390306    0.633181   -0.890235
     30          1           0       -4.638434   -1.289084    0.001012
     31          1           0       -3.361589   -3.400339   -0.000259
     32          1           0       -0.862427   -3.336830   -0.001177
 ---------------------------------------------------------------------

 SCF Done:  E(UB3LYP) =  -918.188624504     A.U. after   18 cycles

 The electronic state is 2-A.
 Alpha  occ. eigenvalues --  -19.14976 -19.14976 -19.06695 -19.06694 -10.23662
 Alpha  occ. eigenvalues --  -10.23662 -10.22243 -10.22241 -10.21663 -10.21663
 Alpha  occ. eigenvalues --  -10.17439 -10.17438 -10.17124 -10.17124 -10.17108
 Alpha  occ. eigenvalues --  -10.17107 -10.16636 -10.16636 -10.15856 -10.15856
 Alpha  occ. eigenvalues --   -1.06880  -1.06872  -0.99825  -0.99597  -0.85668
 Alpha  occ. eigenvalues --   -0.84642  -0.78223  -0.75790  -0.75574  -0.73963
 Alpha  occ. eigenvalues --   -0.69732  -0.69443  -0.66337  -0.62693  -0.61978
 Alpha  occ. eigenvalues --   -0.57707  -0.55735  -0.54098  -0.53384  -0.49685
 Alpha  occ. eigenvalues --   -0.48613  -0.48329  -0.46864  -0.46760  -0.46570
 Alpha  occ. eigenvalues --   -0.46361  -0.44883  -0.43246  -0.42313  -0.41746
 Alpha  occ. eigenvalues --   -0.40909  -0.40718  -0.39416  -0.38065  -0.38007
 Alpha  occ. eigenvalues --   -0.37292  -0.36142  -0.35541  -0.35146  -0.34489
 Alpha  occ. eigenvalues --   -0.33205  -0.33175  -0.31891  -0.31578  -0.26519
 Alpha  occ. eigenvalues --   -0.24859  -0.23362  -0.22969  -0.22737  -0.22412
 Alpha  occ. eigenvalues --   -0.13502
 Alpha virt. eigenvalues --   -0.04112  -0.02133  -0.00394   0.00061   0.00924
 Alpha virt. eigenvalues --    0.00929   0.01496   0.01861   0.03347   0.03353
 Alpha virt. eigenvalues --    0.03565   0.03763   0.03776   0.04424   0.05675

  Beta  occ. eigenvalues --  -19.14972 -19.14972 -19.06143 -19.06142 -10.23659
  Beta  occ. eigenvalues --  -10.23659 -10.22087 -10.22086 -10.21663 -10.21663
  Beta  occ. eigenvalues --  -10.17393 -10.17392 -10.17061 -10.17061 -10.16999
  Beta  occ. eigenvalues --  -10.16998 -10.16577 -10.16577 -10.15859 -10.15859
  Beta  occ. eigenvalues --   -1.06864  -1.06857  -0.98876  -0.98624  -0.85410
  Beta  occ. eigenvalues --   -0.84521  -0.77831  -0.75621  -0.75484  -0.73750
  Beta  occ. eigenvalues --   -0.69660  -0.69314  -0.65652  -0.62504  -0.61737
  Beta  occ. eigenvalues --   -0.57644  -0.55604  -0.53877  -0.53267  -0.49514
  Beta  occ. eigenvalues --   -0.48562  -0.48136  -0.46795  -0.46721  -0.46429
  Beta  occ. eigenvalues --   -0.46291  -0.44770  -0.43090  -0.42205  -0.40663
  Beta  occ. eigenvalues --   -0.40655  -0.40380  -0.39245  -0.37875  -0.37477
  Beta  occ. eigenvalues --   -0.36108  -0.35479  -0.35412  -0.34340  -0.34316
  Beta  occ. eigenvalues --   -0.33136  -0.33119  -0.31292  -0.31077  -0.24417
  Beta  occ. eigenvalues --   -0.24286  -0.22865  -0.22372  -0.22125  -0.21919
  Beta virt. eigenvalues --   -0.07761  -0.03097  -0.01018  -0.00384   0.00062
  Beta virt. eigenvalues --    0.00932   0.01150   0.01502   0.01873   0.03368
  Beta virt. eigenvalues --    0.03379   0.03574   0.03762   0.03796   0.04429

 Mulliken charges and spin densities:
               1          2
     1  C   -0.290893  -0.000463
     2  O   -0.144470   0.000027
     3  C    0.069748   0.022019
     4  C   -0.077689   0.047082
     5  C   -0.514855   0.053402
     6  C   -0.037715   0.026339
     7  C    0.386464   0.056557
     8  C   -0.406884   0.078844
     9  O   -0.465057   0.208650
    10  C   -0.048920   0.015281
    11  C    0.069763   0.022015
    12  O   -0.144477   0.000026
    13  C   -0.290891  -0.000463
    14  C   -0.077693   0.047086
    15  C   -0.514862   0.053403
    16  C   -0.037719   0.026341
    17  C    0.386434   0.056557
    18  C   -0.406868   0.078848
    19  O   -0.465066   0.208655
    20  C   -0.048880   0.015274
    21  H    0.192598  -0.000186
    22  H    0.155611   0.000439
    23  H    0.155549   0.000438
    24  H    0.181939  -0.003322
    25  H    0.190627  -0.003788
    26  H    0.153941  -0.001319
    27  H    0.192600  -0.000187
    28  H    0.155555   0.000437
    29  H    0.155601   0.000440
    30  H    0.181941  -0.003323
    31  H    0.190627  -0.003788
    32  H    0.153941  -0.001319
 Sum of Mulliken charges =  -1.00000   1.00000

 Dipole moment (field-independent basis, Debye):
    X=              0.0001    Y=             -0.0000    Z=              0.0122  Tot=              0.0122
 Quadrupole moment (field-independent basis, Debye-Ang):
   XX=            -95.3312   YY=           -147.7290   ZZ=           -123.2127
   XY=             14.5628   XZ=             -0.0004   YZ=              0.0012

 Normal termination of Gaussian 16 at Sun Jan 14 01:14:10 2024.
