 Gaussian 16, Revision A.03,
 Gaussian 16:  ES64L-G16RevA.03 25-Dec-2016

 ----------------------------------------------------------------------
 #P UB3LYP/6-311++G(d,p) nosym opt freq SCRF=(PCM,Solvent=n,n-DiMethylF
 ormamide)
 ----------------------------------------------------------------------

 -------
 Reduced
 -------
 Symbolic Z-matrix:
 Charge = -2 Multiplicity = 1

 SCF Done:  E(UB3LYP) =  -765.640578988     A.U. after   19 cycles
 SCF Done:  E(UB3LYP) =  -765.640585951     A.U. after   13 cycles
 SCF Done:  E(UB3LYP) =  -765.640589277     A.U. after   12 cycles
 SCF Done:  E(UB3LYP) =  -765.640590046     A.U. after   11 cycles
 SCF Done:  E(UB3LYP) =  -765.640590759     A.U. after   11 cycles
 SCF Done:  E(UB3LYP) =  -765.640590824     A.U. after   11 cycles
 SCF Done:  E(UB3LYP) =  -765.640590920     A.U. after   11 cycles
 SCF Done:  E(UB3LYP) =  -765.640590948     A.U. after   10 cycles
 SCF Done:  E(UB3LYP) =  -765.640590969     A.U. after    9 cycles
 SCF Done:  E(UB3LYP) =  -765.640590986     A.U. after    9 cycles
 SCF Done:  E(UB3LYP) =  -765.640591001     A.U. after   10 cycles
 Optimization completed.
    -- Stationary point found.
 Normal termination of Gaussian 16 at Sun Feb 11 03:29:45 2024.

 ----------------------------------------------------------------------
 #P Geom=AllCheck Guess=TCheck SCRF=Check GenChk UB3LYP/6-311++G(d,p) F
 req
 ----------------------------------------------------------------------

 Structure from the checkpoint file:  "077-an.chk"
 -------
 Reduced
 -------
 Charge = -2 Multiplicity = 1

                          Input orientation:
 ---------------------------------------------------------------------
 Center     Atomic      Atomic             Coordinates (Angstroms)
 Number     Number       Type             X           Y           Z
 ---------------------------------------------------------------------
      1          6           0        0.304725    1.802654   -1.909882
      2          6           0       -1.026847    2.077081   -2.404913
      3          6           0       -1.949985    1.098397   -2.678763
      4          6           0       -1.685696   -0.313945   -2.506157
      5          6           0       -0.399339   -0.598842   -2.036173
      6          6           0        0.601030    0.391528   -1.744361
      7          8           0        1.102778    2.771377   -1.646631
      8          8           0       -2.603254   -1.209446   -2.785261
      9          6           0        3.059018    0.838149   -1.040830
     10          6           0        3.907247    1.135678   -2.110612
     11          6           0        3.402493    1.257869    0.258128
     12          6           0        4.578482    1.994670    0.434066
     13          6           0        5.079691    1.866315   -1.919442
     14          6           0        5.415811    2.303246   -0.639496
     15          1           0       -1.282857    3.124539   -2.549092
     16          1           0       -2.936208    1.380027   -3.046078
     17          1           0       -0.121942   -1.637925   -1.888149
     18          1           0        3.639838    0.799568   -3.107517
     19          1           0        4.844237    2.331068    1.431922
     20          1           0        5.722926    2.092058   -2.763421
     21          1           0        6.322827    2.874676   -0.474019
     22          6           0        1.881994   -0.085614   -1.277679
     23          8           0        2.125600   -1.299353   -1.066079
     24          6           0        2.518934    0.938513    1.441038
     25          1           0        2.435747   -0.141211    1.595690
     26          1           0        1.504033    1.318527    1.290695
     27          1           0        2.915652    1.381956    2.356625
 ---------------------------------------------------------------------

 SCF Done:  E(UB3LYP) =  -765.640591001     A.U. after    1 cycles

 Alpha  occ. eigenvalues --  -19.07227 -19.03225 -19.01469 -10.22317 -10.19311
 Alpha  occ. eigenvalues --  -10.17468 -10.17214 -10.16953 -10.16572 -10.16518
 Alpha  occ. eigenvalues --  -10.16435 -10.16390 -10.15629 -10.14297 -10.13531
 Alpha  occ. eigenvalues --  -10.13370 -10.11696  -0.99534  -0.94932  -0.92039
 Alpha  occ. eigenvalues --   -0.85123  -0.78676  -0.76582  -0.74737  -0.71770
 Alpha  occ. eigenvalues --   -0.68030  -0.65835  -0.62024  -0.59031  -0.57557
 Alpha  occ. eigenvalues --   -0.54726  -0.52184  -0.47976  -0.46141  -0.44903
 Alpha  occ. eigenvalues --   -0.43539  -0.43259  -0.42301  -0.40833  -0.40555
 Alpha  occ. eigenvalues --   -0.39762  -0.38889  -0.37855  -0.37270  -0.36231
 Alpha  occ. eigenvalues --   -0.35220  -0.34563  -0.34330  -0.33326  -0.32798
 Alpha  occ. eigenvalues --   -0.32044  -0.31709  -0.25290  -0.24235  -0.23210
 Alpha  occ. eigenvalues --   -0.22353  -0.22097  -0.19870  -0.19513  -0.13058
 Alpha virt. eigenvalues --   -0.03443  -0.00428  -0.00417   0.00043   0.00917
 Alpha virt. eigenvalues --    0.01344   0.01901   0.02435   0.03508   0.03880
 Alpha virt. eigenvalues --    0.04120   0.04669   0.05240   0.05444   0.06164

  Beta  occ. eigenvalues --  -19.07227 -19.03225 -19.01469 -10.22317 -10.19311
  Beta  occ. eigenvalues --  -10.17468 -10.17214 -10.16953 -10.16572 -10.16518
  Beta  occ. eigenvalues --  -10.16435 -10.16390 -10.15629 -10.14297 -10.13531
  Beta  occ. eigenvalues --  -10.13370 -10.11696  -0.99534  -0.94932  -0.92039
  Beta  occ. eigenvalues --   -0.85123  -0.78676  -0.76582  -0.74737  -0.71770
  Beta  occ. eigenvalues --   -0.68030  -0.65835  -0.62024  -0.59031  -0.57557
  Beta  occ. eigenvalues --   -0.54726  -0.52184  -0.47976  -0.46141  -0.44903
  Beta  occ. eigenvalues --   -0.43539  -0.43259  -0.42301  -0.40833  -0.40555
  Beta  occ. eigenvalues --   -0.39762  -0.38889  -0.37855  -0.37270  -0.36231
  Beta  occ. eigenvalues --   -0.35220  -0.34563  -0.34330  -0.33326  -0.32798
  Beta  occ. eigenvalues --   -0.32044  -0.31709  -0.25290  -0.24235  -0.23210
  Beta  occ. eigenvalues --   -0.22353  -0.22097  -0.19870  -0.19513  -0.13058
  Beta virt. eigenvalues --   -0.03443  -0.00428  -0.00417   0.00043   0.00917
  Beta virt. eigenvalues --    0.01344   0.01901   0.02435   0.03508   0.03880
  Beta virt. eigenvalues --    0.04120   0.04669   0.05240   0.05444   0.06164

 Mulliken charges and spin densities:
               1          2
     1  C   -1.209891   0.000000
     2  C   -0.215304  -0.000000
     3  C    0.036570  -0.000000
     4  C   -0.608213   0.000000
     5  C    0.111961  -0.000000
     6  C    0.929764   0.000000
     7  O   -0.500882  -0.000000
     8  O   -0.744173  -0.000000
     9  C    1.406693  -0.000000
    10  C   -0.222890  -0.000000
    11  C   -0.185570   0.000000
    12  C   -0.144382   0.000000
    13  C   -0.514936  -0.000000
    14  C   -0.265093   0.000000
    15  H    0.155712   0.000000
    16  H    0.159158  -0.000000
    17  H    0.159432  -0.000000
    18  H    0.195899   0.000000
    19  H    0.165479   0.000000
    20  H    0.175284   0.000000
    21  H    0.174786   0.000000
    22  C   -0.617090  -0.000000
    23  O   -0.430114   0.000000
    24  C   -0.498356  -0.000000
    25  H    0.174528  -0.000000
    26  H    0.159821   0.000000
    27  H    0.151807  -0.000000
 Sum of Mulliken charges =  -2.00000  -0.00000

 Dipole moment (field-independent basis, Debye):
    X=              1.4852    Y=             -0.5867    Z=             19.3805  Tot=             19.4462
 Quadrupole moment (field-independent basis, Debye-Ang):
   XX=           -152.4945   YY=           -145.3228   ZZ=           -146.0798
   XY=            -15.2034   XZ=            -17.7760   YZ=             -1.9343

  Exact polarizability: 363.839  13.007 295.914  48.368  -6.732 233.118
 Approx polarizability: 384.313   0.702 359.444  49.032 -13.014 262.482

                      1                      2                      3
                      A                      A                      A
 Frequencies --     23.9325                47.0978                73.3155
 Red. masses --      4.8722                 5.8073                 5.2291
 Frc consts  --      0.0016                 0.0076                 0.0166
 IR Inten    --      2.4488                 1.2374                 2.2341

                      4                      5                      6
                      A                      A                      A
 Frequencies --    103.9925               117.1818               160.1238
 Red. masses --      1.9772                 1.8106                 7.5204
 Frc consts  --      0.0126                 0.0146                 0.1136
 IR Inten    --      5.7341                 3.4255                18.2419

                      7                      8                      9
                      A                      A                      A
 Frequencies --    172.6519               183.3640               212.8587
 Red. masses --      3.6629                 5.2573                 6.4236
 Frc consts  --      0.0643                 0.1041                 0.1715
 IR Inten    --     16.4962                 2.3990                 0.3472

                     10                     11                     12
                      A                      A                      A
 Frequencies --    250.1916               333.3610               339.5838
 Red. masses --      4.7120                 6.4263                 7.5627
 Frc consts  --      0.1738                 0.4208                 0.5138
 IR Inten    --     20.2747                 0.8074                 1.3097

                     13                     14                     15
                      A                      A                      A
 Frequencies --    370.4717               394.2579               429.9794
 Red. masses --      4.6408                 3.5414                 7.5339
 Frc consts  --      0.3753                 0.3243                 0.8207
 IR Inten    --      9.0240                 5.4753                 9.7659

                     16                     17                     18
                      A                      A                      A
 Frequencies --    450.4291               464.6095               480.0330
 Red. masses --      3.9139                 3.1494                10.9938
 Frc consts  --      0.4679                 0.4006                 1.4926
 IR Inten    --      1.4213                 2.8096                31.5966

                     19                     20                     21
                      A                      A                      A
 Frequencies --    537.1152               565.7115               572.3727
 Red. masses --      4.7213                 3.9001                 2.5342
 Frc consts  --      0.8025                 0.7354                 0.4892
 IR Inten    --     17.0350                 3.7863                16.6964

                     22                     23                     24
                      A                      A                      A
 Frequencies --    618.7348               643.2121               691.4651
 Red. masses --      5.9633                 5.1012                 6.4035
 Frc consts  --      1.3451                 1.2435                 1.8039
 IR Inten    --     32.2993                40.5584                 7.4682

                     25                     26                     27
                      A                      A                      A
 Frequencies --    728.2760               740.9410               767.4657
 Red. masses --      3.8488                 1.6046                 2.8523
 Frc consts  --      1.2027                 0.5190                 0.9898
 IR Inten    --      1.4317                56.4776                70.2256

                     28                     29                     30
                      A                      A                      A
 Frequencies --    777.4706               804.6269               815.9914
 Red. masses --      3.2569                 3.8639                 5.2286
 Frc consts  --      1.1599                 1.4739                 2.0512
 IR Inten    --     31.0399                81.3221               108.7087

                     31                     32                     33
                      A                      A                      A
 Frequencies --    839.3411               849.2874               858.3607
 Red. masses --      2.2353                 1.8187                 5.3157
 Frc consts  --      0.9278                 0.7729                 2.3075
 IR Inten    --     48.8849                53.9578                30.0171

                     34                     35                     36
                      A                      A                      A
 Frequencies --    877.7543               952.0377               959.5633
 Red. masses --      1.4197                 1.4166                 1.3010
 Frc consts  --      0.6445                 0.7565                 0.7058
 IR Inten    --     10.2576                15.9789                 0.9672

                     37                     38                     39
                      A                      A                      A
 Frequencies --    979.7833               989.8278              1006.0868
 Red. masses --      2.6937                 1.2919                 1.6146
 Frc consts  --      1.5235                 0.7458                 0.9629
 IR Inten    --     61.7750                 0.5129                 3.7216

                     40                     41                     42
                      A                      A                      A
 Frequencies --   1057.4992              1060.2199              1089.2724
 Red. masses --      1.5672                 2.2511                 3.0987
 Frc consts  --      1.0326                 1.4908                 2.1662
 IR Inten    --      0.1461                16.3490               161.9631

                     43                     44                     45
                      A                      A                      A
 Frequencies --   1123.3472              1146.0580              1173.8120
 Red. masses --      1.6824                 1.4928                 1.1055
 Frc consts  --      1.2509                 1.1553                 0.8975
 IR Inten    --     88.3722               378.0390                 0.5981

                     46                     47                     48
                      A                      A                      A
 Frequencies --   1193.6836              1214.8781              1226.9745
 Red. masses --      2.1597                 2.3068                 3.3310
 Frc consts  --      1.8131                 2.0060                 2.9546
 IR Inten    --    121.0327                55.7313               564.9295

                     49                     50                     51
                      A                      A                      A
 Frequencies --   1267.8771              1297.9228              1313.7901
 Red. masses --      3.9957                 1.8466                 2.8153
 Frc consts  --      3.7844                 1.8328                 2.8630
 IR Inten    --    318.4713                 9.4366               295.0925

                     52                     53                     54
                      A                      A                      A
 Frequencies --   1318.6526              1361.9040              1405.8884
 Red. masses --      3.6268                 7.1639                 1.2544
 Frc consts  --      3.7156                 7.8288                 1.4607
 IR Inten    --     12.5286               640.5878                 4.5314

                     55                     56                     57
                      A                      A                      A
 Frequencies --   1433.7977              1453.5463              1463.8087
 Red. masses --      3.6325                 3.8910                 2.0320
 Frc consts  --      4.3998                 4.8436                 2.5653
 IR Inten    --      2.8674              1535.8815               222.6654

                     58                     59                     60
                      A                      A                      A
 Frequencies --   1473.8458              1485.5277              1490.2171
 Red. masses --      1.0540                 4.1984                 1.3861
 Frc consts  --      1.3490                 5.4588                 1.8135
 IR Inten    --     20.8641               667.5238               114.4972

                     61                     62                     63
                      A                      A                      A
 Frequencies --   1509.1476              1525.4040              1603.7011
 Red. masses --      2.4439                 6.9241                 5.8038
 Frc consts  --      3.2794                 9.4925                 8.7944
 IR Inten    --     71.1347               754.3340                 1.1929

                     64                     65                     66
                      A                      A                      A
 Frequencies --   1621.5579              1631.5300              3025.2324
 Red. masses --      6.5750                 5.6965                 1.0360
 Frc consts  --     10.1861                 8.9341                 5.5864
 IR Inten    --     10.3986                 4.4020                46.2401

                     67                     68                     69
                      A                      A                      A
 Frequencies --   3075.5660              3099.2477              3108.1031
 Red. masses --      1.1001                 1.1016                 1.0847
 Frc consts  --      6.1309                 6.2342                 6.1737
 IR Inten    --     23.4656                41.2642                67.0643

                     70                     71                     72
                      A                      A                      A
 Frequencies --   3135.0136              3146.9248              3150.1645
 Red. masses --      1.0929                 1.0860                 1.0869
 Frc consts  --      6.3286                 6.3367                 6.3551
 IR Inten    --    124.8295                21.8572                43.2044

                     73                     74                     75
                      A                      A                      A
 Frequencies --   3152.6813              3164.7208              3178.8536
 Red. masses --      1.0878                 1.0920                 1.0974
 Frc consts  --      6.3702                 6.4437                 6.5338
 IR Inten    --      4.6810                52.0225                45.9652

 - Thermochemistry -
 -------------------
 Temperature   298.150 Kelvin.  Pressure   1.00000 Atm.
 Atom     1 has atomic number  6 and mass  12.00000

 Molecular mass:   226.06299 amu.
 Principal axes and moments of inertia in atomic units:
                           1         2         3
     Eigenvalues --  1674.343396371.854356783.55566
           X            0.91918  -0.13703  -0.36923
           Y            0.24410   0.93395   0.26106
           Z            0.30907  -0.33009   0.89192
 This molecule is an asymmetric top.
 Rotational symmetry number  1.
 Warning -- assumption of classical behavior for rotation
           may cause significant error
 Rotational temperatures (Kelvin)      0.05173     0.01359     0.01277
 Rotational constants (GHZ):           1.07788     0.28324     0.26605
 Zero-point vibrational energy     522548.2 (Joules/Mol)
                                  124.89201 (Kcal/Mol)
 Warning -- explicit consideration of  22 degrees of freedom as
           vibrations may cause significant error
 Vibrational temperatures:     34.43    67.76   105.48   149.62   168.60
          (Kelvin)            230.38   248.41   263.82   306.26   359.97
                              479.63   488.59   533.03   567.25   618.64
                              648.07   668.47   690.66   772.79   813.93
                              823.52   890.22   925.44   994.86  1047.83
                             1066.05  1104.21  1118.61  1157.68  1174.03
                             1207.62  1221.94  1234.99  1262.89  1369.77
                             1380.60  1409.69  1424.14  1447.53  1521.51
                             1525.42  1567.22  1616.25  1648.92  1688.85
                             1717.44  1747.94  1765.34  1824.19  1867.42
                             1890.25  1897.25  1959.48  2022.76  2062.92
                             2091.33  2106.09  2120.54  2137.34  2144.09
                             2171.33  2194.72  2307.37  2333.06  2347.41
                             4352.63  4425.05  4459.13  4471.87  4510.59
                             4527.72  4532.38  4536.01  4553.33  4573.66

 Zero-point correction=                           0.199028 (Hartree/Particle)
 Thermal correction to Energy=                    0.213342
 Thermal correction to Enthalpy=                  0.214286
 Thermal correction to Gibbs Free Energy=         0.156670
 Sum of electronic and zero-point Energies=           -765.441563
 Sum of electronic and thermal Energies=              -765.427249
 Sum of electronic and thermal Enthalpies=            -765.426305
 Sum of electronic and thermal Free Energies=         -765.483921

                     E (Thermal)             CV                S
                      KCal/Mol        Cal/Mol-Kelvin    Cal/Mol-Kelvin
 Total                  133.874             55.053            121.263
 Electronic               0.000              0.000              0.000
 Translational            0.889              2.981             42.149
 Rotational               0.889              2.981             32.648
 Vibrational            132.097             49.091             46.466
 Vibration     1          0.593              1.985              6.278
 Vibration     2          0.595              1.979              4.936
 Vibration     3          0.599              1.967              4.062
 Vibration     4          0.605              1.946              3.378
 Vibration     5          0.608              1.935              3.146
 Vibration     6          0.622              1.891              2.548
 Vibration     7          0.626              1.876              2.406
 Vibration     8          0.631              1.862              2.294
 Vibration     9          0.644              1.821              2.019
 Vibration    10          0.663              1.762              1.729
 Vibration    11          0.715              1.609              1.244
 Vibration    12          0.719              1.596              1.214
 Vibration    13          0.742              1.533              1.078
 Vibration    14          0.761              1.482              0.984
 Vibration    15          0.791              1.405              0.859
 Vibration    16          0.809              1.360              0.794
 Vibration    17          0.822              1.329              0.753
 Vibration    18          0.836              1.294              0.710
 Vibration    19          0.892              1.168              0.572
 Vibration    20          0.922              1.105              0.513
 Vibration    21          0.929              1.091              0.500
 Vibration    22          0.979              0.992              0.419

                           ! Non-Optimized Parameters !
 Normal termination of Gaussian 16 at Sun Feb 11 04:04:27 2024.
