 Q-Chem 5.4, Q-Chem, Inc., Pleasanton, CA (2021)
 Q-Chem 5.4.0 for Intel X86 EM64T Linux

User input:
--------------------------------------------------------------
$molecule
-1 2
C                  5.6730680000     -5.1030470000      1.2822580000
C                  6.6816350000     -5.0195950000      0.3482890000
C                  6.5914370000     -4.0630490000     -0.6985630000
C                  4.5454710000     -4.2570650000      1.2250450000
C                  4.4553180000     -3.2977820000      0.1750560000
C                  5.4854130000     -3.2188030000     -0.7715260000
C                  3.4904840000     -4.3782800000      2.2415790000
C                  2.3825520000     -3.4684100000      2.0920660000
C                  2.2918970000     -2.5422720000      1.0814630000
C                  3.2991840000     -2.3845040000      0.0627130000
O                  3.5576080000     -5.2221840000      3.1744410000
O                  3.2103740000     -1.5364410000     -0.8588220000
C                  7.6353260000     -3.9743200000     -1.6681400000
N                  8.4925410000     -3.9168470000     -2.4463100000
H                  5.7151030000     -5.8229430000      2.0915080000
H                  7.5446420000     -5.6736020000      0.3997200000
H                  5.3941670000     -2.4815060000     -1.5603560000
H                  1.5967130000     -3.5496870000      2.8379170000
H                  1.4347960000     -1.8785540000      1.0129520000
$end

$rem
BASIS  =  6-311++G(d,p)
GUI  =  2
JOB_TYPE  =  SP
METHOD  =  B3LYP
SCF_CONVERGENCE  = 8
SOLVENT_METHOD = sm12
$end

$smx
solvent dimethylformamide
charges CM5
$end

--------------------------------------------------------------

             Standard Nuclear Orientation (Angstroms)
    I     Atom           X                Y                Z
 ----------------------------------------------------------------
    1      C       5.6730680000    -5.1030470000     1.2822580000
    2      C       6.6816350000    -5.0195950000     0.3482890000
    3      C       6.5914370000    -4.0630490000    -0.6985630000
    4      C       4.5454710000    -4.2570650000     1.2250450000
    5      C       4.4553180000    -3.2977820000     0.1750560000
    6      C       5.4854130000    -3.2188030000    -0.7715260000
    7      C       3.4904840000    -4.3782800000     2.2415790000
    8      C       2.3825520000    -3.4684100000     2.0920660000
    9      C       2.2918970000    -2.5422720000     1.0814630000
   10      C       3.2991840000    -2.3845040000     0.0627130000
   11      O       3.5576080000    -5.2221840000     3.1744410000
   12      O       3.2103740000    -1.5364410000    -0.8588220000
   13      C       7.6353260000    -3.9743200000    -1.6681400000
   14      N       8.4925410000    -3.9168470000    -2.4463100000
   15      H       5.7151030000    -5.8229430000     2.0915080000
   16      H       7.5446420000    -5.6736020000     0.3997200000
   17      H       5.3941670000    -2.4815060000    -1.5603560000
   18      H       1.5967130000    -3.5496870000     2.8379170000
   19      H       1.4347960000    -1.8785540000     1.0129520000
 ----------------------------------------------------------------

   17    -627.6128791614      6.39e-09  Convergence criterion met
 Total energy in the final basis set =     -627.6879976511

                    Orbital Energies (a.u.)
 --------------------------------------------------------------

 Alpha MOs
 -- Occupied --
-19.0873 -19.0852 -14.3346 -10.2371 -10.2358 -10.2318 -10.2281 -10.2048
-10.2031 -10.1952 -10.1944 -10.1919 -10.1795 -10.1780  -1.0121  -1.0077
 -0.9368  -0.8855  -0.8258  -0.7829  -0.7694  -0.6961  -0.6622  -0.6377
 -0.5851  -0.5616  -0.5245  -0.4937  -0.4798  -0.4502  -0.4455  -0.4364
 -0.4346  -0.4146  -0.4067  -0.4052  -0.3962  -0.3869  -0.3735  -0.3701
 -0.3557  -0.3550  -0.2887  -0.2800  -0.2730  -0.2527  -0.2469  -0.1663

 Beta MOs
 -- Occupied --
-19.0808 -19.0780 -14.3343 -10.2372 -10.2349 -10.2307 -10.2276 -10.2051
-10.2024 -10.1941 -10.1937 -10.1921 -10.1783 -10.1765  -1.0010  -0.9952
 -0.9363  -0.8837  -0.8206  -0.7811  -0.7672  -0.6881  -0.6592  -0.6350
 -0.5835  -0.5588  -0.5224  -0.4914  -0.4770  -0.4498  -0.4437  -0.4337
 -0.4260  -0.4095  -0.4018  -0.3979  -0.3950  -0.3720  -0.3681  -0.3612
 -0.3538  -0.3480  -0.2738  -0.2662  -0.2577  -0.2464  -0.2405

          Ground-State Mulliken Net Atomic Charges

     Atom                 Charge (a.u.)    Spin (a.u.)
  --------------------------------------------------------
      1 C                     0.824573       0.031252
      2 C                     0.534069       0.048111
      3 C                     2.942517       0.032533
      4 C                    -0.564093       0.065222
      5 C                    -0.990032       0.036307
      6 C                    -0.057653      -0.005365
      7 C                    -1.312377       0.046868
      8 C                     0.268911       0.099925
      9 C                     0.265472       0.121376
     10 C                    -1.139876       0.043191
     11 O                    -0.355334       0.264340
     12 O                    -0.366196       0.234952
     13 C                    -1.880628      -0.012404
     14 N                    -0.446206       0.017450
     15 H                     0.206250      -0.001940
     16 H                     0.387352      -0.003565
     17 H                     0.191304      -0.000916
     18 H                     0.244506      -0.007977
     19 H                     0.247442      -0.009361
  --------------------------------------------------------
  Sum of atomic charges =    -1.000000

                    Cartesian Multipole Moments
 -----------------------------------------------------------------
    Charge (ESU x 10^10)
                -4.8032
    Dipole Moment (Debye)
         X     -22.5164      Y      16.5242      Z      -0.7145
       Tot      27.9384
    Quadrupole Moments (Debye-Ang)
        XX    -216.6647     XY      78.7499     YY    -153.5866
        XZ      17.0984     YZ      15.5681     ZZ    -117.0584

 Total job time:  368.85s(wall), 2177.71s(cpu)
        *  Thank you very much for using Q-Chem.  Have a nice day.  *
