 Q-Chem 5.4, Q-Chem, Inc., Pleasanton, CA (2021)
 Q-Chem 5.4.0 for Intel X86 EM64T Linux

User input:
--------------------------------------------------------------
$molecule
0 1
C                 -1.4289270000      2.1403070000      0.0339070000
C                 -2.7495220000      1.4662560000      0.0316490000
C                 -2.9375390000      0.1340230000      0.0333700000
C                 -1.6935120000     -0.7086130000      0.0380140000
C                 -0.3729090000     -0.0345700000      0.0401420000
C                 -0.1848650000      1.2976610000      0.0385580000
O                 -1.3956090000      3.3625150000      0.0319580000
O                 -1.7268580000     -1.9308220000      0.0401490000
C                  1.1928510000      1.9643780000      0.0411430000
C                  1.3507990000      2.8395590000     -1.2275930000
C                  1.3438700000      2.8435810000      1.3079720000
C                  2.3226010000      0.9182100000      0.0459070000
C                 -4.3152230000     -0.5327760000      0.0309800000
C                 -5.4450700000      0.5133280000      0.0263550000
C                 -4.4729050000     -1.4078210000      1.2998470000
C                 -4.4663070000     -1.4120510000     -1.2357510000
H                 -3.5756440000      2.1659210000      0.0283970000
H                  0.4532030000     -0.7342510000      0.0433330000
H                  1.2466900000      2.2349100000     -2.1334530000
H                  2.3490650000      3.2867740000     -1.2375930000
H                  0.6146880000      3.6414610000     -1.2562390000
H                  0.6074930000      3.6454500000      1.3301610000
H                  2.3419600000      3.2911130000      1.3218600000
H                  1.2350990000      2.2417370000      2.2151360000
H                  3.2867970000      1.4323790000      0.0476590000
H                  2.2882220000      0.2807700000      0.9338370000
H                  2.2930340000      0.2778250000     -0.8400780000
H                 -5.4110300000      1.1506360000     -0.8616820000
H                 -5.4152450000      1.1538340000      0.9122400000
H                 -6.4092100000     -0.0009390000      0.0249630000
H                 -4.3688770000     -0.8029960000      2.2055920000
H                 -3.7366500000     -2.2095940000      1.3285930000
H                 -5.4710690000     -1.8552720000      1.3099640000
H                 -4.3575360000     -0.8102820000     -2.1429730000
H                 -5.4643900000     -1.8595860000     -1.2496100000
H                 -3.7299050000     -2.2139050000     -1.2579350000
$end

$rem
BASIS  =  6-311++G(d,p)
GUI  =  2
JOB_TYPE  =  SP
METHOD  =  B3LYP
SCF_CONVERGENCE  = 8
SOLVENT_METHOD = sm12
$end

$smx
solvent dimethylformamide
charges CM5
$end

--------------------------------------------------------------

             Standard Nuclear Orientation (Angstroms)
    I     Atom           X                Y                Z
 ----------------------------------------------------------------
    1      C      -1.4289270000     2.1403070000     0.0339070000
    2      C      -2.7495220000     1.4662560000     0.0316490000
    3      C      -2.9375390000     0.1340230000     0.0333700000
    4      C      -1.6935120000    -0.7086130000     0.0380140000
    5      C      -0.3729090000    -0.0345700000     0.0401420000
    6      C      -0.1848650000     1.2976610000     0.0385580000
    7      O      -1.3956090000     3.3625150000     0.0319580000
    8      O      -1.7268580000    -1.9308220000     0.0401490000
    9      C       1.1928510000     1.9643780000     0.0411430000
   10      C       1.3507990000     2.8395590000    -1.2275930000
   11      C       1.3438700000     2.8435810000     1.3079720000
   12      C       2.3226010000     0.9182100000     0.0459070000
   13      C      -4.3152230000    -0.5327760000     0.0309800000
   14      C      -5.4450700000     0.5133280000     0.0263550000
   15      C      -4.4729050000    -1.4078210000     1.2998470000
   16      C      -4.4663070000    -1.4120510000    -1.2357510000
   17      H      -3.5756440000     2.1659210000     0.0283970000
   18      H       0.4532030000    -0.7342510000     0.0433330000
   19      H       1.2466900000     2.2349100000    -2.1334530000
   20      H       2.3490650000     3.2867740000    -1.2375930000
   21      H       0.6146880000     3.6414610000    -1.2562390000
   22      H       0.6074930000     3.6454500000     1.3301610000
   23      H       2.3419600000     3.2911130000     1.3218600000
   24      H       1.2350990000     2.2417370000     2.2151360000
   25      H       3.2867970000     1.4323790000     0.0476590000
   26      H       2.2882220000     0.2807700000     0.9338370000
   27      H       2.2930340000     0.2778250000    -0.8400780000
   28      H      -5.4110300000     1.1506360000    -0.8616820000
   29      H      -5.4152450000     1.1538340000     0.9122400000
   30      H      -6.4092100000    -0.0009390000     0.0249630000
   31      H      -4.3688770000    -0.8029960000     2.2055920000
   32      H      -3.7366500000    -2.2095940000     1.3285930000
   33      H      -5.4710690000    -1.8552720000     1.3099640000
   34      H      -4.3575360000    -0.8102820000    -2.1429730000
   35      H      -5.4643900000    -1.8595860000    -1.2496100000
   36      H      -3.7299050000    -2.2139050000    -1.2579350000
 ----------------------------------------------------------------

   13    -696.1592465811      8.74e-09  Convergence criterion met
 Total energy in the final basis set =     -696.1695224101

                    Orbital Energies (a.u.)
 --------------------------------------------------------------

 Alpha MOs
 -- Occupied --
-19.1346 -19.1346 -10.2813 -10.2813 -10.2140 -10.2140 -10.2027 -10.2027
-10.1999 -10.1999 -10.1607 -10.1607 -10.1606 -10.1606 -10.1605 -10.1605
 -1.0670  -1.0651  -0.8700  -0.8452  -0.8084  -0.7638  -0.7037  -0.6932
 -0.6905  -0.6904  -0.6864  -0.6417  -0.6067  -0.5670  -0.5441  -0.5228
 -0.4933  -0.4769  -0.4731  -0.4567  -0.4504  -0.4447  -0.4394  -0.4391
 -0.4378  -0.4272  -0.4241  -0.3957  -0.3887  -0.3880  -0.3855  -0.3807
 -0.3696  -0.3690  -0.3596  -0.3559  -0.3439  -0.3425  -0.3411  -0.3347
 -0.3002  -0.2840  -0.2791  -0.2678

          Ground-State Mulliken Net Atomic Charges

     Atom                 Charge (a.u.)
  ----------------------------------------
      1 C                    -1.423452
      2 C                    -0.278621
      3 C                     1.331870
      4 C                    -1.423445
      5 C                    -0.278425
      6 C                     1.331679
      7 O                    -0.264052
      8 O                    -0.264054
      9 C                     0.476748
     10 C                    -0.738700
     11 C                    -0.738858
     12 C                    -0.074991
     13 C                     0.476595
     14 C                    -0.075010
     15 C                    -0.738731
     16 C                    -0.738917
     17 H                     0.297555
     18 H                     0.297561
     19 H                     0.145374
     20 H                     0.187040
     21 H                     0.110247
     22 H                     0.110229
     23 H                     0.187018
     24 H                     0.145334
     25 H                     0.201475
     26 H                     0.162946
     27 H                     0.162969
     28 H                     0.162967
     29 H                     0.162951
     30 H                     0.201460
     31 H                     0.145368
     32 H                     0.110249
     33 H                     0.187020
     34 H                     0.145347
     35 H                     0.187017
     36 H                     0.110236
  ----------------------------------------
  Sum of atomic charges =     0.000000

                    Cartesian Multipole Moments
 -----------------------------------------------------------------
    Charge (ESU x 10^10)
                 0.0000
    Dipole Moment (Debye)
         X       0.0002      Y      -0.0000      Z      -0.0002
       Tot       0.0003
    Quadrupole Moments (Debye-Ang)
        XX     -86.4418     XY       1.8167     YY    -115.9043
        XZ       0.0303     YZ       0.0335     ZZ     -99.3825

 Total job time:  905.66s(wall), 7016.34s(cpu)
        *  Thank you very much for using Q-Chem.  Have a nice day.  *
