 Q-Chem 5.4, Q-Chem, Inc., Pleasanton, CA (2021)
 Q-Chem 5.4.0 for Intel X86 EM64T Linux

User input:
--------------------------------------------------------------
$molecule
-2 1
C                  0.2951880000      3.9377870000      0.3229160000
C                 -0.8877440000      3.5721910000      0.9409060000
C                 -1.2740330000      2.2082490000      0.9585090000
C                  1.1421480000      2.9897170000     -0.2957470000
C                  0.7472290000      1.6071670000     -0.2854060000
C                 -0.4665820000      1.2615030000      0.3540870000
C                  2.3676270000      3.4440310000     -0.9468560000
C                  3.1438220000      2.3906290000     -1.5240340000
C                  2.7684080000      1.0139610000     -1.5107970000
C                  1.5537360000      0.5650420000     -0.9086780000
O                  2.6923980000      4.6887710000     -0.9681640000
O                  1.1807110000     -0.6734630000     -0.8865740000
H                  0.6215640000      4.9726770000      0.2884640000
H                 -1.5172190000      4.3257700000      1.4118590000
H                 -2.2027640000      1.9093830000      1.4426490000
H                 -0.7326020000      0.2088940000      0.3447530000
S                  4.6385920000      2.8601120000     -2.4203050000
C                  3.6426060000     -0.0508940000     -2.1260410000
H                  3.6724260000      0.0091420000     -3.2251880000
H                  3.2290690000     -1.0241720000     -1.8513550000
H                  4.6844890000      0.0284680000     -1.7897610000
C                  5.5768340000      3.8782640000     -1.2007690000
C                  6.7091970000      4.6274490000     -1.8997220000
H                  5.9739680000      3.2165790000     -0.4234150000
H                  4.8413750000      4.5594770000     -0.7681320000
H                  7.4017840000      3.9436130000     -2.4082330000
H                  7.2956860000      5.2106740000     -1.1793430000
H                  6.3137030000      5.3185510000     -2.6506320000
$end
$rem
MAX_SCF_CYCLES=200
BASIS  =  6-311++G(d,p)
GUI  =  2
JOB_TYPE  =  SP
METHOD  =  B3LYP
SOLVENT_METHOD = PCM
$end
$pcm
theory = CPCM
$end
$solvent
dielectric 37.219
opticaldielectric 1.43
$end

--------------------------------------------------------------

             Standard Nuclear Orientation (Angstroms)
    I     Atom           X                Y                Z
 ----------------------------------------------------------------
    1      C       0.2951880000     3.9377870000     0.3229160000
    2      C      -0.8877440000     3.5721910000     0.9409060000
    3      C      -1.2740330000     2.2082490000     0.9585090000
    4      C       1.1421480000     2.9897170000    -0.2957470000
    5      C       0.7472290000     1.6071670000    -0.2854060000
    6      C      -0.4665820000     1.2615030000     0.3540870000
    7      C       2.3676270000     3.4440310000    -0.9468560000
    8      C       3.1438220000     2.3906290000    -1.5240340000
    9      C       2.7684080000     1.0139610000    -1.5107970000
   10      C       1.5537360000     0.5650420000    -0.9086780000
   11      O       2.6923980000     4.6887710000    -0.9681640000
   12      O       1.1807110000    -0.6734630000    -0.8865740000
   13      H       0.6215640000     4.9726770000     0.2884640000
   14      H      -1.5172190000     4.3257700000     1.4118590000
   15      H      -2.2027640000     1.9093830000     1.4426490000
   16      H      -0.7326020000     0.2088940000     0.3447530000
   17      S       4.6385920000     2.8601120000    -2.4203050000
   18      C       3.6426060000    -0.0508940000    -2.1260410000
   19      H       3.6724260000     0.0091420000    -3.2251880000
   20      H       3.2290690000    -1.0241720000    -1.8513550000
   21      H       4.6844890000     0.0284680000    -1.7897610000
   22      C       5.5768340000     3.8782640000    -1.2007690000
   23      C       6.7091970000     4.6274490000    -1.8997220000
   24      H       5.9739680000     3.2165790000    -0.4234150000
   25      H       4.8413750000     4.5594770000    -0.7681320000
   26      H       7.4017840000     3.9436130000    -2.4082330000
   27      H       7.2956860000     5.2106740000    -1.1793430000
   28      H       6.3137030000     5.3185510000    -2.6506320000
 ----------------------------------------------------------------

    9   -1051.7060528561      4.13e-06  Convergence criterion met
 Total energy in the final basis set =    -1051.7060528561

                    Orbital Energies (a.u.)
 --------------------------------------------------------------

 Alpha MOs
 -- Occupied --
-88.8149 -19.0211 -19.0162 -10.1765 -10.1712 -10.1688 -10.1537 -10.1511
-10.1507 -10.1501 -10.1469 -10.1458 -10.1397 -10.1388 -10.1331 -10.1317
 -7.9009  -5.8647  -5.8611  -5.8551  -0.9410  -0.9324  -0.8267  -0.7913
 -0.7636  -0.7248  -0.7233  -0.6958  -0.6510  -0.6268  -0.5910  -0.5660
 -0.5531  -0.5203  -0.4785  -0.4622  -0.4410  -0.4314  -0.4238  -0.4087
 -0.3997  -0.3956  -0.3802  -0.3737  -0.3684  -0.3635  -0.3535  -0.3495
 -0.3444  -0.3332  -0.3224  -0.3167  -0.3114  -0.3042  -0.2893  -0.2318
 -0.2272  -0.2245  -0.2033  -0.1962  -0.1909  -0.1143

          Ground-State Mulliken Net Atomic Charges

     Atom                 Charge (a.u.)
  ----------------------------------------
      1 C                    -0.019376
      2 C                    -0.475115
      3 C                    -0.460923
      4 C                     0.050720
      5 C                     0.300352
      6 C                     0.028891
      7 C                    -0.548974
      8 C                     0.657200
      9 C                     0.477890
     10 C                    -0.594011
     11 O                    -0.659622
     12 O                    -0.714244
     13 H                     0.155871
     14 H                     0.171687
     15 H                     0.171296
     16 H                     0.147389
     17 S                    -0.781704
     18 C                    -0.319671
     19 H                     0.154550
     20 H                     0.155066
     21 H                     0.128048
     22 C                    -0.251344
     23 C                    -0.605463
     24 H                     0.177853
     25 H                     0.208245
     26 H                     0.145667
     27 H                     0.150943
     28 H                     0.148781
  ----------------------------------------
  Sum of atomic charges =    -2.000000

                    Cartesian Multipole Moments
 -----------------------------------------------------------------
    Charge (ESU x 10^10)
                -9.6064
    Dipole Moment (Debye)
         X     -18.5092      Y     -19.0842      Z      10.5297
       Tot      28.5950
    Quadrupole Moments (Debye-Ang)
        XX    -160.4978     XY     -48.0185     YY    -201.5454
        XZ      30.4701     YZ      23.9520     ZZ    -132.1121

 Total job time:  48.99s(wall), 326.91s(cpu)
        *  Thank you very much for using Q-Chem.  Have a nice day.  *
