 Gaussian 16, Revision A.03,
 Gaussian 16:  ES64L-G16RevA.03 25-Dec-2016

 --------------------------------------
 #P UB3LYP/6-311++G(d,p) nosym opt freq
 --------------------------------------

 -------
 Reduced
 -------
 Symbolic Z-matrix:
 Charge = -2 Multiplicity = 1

 SCF Done:  E(UB3LYP) =  -1051.43410512     A.U. after   31 cycles
 SCF Done:  E(UB3LYP) =  -1051.43232110     A.U. after   32 cycles
 SCF Done:  E(UB3LYP) =  -1051.43398628     A.U. after   30 cycles
 SCF Done:  E(UB3LYP) =  -1051.43469342     A.U. after   30 cycles
 SCF Done:  E(UB3LYP) =  -1051.43480192     A.U. after   25 cycles
 SCF Done:  E(UB3LYP) =  -1051.43496578     A.U. after   28 cycles
 SCF Done:  E(UB3LYP) =  -1051.43499782     A.U. after   22 cycles
 SCF Done:  E(UB3LYP) =  -1051.43501102     A.U. after   21 cycles
 SCF Done:  E(UB3LYP) =  -1051.43501841     A.U. after   25 cycles
 SCF Done:  E(UB3LYP) =  -1051.43502015     A.U. after   22 cycles
 SCF Done:  E(UB3LYP) =  -1051.43502056     A.U. after   23 cycles
 SCF Done:  E(UB3LYP) =  -1051.43502080     A.U. after   19 cycles
 SCF Done:  E(UB3LYP) =  -1051.43502109     A.U. after   20 cycles
 SCF Done:  E(UB3LYP) =  -1051.43502128     A.U. after   23 cycles
 SCF Done:  E(UB3LYP) =  -1051.43502141     A.U. after   21 cycles
 SCF Done:  E(UB3LYP) =  -1051.43502143     A.U. after   21 cycles
 SCF Done:  E(UB3LYP) =  -1051.43502146     A.U. after   18 cycles
 Optimization completed.
    -- Stationary point found.
 Normal termination of Gaussian 16 at Mon Jan  8 03:36:50 2024.

 ----------------------------------------------------------------------
 #P Geom=AllCheck Guess=TCheck SCRF=Check GenChk UB3LYP/6-311++G(d,p) F
 req
 ----------------------------------------------------------------------

 Structure from the checkpoint file:  "278-an.chk"
 -------
 Reduced
 -------
 Charge = -2 Multiplicity = 1

                          Input orientation:
 ---------------------------------------------------------------------
 Center     Atomic      Atomic             Coordinates (Angstroms)
 Number     Number       Type             X           Y           Z
 ---------------------------------------------------------------------
      1          6           0        0.295188    3.937787    0.322916
      2          6           0       -0.887744    3.572191    0.940906
      3          6           0       -1.274033    2.208249    0.958509
      4          6           0        1.142148    2.989717   -0.295747
      5          6           0        0.747229    1.607167   -0.285406
      6          6           0       -0.466582    1.261503    0.354087
      7          6           0        2.367627    3.444031   -0.946856
      8          6           0        3.143822    2.390629   -1.524034
      9          6           0        2.768408    1.013961   -1.510797
     10          6           0        1.553736    0.565042   -0.908678
     11          8           0        2.692398    4.688771   -0.968164
     12          8           0        1.180711   -0.673463   -0.886574
     13          1           0        0.621564    4.972677    0.288464
     14          1           0       -1.517219    4.325770    1.411859
     15          1           0       -2.202764    1.909383    1.442649
     16          1           0       -0.732602    0.208894    0.344753
     17         16           0        4.638592    2.860112   -2.420305
     18          6           0        3.642606   -0.050894   -2.126041
     19          1           0        3.672426    0.009142   -3.225188
     20          1           0        3.229069   -1.024172   -1.851355
     21          1           0        4.684489    0.028468   -1.789761
     22          6           0        5.576834    3.878264   -1.200769
     23          6           0        6.709197    4.627449   -1.899722
     24          1           0        5.973968    3.216579   -0.423415
     25          1           0        4.841375    4.559477   -0.768132
     26          1           0        7.401784    3.943613   -2.408233
     27          1           0        7.295686    5.210674   -1.179343
     28          1           0        6.313703    5.318551   -2.650632
 ---------------------------------------------------------------------

 SCF Done:  E(UB3LYP) =  -1051.43502146     A.U. after    6 cycles

 Alpha  occ. eigenvalues --  -88.58991 -18.78134 -18.77408  -9.96209  -9.95812
 Alpha  occ. eigenvalues --   -9.94230  -9.93400  -9.93238  -9.93178  -9.92221
 Alpha  occ. eigenvalues --   -9.92106  -9.92042  -9.90938  -9.90849  -9.90712
 Alpha  occ. eigenvalues --   -9.90042  -7.67559  -5.63949  -5.63584  -5.62966
 Alpha  occ. eigenvalues --   -0.69951  -0.68855  -0.59940  -0.57077  -0.54362
 Alpha  occ. eigenvalues --   -0.50009  -0.49642  -0.47558  -0.42928  -0.39819
 Alpha  occ. eigenvalues --   -0.37549  -0.34152  -0.32873  -0.29233  -0.25224
 Alpha  occ. eigenvalues --   -0.24103  -0.23421  -0.21466  -0.20312  -0.19019
 Alpha  occ. eigenvalues --   -0.17409  -0.17114  -0.16307  -0.14963  -0.14322
 Alpha  occ. eigenvalues --   -0.13955  -0.13303  -0.12547  -0.11454  -0.10695
 Alpha  occ. eigenvalues --   -0.09629  -0.08463  -0.07395  -0.07195  -0.06014
 Alpha  occ. eigenvalues --   -0.00230   0.00448   0.01356   0.03704   0.04164
 Alpha  occ. eigenvalues --    0.04977   0.12796
 Alpha virt. eigenvalues --    0.14275   0.15995   0.17444   0.17791   0.18210
 Alpha virt. eigenvalues --    0.19071   0.20128   0.20657   0.21339   0.21870
 Alpha virt. eigenvalues --    0.22108   0.23076   0.23451   0.23681   0.25008

  Beta  occ. eigenvalues --  -88.58991 -18.78134 -18.77408  -9.96209  -9.95812
  Beta  occ. eigenvalues --   -9.94230  -9.93400  -9.93238  -9.93178  -9.92221
  Beta  occ. eigenvalues --   -9.92106  -9.92042  -9.90938  -9.90849  -9.90712
  Beta  occ. eigenvalues --   -9.90042  -7.67559  -5.63949  -5.63584  -5.62966
  Beta  occ. eigenvalues --   -0.69951  -0.68855  -0.59940  -0.57077  -0.54362
  Beta  occ. eigenvalues --   -0.50009  -0.49642  -0.47558  -0.42928  -0.39819
  Beta  occ. eigenvalues --   -0.37549  -0.34152  -0.32873  -0.29233  -0.25224
  Beta  occ. eigenvalues --   -0.24103  -0.23421  -0.21466  -0.20312  -0.19019
  Beta  occ. eigenvalues --   -0.17409  -0.17114  -0.16307  -0.14963  -0.14322
  Beta  occ. eigenvalues --   -0.13955  -0.13303  -0.12547  -0.11454  -0.10695
  Beta  occ. eigenvalues --   -0.09629  -0.08463  -0.07395  -0.07195  -0.06014
  Beta  occ. eigenvalues --   -0.00230   0.00448   0.01356   0.03704   0.04164
  Beta  occ. eigenvalues --    0.04977   0.12796
  Beta virt. eigenvalues --    0.14275   0.15995   0.17444   0.17791   0.18210
  Beta virt. eigenvalues --    0.19071   0.20128   0.20657   0.21339   0.21870
  Beta virt. eigenvalues --    0.22108   0.23076   0.23451   0.23681   0.25008

 Mulliken charges and spin densities:
               1          2
     1  C   -0.040822  -0.000000
     2  C   -0.408257   0.000000
     3  C   -0.347677  -0.000000
     4  C    0.242891  -0.000000
     5  C    0.598313   0.000000
     6  C    0.012551  -0.000000
     7  C   -0.765146  -0.000000
     8  C    0.600381   0.000000
     9  C    0.674908  -0.000000
    10  C   -1.006057  -0.000000
    11  O   -0.484888   0.000000
    12  O   -0.520150   0.000000
    13  H    0.139006  -0.000000
    14  H    0.072413   0.000000
    15  H    0.070816  -0.000000
    16  H    0.131337  -0.000000
    17  S   -0.525384   0.000000
    18  C   -0.321873  -0.000000
    19  H    0.098562  -0.000000
    20  H    0.167758   0.000000
    21  H    0.072187  -0.000000
    22  C   -0.856812  -0.000000
    23  C    0.500359   0.000000
    24  H    0.044893  -0.000000
    25  H    0.288948   0.000000
    26  H   -0.137281  -0.000000
    27  H   -0.258389  -0.000000
    28  H   -0.042587  -0.000000
 Sum of Mulliken charges =  -2.00000   0.00000

 Dipole moment (field-independent basis, Debye):
    X=            -23.6772    Y=            -22.2731    Z=             10.0698  Tot=             34.0309
 Quadrupole moment (field-independent basis, Debye-Ang):
   XX=           -235.9791   YY=           -221.7912   ZZ=           -140.0473
   XY=            -78.0504   XZ=             45.6556   YZ=             25.6153

  Exact polarizability:1897.933 720.626 738.973-244.361 -39.944 386.303
 Approx polarizability:3602.3621471.6371223.927-523.087-149.488 457.228

                      1                      2                      3
                      A                      A                      A
 Frequencies --     40.9460                54.4966                70.3662
 Red. masses --      3.4394                 4.9782                 2.9100
 Frc consts  --      0.0034                 0.0087                 0.0085
 IR Inten    --      0.5236                 9.7397                11.0146

                      4                      5                      6
                      A                      A                      A
 Frequencies --     88.1306               115.1572               131.4158
 Red. masses --      1.9854                 1.3373                 3.5662
 Frc consts  --      0.0091                 0.0104                 0.0363
 IR Inten    --      2.8216                 0.2288                 6.3379

                      7                      8                      9
                      A                      A                      A
 Frequencies --    165.5113               186.6894               219.8055
 Red. masses --      3.3737                 6.5917                 2.9726
 Frc consts  --      0.0545                 0.1354                 0.0846
 IR Inten    --     19.2247                 1.7955                 8.4243

                     10                     11                     12
                      A                      A                      A
 Frequencies --    238.6155               249.5914               281.2245
 Red. masses --      1.9477                 2.6017                 5.0715
 Frc consts  --      0.0653                 0.0955                 0.2363
 IR Inten    --      9.3997                23.1028                23.2165

                     13                     14                     15
                      A                      A                      A
 Frequencies --    296.7327               343.6321               374.0342
 Red. masses --      4.7339                 3.7566                 9.0092
 Frc consts  --      0.2456                 0.2614                 0.7426
 IR Inten    --      8.5608                10.3975                51.6220

                     16                     17                     18
                      A                      A                      A
 Frequencies --    382.5050               403.5806               423.9789
 Red. masses --      7.5425                 7.3343                 6.5549
 Frc consts  --      0.6502                 0.7038                 0.6942
 IR Inten    --      2.8298               195.0604               309.6791

                     19                     20                     21
                      A                      A                      A
 Frequencies --    457.3314               488.2164               518.6064
 Red. masses --      3.3638                 9.4952                 4.9135
 Frc consts  --      0.4145                 1.3335                 0.7786
 IR Inten    --      2.2904               940.1279                18.5651

                     22                     23                     24
                      A                      A                      A
 Frequencies --    568.6810               653.0486               656.1890
 Red. masses --      6.5203                 5.2558                 5.2895
 Frc consts  --      1.2424                 1.3206                 1.3419
 IR Inten    --     12.7487                 8.1121                13.1122

                     25                     26                     27
                      A                      A                      A
 Frequencies --    668.7561               686.1353               692.8777
 Red. masses --      5.0107                 2.2592                 4.1389
 Frc consts  --      1.3203                 0.6267                 1.1707
 IR Inten    --      2.9614                55.4175                13.4542

                     28                     29                     30
                      A                      A                      A
 Frequencies --    752.7734               772.0157               793.4250
 Red. masses --      2.3844                 2.2308                 1.1290
 Frc consts  --      0.7961                 0.7834                 0.4187
 IR Inten    --     17.8460                 0.6367                25.7188

                     31                     32                     33
                      A                      A                      A
 Frequencies --    800.3751               824.6750               851.7950
 Red. masses --      6.1623                 2.2808                 4.4954
 Frc consts  --      2.3258                 0.9139                 1.9217
 IR Inten    --     25.6802                 0.2624                 4.8717

                     34                     35                     36
                      A                      A                      A
 Frequencies --    956.3140               960.8053               966.4299
 Red. masses --      1.2237                 1.3669                 6.7498
 Frc consts  --      0.6594                 0.7435                 3.7143
 IR Inten    --      1.0939                 5.2255               136.4089

                     37                     38                     39
                      A                      A                      A
 Frequencies --    981.6871              1017.6868              1020.1802
 Red. masses --      1.9781                 2.1166                 1.8755
 Frc consts  --      1.1232                 1.2916                 1.1501
 IR Inten    --      9.6869               397.7238                61.9918

                     40                     41                     42
                      A                      A                      A
 Frequencies --   1032.2825              1042.2124              1061.9440
 Red. masses --      1.2546                 1.4440                 1.9137
 Frc consts  --      0.7877                 0.9241                 1.2715
 IR Inten    --     48.8732                25.9204                87.7427

                     43                     44                     45
                      A                      A                      A
 Frequencies --   1093.6275              1119.3041              1139.6199
 Red. masses --      2.0047                 1.6232                 3.0305
 Frc consts  --      1.4127                 1.1982                 2.3189
 IR Inten    --     34.5502               129.6206               298.5499

                     46                     47                     48
                      A                      A                      A
 Frequencies --   1193.2995              1210.0834              1247.2974
 Red. masses --      2.1142                 2.7698                 1.5477
 Frc consts  --      1.7738                 2.3896                 1.4187
 IR Inten    --     37.0500                72.3252               224.9928

                     49                     50                     51
                      A                      A                      A
 Frequencies --   1255.9638              1268.2289              1327.7761
 Red. masses --      1.7184                 1.3142                 5.5762
 Frc consts  --      1.5971                 1.2454                 5.7922
 IR Inten    --    231.5852                37.1914              1557.1551

                     52                     53                     54
                      A                      A                      A
 Frequencies --   1350.6537              1369.3881              1383.2171
 Red. masses --      2.7443                 2.0557                 1.2729
 Frc consts  --      2.9496                 2.2712                 1.4349
 IR Inten    --    141.3722               114.9071              1032.6594

                     55                     56                     57
                      A                      A                      A
 Frequencies --   1402.1101              1421.0625              1434.4464
 Red. masses --      3.1183                 4.5253                 5.1827
 Frc consts  --      3.6119                 5.3842                 6.2831
 IR Inten    --    245.3786               295.7102              3024.6958

                     58                     59                     60
                      A                      A                      A
 Frequencies --   1465.1302              1475.2674              1478.8375
 Red. masses --      1.2044                 1.9638                 1.1805
 Frc consts  --      1.5232                 2.5181                 1.5211
 IR Inten    --     28.4693              2161.7746               153.6786

                     61                     62                     63
                      A                      A                      A
 Frequencies --   1489.4490              1493.4112              1498.2267
 Red. masses --      2.0725                 1.0437                 1.1199
 Frc consts  --      2.7089                 1.3714                 1.4811
 IR Inten    --    159.4709                75.7015                13.5066

                     64                     65                     66
                      A                      A                      A
 Frequencies --   1498.6513              1561.0605              1588.0122
 Red. masses --      1.4143                 6.6950                 5.4083
 Frc consts  --      1.8715                 9.6126                 8.0356
 IR Inten    --    193.9685              3364.4354                28.7273

                     67                     68                     69
                      A                      A                      A
 Frequencies --   2944.6343              2980.8494              2991.6763
 Red. masses --      1.0578                 1.0395                 1.0777
 Frc consts  --      5.4041                 5.4419                 5.6831
 IR Inten    --    509.6234               203.9455               148.0200

                     70                     71                     72
                      A                      A                      A
 Frequencies --   3001.2448              3026.8250              3059.0799
 Red. masses --      1.0622                 1.0985                 1.0959
 Frc consts  --      5.6371                 5.9298                 6.0425
 IR Inten    --     98.2872               214.4493               153.7977

                     73                     74                     75
                      A                      A                      A
 Frequencies --   3077.9757              3079.8523              3087.7686
 Red. masses --      1.0949                 1.1050                 1.0825
 Frc consts  --      6.1116                 6.1755                 6.0811
 IR Inten    --     20.4802               179.5434                41.3546

                     76                     77                     78
                      A                      A                      A
 Frequencies --   3112.0595              3157.2363              3159.5799
 Red. masses --      1.0909                 1.0901                 1.0911
 Frc consts  --      6.2251                 6.4020                 6.4177
 IR Inten    --    344.7889                30.8811               221.3954

 - Thermochemistry -
 -------------------
 Temperature   298.150 Kelvin.  Pressure   1.00000 Atm.
 Atom     1 has atomic number  6 and mass  12.00000

 Molecular mass:   232.05580 amu.
 Principal axes and moments of inertia in atomic units:
                           1         2         3
     Eigenvalues --  2179.353525359.319577324.66375
           X            0.89717  -0.14359   0.41769
           Y            0.24893   0.94557  -0.20962
           Z           -0.36485   0.29204   0.88408
 This molecule is an asymmetric top.
 Rotational symmetry number  1.
 Warning -- assumption of classical behavior for rotation
           may cause significant error
 Rotational temperatures (Kelvin)      0.03974     0.01616     0.01182
 Rotational constants (GHZ):           0.82811     0.33675     0.24639
 Zero-point vibrational energy     554671.1 (Joules/Mol)
                                  132.56957 (Kcal/Mol)
 Warning -- explicit consideration of  22 degrees of freedom as
           vibrations may cause significant error
 Vibrational temperatures:     58.91    78.41   101.24   126.80   165.69
          (Kelvin)            189.08   238.13   268.60   316.25   343.31
                              359.11   404.62   426.93   494.41   538.15
                              550.34   580.66   610.01   658.00   702.43
                              746.16   818.21   939.59   944.11   962.19
                              987.20   996.90  1083.07  1110.76  1141.56
                             1151.56  1186.52  1225.54  1375.92  1382.38
                             1390.48  1412.43  1464.22  1467.81  1485.22
                             1499.51  1527.90  1573.49  1610.43  1639.66
                             1716.89  1741.04  1794.58  1807.05  1824.70
                             1910.37  1943.29  1970.24  1990.14  2017.32
                             2044.59  2063.85  2108.00  2122.58  2127.72
                             2142.98  2148.69  2155.61  2156.22  2246.02
                             2284.80  4236.67  4288.78  4304.35  4318.12
                             4354.93  4401.33  4428.52  4431.22  4442.61
                             4477.56  4542.56  4545.93

 Zero-point correction=                           0.211263 (Hartree/Particle)
 Thermal correction to Energy=                    0.226469
 Thermal correction to Enthalpy=                  0.227413
 Thermal correction to Gibbs Free Energy=         0.168418
 Sum of electronic and zero-point Energies=          -1051.223758
 Sum of electronic and thermal Energies=             -1051.208552
 Sum of electronic and thermal Enthalpies=           -1051.207608
 Sum of electronic and thermal Free Energies=        -1051.266603

                     E (Thermal)             CV                S
                      KCal/Mol        Cal/Mol-Kelvin    Cal/Mol-Kelvin
 Total                  142.112             57.507            124.165
 Electronic               0.000              0.000              0.000
 Translational            0.889              2.981             42.227
 Rotational               0.889              2.981             32.814
 Vibrational            140.334             51.546             49.124
 Vibration     1          0.594              1.981              5.213
 Vibration     2          0.596              1.976              4.647
 Vibration     3          0.598              1.968              4.143
 Vibration     4          0.601              1.958              3.701
 Vibration     5          0.608              1.937              3.180
 Vibration     6          0.612              1.922              2.925
 Vibration     7          0.624              1.885              2.486
 Vibration     8          0.632              1.858              2.260
 Vibration     9          0.647              1.811              1.961
 Vibration    10          0.657              1.781              1.813
 Vibration    11          0.662              1.763              1.733
 Vibration    12          0.681              1.708              1.526
 Vibration    13          0.690              1.680              1.435
 Vibration    14          0.722              1.588              1.195
 Vibration    15          0.745              1.525              1.063
 Vibration    16          0.752              1.507              1.029
 Vibration    17          0.769              1.462              0.950
 Vibration    18          0.786              1.418              0.879
 Vibration    19          0.815              1.345              0.774
 Vibration    20          0.844              1.276              0.688
 Vibration    21          0.874              1.209              0.613
 Vibration    22          0.925              1.099              0.507

 Optimization completed.
    -- Stationary point found.
 Normal termination of Gaussian 16 at Mon Jan  8 04:21:08 2024.
