 Q-Chem 5.4, Q-Chem, Inc., Pleasanton, CA (2021)
 Q-Chem 5.4.0 for Intel X86 EM64T Linux

User input:
--------------------------------------------------------------
$molecule
-1 2
C                  5.7339860000     -5.2857440000      1.3779640000
C                  6.6891020000     -5.1870600000      0.3840760000
C                  6.5751350000     -4.2124540000     -0.6341150000
C                  4.6209520000     -4.4230570000      1.4093280000
C                  4.4949490000     -3.4402430000      0.3927460000
C                  5.4830610000     -3.3605860000     -0.6095510000
C                  3.6182410000     -4.5542970000      2.4842890000
C                  2.5243830000     -3.6236080000      2.4194070000
C                  2.4014730000     -2.6688900000      1.4323690000
C                  3.3528770000     -2.5053050000      0.3673670000
O                  3.7238420000     -5.4251580000      3.3905680000
O                  3.2305230000     -1.6278090000     -0.5313080000
H                  5.8114290000     -6.0293470000      2.1635540000
H                  7.5396070000     -5.8652250000      0.3819380000
H                  1.7769100000     -3.7068450000      3.2039050000
H                  1.5550820000     -1.9871190000      1.4262930000
C                  7.6269600000     -4.1148490000     -1.7152350000
H                  5.3528590000     -2.5969100000     -1.3697260000
H                  7.7090130000     -5.0497950000     -2.2826890000
H                  8.6186250000     -3.9082160000     -1.2947570000
H                  7.3913110000     -3.3153850000     -2.4219750000
$end
$rem
MAX_SCF_CYCLES=200
BASIS  =  6-311++G(d,p)
GUI  =  2
JOB_TYPE  =  SP
METHOD  =  B3LYP
SOLVENT_METHOD = COSMO
$end
$solvent
dielectric 37.219
opticaldielectric 1.43
$end

--------------------------------------------------------------

             Standard Nuclear Orientation (Angstroms)
    I     Atom           X                Y                Z
 ----------------------------------------------------------------
    1      C      -0.6314070320    -1.7674016448    -0.0000002474
    2      C      -1.9708494188    -1.4272655855     0.0001245580
    3      C      -2.3726167810    -0.0714849131     0.0001256999
    4      C       0.3728018792    -0.7796660010    -0.0000805851
    5      C      -0.0174811932     0.5852216136    -0.0000680489
    6      C      -1.3903815256     0.9053067705     0.0000218904
    7      C       1.7945438514    -1.1757016073    -0.0000399394
    8      C       2.7341502614    -0.0875578643    -0.0000022213
    9      C       2.3557163835     1.2381966911     0.0000022987
   10      C       0.9844665330     1.6692798971    -0.0000195442
   11      O       2.1484503178    -2.3863387497    -0.0000082636
   12      O       0.6491793671     2.8859018590     0.0000519171
   13      H      -0.3121075308    -2.8038100181     0.0000157502
   14      H      -2.7274162194    -2.2088522820     0.0001972385
   15      H       3.7856732540    -0.3621134881     0.0000351421
   16      H       3.1045435254     2.0259049142     0.0000800246
   17      C      -3.8409956762     0.2870487549    -0.0000981086
   18      H      -1.6502660945     1.9590997459     0.0000384895
   19      H      -4.3544409588    -0.1179321784     0.8803705991
   20      H      -4.3536404772    -0.1154655986    -0.8821842272
   21      H      -3.9810666677     1.3708073626     0.0013032430
 ----------------------------------------------------------------

   10    -574.6592704764      8.86e-06  Convergence criterion met
 Total energy in the final basis set =     -574.6592704764
    5    -574.7465290416      6.07e-06  Convergence criterion met
 Total energy in the final basis set =     -574.7465290416

                    Orbital Energies (a.u.)
 --------------------------------------------------------------

 Alpha MOs
 -- Occupied --
-19.0812 -19.0812 -10.2248 -10.2243 -10.1818 -10.1739 -10.1721 -10.1700
-10.1694 -10.1660 -10.1637 -10.1630 -10.1608  -1.0049  -1.0027  -0.8605
 -0.8078  -0.7630  -0.7456  -0.6931  -0.6692  -0.6160  -0.5945  -0.5593
 -0.5038  -0.4891  -0.4756  -0.4429  -0.4286  -0.4233  -0.4228  -0.4166
 -0.4091  -0.3915  -0.3850  -0.3817  -0.3755  -0.3462  -0.3432  -0.3351
 -0.2807  -0.2562  -0.2498  -0.2448  -0.2425  -0.1578

 Beta MOs
 -- Occupied --
-19.0751 -19.0749 -10.2232 -10.2227 -10.1815 -10.1735 -10.1718 -10.1699
-10.1692 -10.1658 -10.1621 -10.1614 -10.1608  -0.9941  -0.9916  -0.8588
 -0.8025  -0.7613  -0.7436  -0.6900  -0.6609  -0.6139  -0.5922  -0.5564
 -0.5014  -0.4868  -0.4721  -0.4420  -0.4272  -0.4208  -0.4179  -0.4118
 -0.3972  -0.3892  -0.3828  -0.3747  -0.3551  -0.3447  -0.3350  -0.3342
 -0.2520  -0.2500  -0.2440  -0.2393  -0.2369

          Ground-State Mulliken Net Atomic Charges

     Atom                 Charge (a.u.)    Spin (a.u.)
  --------------------------------------------------------
      1 C                     0.137438       0.035137
      2 C                    -0.434170       0.013093
      3 C                     0.447931       0.020612
      4 C                     0.101087       0.003934
      5 C                     0.015632       0.018965
      6 C                    -0.246737       0.035414
      7 C                    -0.664949       0.079750
      8 C                     0.122502       0.152362
      9 C                    -0.033039       0.110846
     10 C                    -0.386964       0.116582
     11 O                    -0.531070       0.217087
     12 O                    -0.527795       0.222379
     13 H                     0.175700      -0.002311
     14 H                     0.202626      -0.001693
     15 H                     0.198708      -0.010494
     16 H                     0.201171      -0.010913
     17 C                    -0.437733      -0.000839
     18 H                     0.142856      -0.002902
     19 H                     0.171955       0.001486
     20 H                     0.172093       0.001489
     21 H                     0.172758       0.000013
  --------------------------------------------------------
  Sum of atomic charges =    -1.000000

                    Cartesian Multipole Moments
 -----------------------------------------------------------------
    Charge (ESU x 10^10)
                -4.8032
    Dipole Moment (Debye)
         X      -7.5352      Y      -1.2371      Z      -0.0003
       Tot       7.6360
    Quadrupole Moments (Debye-Ang)
        XX     -83.0285     XY      10.5103     YY    -115.3428
        XZ      -0.0008     YZ      -0.0022     ZZ     -81.4876

 Total job time:  97.42s(wall), 341.37s(cpu)
        *  Thank you very much for using Q-Chem.  Have a nice day.  *
