 Q-Chem 5.4, Q-Chem, Inc., Pleasanton, CA (2021)
 Q-Chem 5.4.0 for Intel X86 EM64T Linux

User input:
--------------------------------------------------------------
$molecule
-1 2
C                  1.4744550000      3.4216550000     -0.3428850000
C                  0.7170300000      3.1436470000     -1.4678150000
C                  0.0386360000      1.9165120000     -1.5706900000
C                  1.5733130000      2.4912030000      0.7072090000
C                  0.8909880000      1.2557660000      0.6038770000
C                  0.1279770000      0.9886310000     -0.5475360000
C                  2.3965760000      2.8359290000      1.8919280000
C                  2.4202050000      1.8213830000      2.9190120000
C                  1.7643590000      0.6043840000      2.8200240000
C                  0.9710240000      0.2448720000      1.6805200000
O                  3.0218840000      3.9159220000      1.9562070000
O                  0.3766780000     -0.8591610000      1.5940800000
S                  3.3280270000      2.1437750000      4.4350600000
O                  2.9014090000      3.4087180000      5.0506510000
O                  3.2812430000      0.9102610000      5.2472560000
C                  5.0657490000      2.3402780000      3.9438930000
C                  5.5367720000      3.5864330000      3.5361040000
C                  5.9091270000      1.2336290000      4.0188550000
C                  6.8814570000      3.7180090000      3.1939650000
C                  7.7373740000      2.6181800000      3.2599520000
C                  7.2512490000      1.3769040000      3.6713620000
H                  2.0088240000      4.3583590000     -0.2358490000
H                  0.6466880000      3.8718220000     -2.2700370000
H                 -0.5552690000      1.6978970000     -2.4530440000
H                 -0.3829580000      0.0341470000     -0.5994920000
H                  1.8357210000     -0.1142870000      3.6268890000
H                  4.8475310000      4.4165730000      3.4712120000
H                  5.5114570000      0.2851680000      4.3578760000
H                  7.2593550000      4.6822500000      2.8713670000
H                  8.7825310000      2.7277290000      2.9891960000
H                  7.9162290000      0.5216620000      3.7277440000
$end
$rem
MAX_SCF_CYCLES=200
BASIS  =  6-311++G(d,p)
GUI  =  2
JOB_TYPE  =  SP
METHOD  =  B3LYP
SOLVENT_METHOD = PCM
$end
$pcm
theory = CPCM
$end
$solvent
dielectric 37.219
opticaldielectric 1.43
$end

--------------------------------------------------------------

             Standard Nuclear Orientation (Angstroms)
    I     Atom           X                Y                Z
 ----------------------------------------------------------------
    1      C       1.4744550000     3.4216550000    -0.3428850000
    2      C       0.7170300000     3.1436470000    -1.4678150000
    3      C       0.0386360000     1.9165120000    -1.5706900000
    4      C       1.5733130000     2.4912030000     0.7072090000
    5      C       0.8909880000     1.2557660000     0.6038770000
    6      C       0.1279770000     0.9886310000    -0.5475360000
    7      C       2.3965760000     2.8359290000     1.8919280000
    8      C       2.4202050000     1.8213830000     2.9190120000
    9      C       1.7643590000     0.6043840000     2.8200240000
   10      C       0.9710240000     0.2448720000     1.6805200000
   11      O       3.0218840000     3.9159220000     1.9562070000
   12      O       0.3766780000    -0.8591610000     1.5940800000
   13      S       3.3280270000     2.1437750000     4.4350600000
   14      O       2.9014090000     3.4087180000     5.0506510000
   15      O       3.2812430000     0.9102610000     5.2472560000
   16      C       5.0657490000     2.3402780000     3.9438930000
   17      C       5.5367720000     3.5864330000     3.5361040000
   18      C       5.9091270000     1.2336290000     4.0188550000
   19      C       6.8814570000     3.7180090000     3.1939650000
   20      C       7.7373740000     2.6181800000     3.2599520000
   21      C       7.2512490000     1.3769040000     3.6713620000
   22      H       2.0088240000     4.3583590000    -0.2358490000
   23      H       0.6466880000     3.8718220000    -2.2700370000
   24      H      -0.5552690000     1.6978970000    -2.4530440000
   25      H      -0.3829580000     0.0341470000    -0.5994920000
   26      H       1.8357210000    -0.1142870000     3.6268890000
   27      H       4.8475310000     4.4165730000     3.4712120000
   28      H       5.5114570000     0.2851680000     4.3578760000
   29      H       7.2593550000     4.6822500000     2.8713670000
   30      H       8.7825310000     2.7277290000     2.9891960000
   31      H       7.9162290000     0.5216620000     3.7277440000
 ----------------------------------------------------------------

    8   -1315.1778004961      8.17e-06  Convergence criterion met
 Total energy in the final basis set =    -1315.1778004961

                    Orbital Energies (a.u.)
 --------------------------------------------------------------

 Alpha MOs
 -- Occupied --
-89.0538 -19.1219 -19.1196 -19.0932 -19.0913 -10.2486 -10.2376 -10.2116
-10.2047 -10.1922 -10.1897 -10.1876 -10.1859 -10.1859 -10.1852 -10.1852
-10.1849 -10.1800 -10.1794 -10.1778 -10.1771  -8.1176  -6.0806  -6.0794
 -6.0785  -1.1135  -1.0238  -1.0158  -1.0094  -0.8758  -0.8691  -0.8289
 -0.7806  -0.7622  -0.7590  -0.7579  -0.7103  -0.6724  -0.6327  -0.6244
 -0.6208  -0.5906  -0.5705  -0.5437  -0.5217  -0.5165  -0.4960  -0.4848
 -0.4774  -0.4698  -0.4554  -0.4537  -0.4434  -0.4382  -0.4319  -0.4312
 -0.4283  -0.4214  -0.4046  -0.3962  -0.3848  -0.3797  -0.3641  -0.3627
 -0.3584  -0.3484  -0.3458  -0.3321  -0.3174  -0.3057  -0.2992  -0.2764
 -0.2707  -0.2638  -0.2615  -0.2592  -0.2505  -0.1731

 Beta MOs
 -- Occupied --
-89.0538 -19.1217 -19.1196 -19.0883 -19.0848 -10.2474 -10.2363 -10.2116
-10.2031 -10.1922 -10.1896 -10.1875 -10.1859 -10.1856 -10.1852 -10.1848
-10.1821 -10.1799 -10.1792 -10.1778 -10.1769  -8.1177  -6.0806  -6.0794
 -6.0785  -1.1132  -1.0155  -1.0090  -1.0041  -0.8756  -0.8672  -0.8233
 -0.7800  -0.7621  -0.7574  -0.7565  -0.7034  -0.6680  -0.6312  -0.6225
 -0.6200  -0.5896  -0.5685  -0.5428  -0.5195  -0.5149  -0.4932  -0.4842
 -0.4769  -0.4687  -0.4550  -0.4535  -0.4422  -0.4373  -0.4315  -0.4257
 -0.4173  -0.4162  -0.4020  -0.3875  -0.3796  -0.3692  -0.3628  -0.3584
 -0.3548  -0.3476  -0.3448  -0.3315  -0.3157  -0.3047  -0.2810  -0.2714
 -0.2650  -0.2581  -0.2563  -0.2542  -0.2455

          Ground-State Mulliken Net Atomic Charges

     Atom                 Charge (a.u.)    Spin (a.u.)
  --------------------------------------------------------
      1 C                     0.218479       0.024237
      2 C                    -0.431754       0.019309
      3 C                    -0.363448       0.005973
      4 C                     0.124636      -0.032706
      5 C                     0.400448       0.014338
      6 C                     0.050459       0.024600
      7 C                    -0.439718       0.074808
      8 C                    -0.132761       0.110094
      9 C                    -0.087729       0.235823
     10 C                    -0.532407       0.101073
     11 O                    -0.374452       0.192407
     12 O                    -0.464490       0.246090
     13 S                     0.397967      -0.021984
     14 O                    -0.217816       0.006025
     15 O                    -0.253913      -0.002745
     16 C                     0.315677       0.005145
     17 C                    -0.287202       0.014888
     18 C                     0.147960       0.009891
     19 C                    -0.440486      -0.006017
     20 C                    -0.355065       0.005424
     21 C                    -0.505639      -0.002149
     22 H                     0.176745      -0.001596
     23 H                     0.207204      -0.001606
     24 H                     0.210346      -0.000727
     25 H                     0.171520      -0.003503
     26 H                     0.263815      -0.017386
     27 H                     0.283496      -0.000691
     28 H                     0.257154       0.001086
     29 H                     0.230575       0.000094
     30 H                     0.205801      -0.000286
     31 H                     0.224597       0.000091
  --------------------------------------------------------
  Sum of atomic charges =    -1.000001

                    Cartesian Multipole Moments
 -----------------------------------------------------------------
    Charge (ESU x 10^10)
                -4.8032
    Dipole Moment (Debye)
         X      -6.6930      Y      -7.3614      Z     -17.0873
       Tot      19.7727
    Quadrupole Moments (Debye-Ang)
        XX    -124.5747     XY     -21.1323     YY    -166.5667
        XZ     -29.7754     YZ     -37.5248     ZZ    -204.4360

 Total job time:  88.94s(wall), 588.89s(cpu)
        *  Thank you very much for using Q-Chem.  Have a nice day.  *
