 Q-Chem 5.4, Q-Chem, Inc., Pleasanton, CA (2021)
 Q-Chem 5.4.0 for Intel X86 EM64T Linux

User input:
--------------------------------------------------------------
$molecule
-1 2
C                  1.8968010000      3.5215890000      3.8695400000
C                  2.9590700000      3.5893160000      2.8779930000
C                  3.4316480000      2.4989770000      2.2058690000
C                  2.9021670000      1.1661430000      2.4228450000
C                  1.3580660000      2.1782680000      4.0810750000
C                  1.8355350000      1.0809590000      3.3975830000
O                  1.4849200000      4.5414240000      4.4737760000
O                  3.3331200000      0.1522650000      1.8038630000
S                  0.1357910000      1.9197450000      5.3653980000
C                 -1.3729580000      2.6263790000      4.7314020000
C                 -2.4767160000      2.6651540000      5.5970560000
C                 -1.5194500000      3.1103210000      3.4267880000
C                 -2.7448850000      3.6181920000      3.0026050000
C                 -3.6990520000      3.1690520000      5.1633520000
C                 -3.8438160000      3.6504900000      3.8612710000
H                  3.3707060000      4.5792410000      2.7014900000
H                  4.2309750000      2.5926140000      1.4756680000
H                  1.4145290000      0.0973070000      3.5760890000
H                 -2.3707380000      2.3023960000      6.6144460000
H                 -0.6722190000      3.0932220000      2.7533920000
H                 -2.8377350000      3.9945230000      1.9886930000
H                 -4.5406090000      3.1906300000      5.8489870000
H                 -4.7948010000      4.0488030000      3.5243090000
$end
$rem
MAX_SCF_CYCLES=200
BASIS  =  6-311++G(d,p)
GUI  =  2
JOB_TYPE  =  SP
METHOD  =  B3LYP
SOLVENT_METHOD = COSMO
$end
$solvent
dielectric 37.219
opticaldielectric 1.43
$end

--------------------------------------------------------------

             Standard Nuclear Orientation (Angstroms)
    I     Atom           X                Y                Z
 ----------------------------------------------------------------
    1      C      -1.3377752552    -1.0917312144     0.8016667397
    2      C      -2.6092209183    -1.5747403184     0.2856280208
    3      C      -3.4829640979    -0.7932607695    -0.4142164928
    4      C      -3.2092770408     0.5999413977    -0.7107941412
    5      C      -1.0593566384     0.3109882407     0.4944941991
    6      C      -1.9425518334     1.0951817156    -0.2155986419
    7      O      -0.5558980961    -1.8334841682     1.4445362386
    8      O      -4.0120524159     1.3294093749    -1.3590502409
    9      S       0.4083146595     1.0797332246     1.1765850996
   10      C       1.7704335186     0.4115757103     0.2407411848
   11      C       3.0652329722     0.7621257613     0.6527498103
   12      C       1.6170018176    -0.4079511101    -0.8828743893
   13      C       2.7365888770    -0.8616176967    -1.5758870544
   14      C       4.1782278254     0.3090858107    -0.0487592138
   15      C       4.0234190307    -0.5075434631    -1.1700553211
   16      H      -2.8341984555    -2.6162233347     0.4983420204
   17      H      -4.4258155657    -1.1925964018    -0.7781494585
   18      H      -1.7069257887     2.1324494960    -0.4282900146
   19      H       3.1956825452     1.3883527503     1.5295221766
   20      H       0.6231384703    -0.6916375842    -1.2042970818
   21      H       2.5978729323    -1.5013383473    -2.4417848912
   22      H       5.1714541463     0.5913702875     0.2867942055
   23      H       4.8908117157    -0.8658344984    -1.7139547325
 ----------------------------------------------------------------

   10   -1010.9684971406      9.75e-06  Convergence criterion met
 Total energy in the final basis set =    -1010.9684971406
    4   -1011.0548856407      9.87e-06  Convergence criterion met
 Total energy in the final basis set =    -1011.0548856407

                    Orbital Energies (a.u.)
 --------------------------------------------------------------

 Alpha MOs
 -- Occupied --
-88.8543 -19.0895 -19.0891 -10.2341 -10.2296 -10.2103 -10.2020 -10.1784
-10.1778 -10.1773 -10.1766 -10.1757 -10.1729 -10.1722 -10.1713  -7.9403
 -5.9041  -5.9004  -5.8944  -1.0139  -1.0095  -0.8686  -0.8383  -0.7944
 -0.7544  -0.7505  -0.7065  -0.6790  -0.6145  -0.6049  -0.5917  -0.5618
 -0.5156  -0.4838  -0.4784  -0.4634  -0.4552  -0.4430  -0.4312  -0.4236
 -0.4165  -0.4117  -0.3943  -0.3877  -0.3826  -0.3777  -0.3584  -0.3483
 -0.3347  -0.2993  -0.2909  -0.2681  -0.2617  -0.2557  -0.2491  -0.2171
 -0.1740

 Beta MOs
 -- Occupied --
-88.8543 -19.0825 -19.0821 -10.2329 -10.2283 -10.2102 -10.2008 -10.1784
-10.1778 -10.1773 -10.1757 -10.1749 -10.1729 -10.1712 -10.1704  -7.9403
 -5.9042  -5.9004  -5.8944  -1.0024  -0.9965  -0.8683  -0.8329  -0.7926
 -0.7532  -0.7499  -0.7017  -0.6718  -0.6134  -0.6030  -0.5891  -0.5587
 -0.5149  -0.4816  -0.4743  -0.4623  -0.4547  -0.4398  -0.4272  -0.4232
 -0.4106  -0.3978  -0.3889  -0.3838  -0.3757  -0.3574  -0.3566  -0.3480
 -0.3317  -0.2975  -0.2631  -0.2602  -0.2584  -0.2491  -0.2431  -0.2161

          Ground-State Mulliken Net Atomic Charges

     Atom                 Charge (a.u.)    Spin (a.u.)
  --------------------------------------------------------
      1 C                    -0.643549       0.065585
      2 C                    -0.158686       0.088383
      3 C                     0.065778       0.056455
      4 C                    -0.597692       0.139051
      5 C                     1.421738       0.094670
      6 C                    -0.245380       0.083592
      7 O                    -0.467274       0.235300
      8 O                    -0.526931       0.251983
      9 S                    -0.495465      -0.001251
     10 C                     0.558514       0.007460
     11 C                    -0.272685      -0.000937
     12 C                    -0.162313       0.002560
     13 C                    -0.326873      -0.004339
     14 C                    -0.491495      -0.000349
     15 C                    -0.375891       0.001483
     16 H                     0.222973      -0.007269
     17 H                     0.214683      -0.004945
     18 H                     0.237199      -0.009940
     19 H                     0.216397       0.000026
     20 H                     0.191525       0.002445
     21 H                     0.227779      -0.000035
     22 H                     0.213672       0.000087
     23 H                     0.193976      -0.000015
  --------------------------------------------------------
  Sum of atomic charges =    -1.000000

                    Cartesian Multipole Moments
 -----------------------------------------------------------------
    Charge (ESU x 10^10)
                -4.8032
    Dipole Moment (Debye)
         X       9.5132      Y      -0.5061      Z      -1.4130
       Tot       9.6309
    Quadrupole Moments (Debye-Ang)
        XX    -127.9791     XY      15.2708     YY    -110.9231
        XZ     -13.1658     YZ      15.0293     ZZ    -108.8838

 Total job time:  52.14s(wall), 388.59s(cpu)
        *  Thank you very much for using Q-Chem.  Have a nice day.  *
