 Gaussian 16, Revision A.03,
 Gaussian 16:  ES64L-G16RevA.03 25-Dec-2016

 ----------------------------------------------------------------------
 #P UB3LYP/6-311++G(d,p) nosym opt freq SCRF=(PCM,Solvent=n,n-DiMethylF
 ormamide)
 ----------------------------------------------------------------------

 -------
 Radical
 -------
 Symbolic Z-matrix:
 Charge = -1 Multiplicity = 2

 SCF Done:  E(UB3LYP) =  -649.774095176     A.U. after   18 cycles
 SCF Done:  E(UB3LYP) =  -649.774995730     A.U. after   14 cycles
 SCF Done:  E(UB3LYP) =  -649.775242197     A.U. after   14 cycles
 SCF Done:  E(UB3LYP) =  -649.775312916     A.U. after   13 cycles
 SCF Done:  E(UB3LYP) =  -649.775368917     A.U. after   12 cycles
 SCF Done:  E(UB3LYP) =  -649.775435915     A.U. after   13 cycles
 SCF Done:  E(UB3LYP) =  -649.775442093     A.U. after   12 cycles
 SCF Done:  E(UB3LYP) =  -649.775442938     A.U. after   11 cycles
 SCF Done:  E(UB3LYP) =  -649.775443531     A.U. after   10 cycles
 SCF Done:  E(UB3LYP) =  -649.775444098     A.U. after   11 cycles
 SCF Done:  E(UB3LYP) =  -649.775444211     A.U. after   10 cycles
 Optimization completed.
    -- Stationary point found.
 Normal termination of Gaussian 16 at Sat Feb 10 12:04:53 2024.

 ----------------------------------------------------------------------
 #P Geom=AllCheck Guess=TCheck SCRF=Check GenChk UB3LYP/6-311++G(d,p) F
 req
 ----------------------------------------------------------------------

 Structure from the checkpoint file:  "100-rad.chk"
 -------
 Radical
 -------
 Charge = -1 Multiplicity = 2

                          Input orientation:
 ---------------------------------------------------------------------
 Center     Atomic      Atomic             Coordinates (Angstroms)
 Number     Number       Type             X           Y           Z
 ---------------------------------------------------------------------
      1          6           0        2.425054    3.404657    2.846926
      2          6           0        3.499599    3.367339    1.913730
      3          6           0        3.398830    2.716888    0.690613
      4          6           0        2.167265    2.007275    0.315026
      5          6           0        1.092718    2.044597    1.248221
      6          6           0        1.193487    2.695047    2.471337
      7          8           0        2.478688    4.017199    3.970101
      8          8           0        2.113628    1.394741   -0.808153
      9          7           0        0.198594    2.716622    3.420228
     10          6           0       -1.187142    2.383764    3.136873
     11          6           0       -2.056983    2.573714    4.375225
     12          7           0        4.393722    2.695315   -0.258279
     13          6           0        5.779458    3.028175    0.025075
     14          6           0        6.649298    2.838226   -1.213279
     15          1           0        4.409416    3.888636    2.191347
     16          1           0        0.182901    1.523302    0.970602
     17          1           0        0.380168    3.397484    4.149028
     18          1           0       -1.245163    1.341278    2.804732
     19          1           0       -1.574567    2.997229    2.308509
     20          1           0       -1.717516    1.934818    5.194969
     21          1           0       -3.095247    2.318927    4.151074
     22          1           0       -2.033039    3.612597    4.717993
     23          1           0        4.212149    2.014452   -0.987078
     24          1           0        6.166885    2.414711    0.853438
     25          1           0        5.837479    4.070661    0.357214
     26          1           0        6.625355    1.799343   -1.556047
     27          1           0        7.687562    3.093014   -0.989130
     28          1           0        6.309828    3.477121   -2.033022
 ---------------------------------------------------------------------

 SCF Done:  E(UB3LYP) =  -649.775444211     A.U. after    2 cycles

 Alpha  occ. eigenvalues --  -19.06215 -19.06215 -14.31409 -14.31409 -10.20906
 Alpha  occ. eigenvalues --  -10.20905 -10.19871 -10.19871 -10.19551 -10.19549
 Alpha  occ. eigenvalues --  -10.16151 -10.16151 -10.13983 -10.13982  -0.98548
 Alpha  occ. eigenvalues --   -0.98130  -0.92221  -0.92166  -0.80229  -0.76365
 Alpha  occ. eigenvalues --   -0.74272  -0.70511  -0.66472  -0.63704  -0.61627
 Alpha  occ. eigenvalues --   -0.57363  -0.56728  -0.50822  -0.48836  -0.48303
 Alpha  occ. eigenvalues --   -0.46868  -0.46329  -0.45124  -0.42378  -0.41489
 Alpha  occ. eigenvalues --   -0.40770  -0.40318  -0.39358  -0.38105  -0.37652
 Alpha  occ. eigenvalues --   -0.37497  -0.36658  -0.36548  -0.35878  -0.35734
 Alpha  occ. eigenvalues --   -0.33993  -0.30539  -0.29185  -0.23753  -0.23243
 Alpha  occ. eigenvalues --   -0.22991  -0.19466  -0.13563
 Alpha virt. eigenvalues --   -0.00426   0.00057   0.01155   0.01454   0.01716
 Alpha virt. eigenvalues --    0.02262   0.02811   0.03007   0.03603   0.04442
 Alpha virt. eigenvalues --    0.04582   0.04761   0.05731   0.06166   0.06190

  Beta  occ. eigenvalues --  -19.05715 -19.05715 -14.31231 -14.31230 -10.20679
  Beta  occ. eigenvalues --  -10.20679 -10.19877 -10.19877 -10.19317 -10.19316
  Beta  occ. eigenvalues --  -10.16150 -10.16150 -10.14068 -10.14067  -0.97696
  Beta  occ. eigenvalues --   -0.97246  -0.91828  -0.91728  -0.79748  -0.76225
  Beta  occ. eigenvalues --   -0.74188  -0.70387  -0.65705  -0.63609  -0.61369
  Beta  occ. eigenvalues --   -0.56999  -0.56474  -0.50581  -0.48669  -0.48010
  Beta  occ. eigenvalues --   -0.46667  -0.46113  -0.44964  -0.42233  -0.41339
  Beta  occ. eigenvalues --   -0.40162  -0.39476  -0.38887  -0.37589  -0.37526
  Beta  occ. eigenvalues --   -0.37290  -0.36497  -0.36315  -0.35610  -0.33863
  Beta  occ. eigenvalues --   -0.33680  -0.29677  -0.27327  -0.23280  -0.22752
  Beta  occ. eigenvalues --   -0.21271  -0.18669
  Beta virt. eigenvalues --   -0.06894  -0.00405   0.00077   0.01177   0.01725
  Beta virt. eigenvalues --    0.02032   0.02286   0.03019   0.03313   0.03785
  Beta virt. eigenvalues --    0.04586   0.04794   0.05773   0.05808   0.06232

 Mulliken charges and spin densities:
               1          2
     1  C   -0.814520   0.122357
     2  C    0.712803  -0.090667
     3  C   -0.245498   0.208431
     4  C   -0.814510   0.122357
     5  C    0.712791  -0.090667
     6  C   -0.245493   0.208432
     7  O   -0.567387   0.181845
     8  O   -0.567387   0.181845
     9  N   -0.077119   0.074586
    10  C   -0.086280  -0.010356
    11  C   -0.671720   0.005742
    12  N   -0.077119   0.074586
    13  C   -0.086280  -0.010356
    14  C   -0.671721   0.005742
    15  H    0.184585   0.000366
    16  H    0.184585   0.000366
    17  H    0.296497  -0.004418
    18  H    0.149027   0.001921
    19  H    0.166766   0.009636
    20  H    0.151397   0.001443
    21  H    0.154628  -0.000292
    22  H    0.146821  -0.000594
    23  H    0.296498  -0.004418
    24  H    0.166766   0.009636
    25  H    0.149027   0.001921
    26  H    0.146821  -0.000594
    27  H    0.154628  -0.000292
    28  H    0.151397   0.001443
 Sum of Mulliken charges =  -1.00000   1.00000

 Dipole moment (field-independent basis, Debye):
    X=            -11.0289    Y=            -12.9973    Z=             -7.5937  Tot=             18.6610
 Quadrupole moment (field-independent basis, Debye-Ang):
   XX=            -97.9016   YY=           -134.5910   ZZ=           -130.3453
   XY=            -32.2028   XZ=            -29.5490   YZ=            -35.4664

  Exact polarizability: 254.902  13.774 170.609 -54.673  51.785 289.007
 Approx polarizability: 242.354  11.207 189.888 -45.087  63.545 321.739

                      1                      2                      3
                      A                      A                      A
 Frequencies --     33.6581                62.2084                72.3502
 Red. masses --      3.6927                 2.4104                 1.7044
 Frc consts  --      0.0025                 0.0055                 0.0053
 IR Inten    --     11.1200                 0.0000                17.7829

                      4                      5                      6
                      A                      A                      A
 Frequencies --     93.4762                97.2040               126.2178
 Red. masses --      3.4914                 2.3766                 7.1310
 Frc consts  --      0.0180                 0.0132                 0.0669
 IR Inten    --      7.8715                 0.0000                21.3541

                      7                      8                      9
                      A                      A                      A
 Frequencies --    138.2647               195.2222               244.1192
 Red. masses --      4.3080                 5.0817                 2.8583
 Frc consts  --      0.0485                 0.1141                 0.1004
 IR Inten    --      0.0000                 6.4131                 0.0000

                     10                     11                     12
                      A                      A                      A
 Frequencies --    257.7857               259.2204               261.3649
 Red. masses --      4.0614                 1.2150                 1.4941
 Frc consts  --      0.1590                 0.0481                 0.0601
 IR Inten    --      0.0000                12.3559                 0.0000

                     13                     14                     15
                      A                      A                      A
 Frequencies --    321.9013               350.7827               358.7757
 Red. masses --      4.3935                 4.0097                 4.1092
 Frc consts  --      0.2682                 0.2907                 0.3116
 IR Inten    --     13.7314                 0.0000                50.6251

                     16                     17                     18
                      A                      A                      A
 Frequencies --    451.7604               458.7795               463.9874
 Red. masses --      2.8185                 5.5385                 7.4657
 Frc consts  --      0.3389                 0.6868                 0.9470
 IR Inten    --      5.8098                 0.0000                 0.0000

                     19                     20                     21
                      A                      A                      A
 Frequencies --    475.6374               530.1111               544.1426
 Red. masses --      3.3902                 1.8686                 1.3739
 Frc consts  --      0.4519                 0.3094                 0.2397
 IR Inten    --     67.8439                 0.0000               494.7595

                     22                     23                     24
                      A                      A                      A
 Frequencies --    591.1117               659.0741               726.5350
 Red. masses --      2.4503                 4.7091                 2.2834
 Frc consts  --      0.5044                 1.2052                 0.7101
 IR Inten    --      0.0000                 0.0000                 0.0000

                     25                     26                     27
                      A                      A                      A
 Frequencies --    731.9822               735.4395               768.7196
 Red. masses --      4.6564                 7.4192                 4.7276
 Frc consts  --      1.4699                 2.3643                 1.6460
 IR Inten    --     74.1478                 5.7928                 0.0000

                     28                     29                     30
                      A                      A                      A
 Frequencies --    796.7756               813.4722               821.0253
 Red. masses --      1.8899                 1.3287                 1.1403
 Frc consts  --      0.7069                 0.5180                 0.4529
 IR Inten    --      0.0000                87.2272                 0.0000

                     31                     32                     33
                      A                      A                      A
 Frequencies --    824.4667               903.6448               924.2175
 Red. masses --      1.2597                 2.0192                 1.7801
 Frc consts  --      0.5045                 0.9715                 0.8959
 IR Inten    --     45.0386                25.3768                 0.0000

                     34                     35                     36
                      A                      A                      A
 Frequencies --    941.7655              1059.9682              1067.9921
 Red. masses --      2.3950                 2.8492                 2.4763
 Frc consts  --      1.2515                 1.8861                 1.6641
 IR Inten    --     10.2723                 0.0000                37.9757

                     37                     38                     39
                      A                      A                      A
 Frequencies --   1141.0406              1149.2351              1153.9669
 Red. masses --      2.7286                 1.9424                 1.5388
 Frc consts  --      2.0931                 1.5115                 1.2073
 IR Inten    --     75.3802                 0.0000                30.0906

                     40                     41                     42
                      A                      A                      A
 Frequencies --   1157.6751              1221.7743              1232.1578
 Red. masses --      1.7585                 2.7563                 2.2011
 Frc consts  --      1.3885                 2.4242                 1.9689
 IR Inten    --      0.0000               335.9623                 0.0000

                     43                     44                     45
                      A                      A                      A
 Frequencies --   1233.0453              1253.8702              1289.5007
 Red. masses --      6.8351                 1.6921                 1.5886
 Frc consts  --      6.1228                 1.5674                 1.5564
 IR Inten    --    104.9382                 0.0000               533.2846

                     46                     47                     48
                      A                      A                      A
 Frequencies --   1294.2902              1297.5235              1361.5979
 Red. masses --      1.1258                 1.2770                 1.6507
 Frc consts  --      1.1112                 1.2667                 1.8031
 IR Inten    --      0.0000               103.2350                 0.0000

                     49                     50                     51
                      A                      A                      A
 Frequencies --   1383.8960              1406.0283              1409.9676
 Red. masses --      1.3568                 1.3329                 1.3098
 Frc consts  --      1.5309                 1.5525                 1.5342
 IR Inten    --     67.2711                 0.0000                57.0387

                     52                     53                     54
                      A                      A                      A
 Frequencies --   1421.1549              1480.1212              1481.9811
 Red. masses --      2.0552                 1.4308                10.3945
 Frc consts  --      2.4456                 1.8468                13.4506
 IR Inten    --      0.0000               786.2361                 0.0000

                     55                     56                     57
                      A                      A                      A
 Frequencies --   1482.7428              1483.0424              1488.0728
 Red. masses --      1.0443                 1.2097                 1.0604
 Frc consts  --      1.3527                 1.5676                 1.3835
 IR Inten    --      0.0000               316.5247                 0.0000

                     58                     59                     60
                      A                      A                      A
 Frequencies --   1490.9529              1507.6769              1510.2101
 Red. masses --      1.7884                 1.6364                 1.5371
 Frc consts  --      2.3423                 2.1915                 2.0655
 IR Inten    --    816.0813               393.9848               414.7882

                     61                     62                     63
                      A                      A                      A
 Frequencies --   1515.7499              1532.4092              1536.2613
 Red. masses --      1.1231                 2.3518                 2.1296
 Frc consts  --      1.5202                 3.2539                 2.9613
 IR Inten    --      0.0000               597.5340                 0.0000

                     64                     65                     66
                      A                      A                      A
 Frequencies --   1606.3982              2951.7043              2952.2652
 Red. masses --      6.0113                 1.0732                 1.0733
 Frc consts  --      9.1396                 5.5090                 5.5119
 IR Inten    --      0.0000               248.8272                 0.0000

                     67                     68                     69
                      A                      A                      A
 Frequencies --   3020.3609              3020.4415              3025.5114
 Red. masses --      1.0846                 1.0847                 1.0384
 Frc consts  --      5.8295                 5.8303                 5.6004
 IR Inten    --     82.8580                 0.0005                95.6807

                     70                     71                     72
                      A                      A                      A
 Frequencies --   3025.5403              3086.1539              3086.1585
 Red. masses --      1.0383                 1.1023                 1.1023
 Frc consts  --      5.5997                 6.1855                 6.1855
 IR Inten    --      0.0001                 0.0067               126.5345

                     73                     74                     75
                      A                      A                      A
 Frequencies --   3099.5906              3099.6008              3164.1045
 Red. masses --      1.1013                 1.1013                 1.0885
 Frc consts  --      6.2340                 6.2339                 6.4204
 IR Inten    --     94.7478                 0.0001                72.1918

                     76                     77                     78
                      A                      A                      A
 Frequencies --   3166.5654              3541.9236              3542.0729
 Red. masses --      1.0888                 1.0754                 1.0754
 Frc consts  --      6.4323                 7.9485                 7.9494
 IR Inten    --      0.0000                 0.0001               160.8466

 - Thermochemistry -
 -------------------
 Temperature   298.150 Kelvin.  Pressure   1.00000 Atm.
 Atom     1 has atomic number  6 and mass  12.00000

 Molecular mass:   194.10553 amu.
 Principal axes and moments of inertia in atomic units:
                           1         2         3
     Eigenvalues --  1119.300795645.794206711.48124
           X            0.82226   0.48105  -0.30410
           Y            0.00450   0.52884   0.84871
           Z           -0.56909   0.69923  -0.43268
 This molecule is an asymmetric top.
 Rotational symmetry number  1.
 Warning -- assumption of classical behavior for rotation
           may cause significant error
 Rotational temperatures (Kelvin)      0.07738     0.01534     0.01291
 Rotational constants (GHZ):           1.61238     0.31966     0.26890
 Zero-point vibrational energy     600929.1 (Joules/Mol)
                                  143.62550 (Kcal/Mol)
 Warning -- explicit consideration of  22 degrees of freedom as
           vibrations may cause significant error
 Vibrational temperatures:     48.43    89.50   104.10   134.49   139.85
          (Kelvin)            181.60   198.93   280.88   351.23   370.90
                              372.96   376.05   463.14   504.70   516.20
                              649.98   660.08   667.57   684.34   762.71
                              782.90   850.48   948.26  1045.32  1053.16
                             1058.13  1106.02  1146.38  1170.41  1181.27
                             1186.22  1300.14  1329.74  1354.99  1525.06
                             1536.60  1641.70  1653.49  1660.30  1665.64
                             1757.86  1772.80  1774.08  1804.04  1855.30
                             1862.19  1866.85  1959.04  1991.12  2022.96
                             2028.63  2044.72  2129.56  2132.24  2133.34
                             2133.77  2141.00  2145.15  2169.21  2172.86
                             2180.83  2204.80  2210.34  2311.25  4246.84
                             4247.65  4345.63  4345.74  4353.04  4353.08
                             4440.29  4440.29  4459.62  4459.63  4552.44
                             4555.98  5096.04  5096.25

 Zero-point correction=                           0.228882 (Hartree/Particle)
 Thermal correction to Energy=                    0.243477
 Thermal correction to Enthalpy=                  0.244421
 Thermal correction to Gibbs Free Energy=         0.186098
 Sum of electronic and zero-point Energies=           -649.546562
 Sum of electronic and thermal Energies=              -649.531968
 Sum of electronic and thermal Enthalpies=            -649.531023
 Sum of electronic and thermal Free Energies=         -649.589346

                     E (Thermal)             CV                S
                      KCal/Mol        Cal/Mol-Kelvin    Cal/Mol-Kelvin
 Total                  152.784             54.000            122.751
 Electronic               0.000              0.000              1.377
 Translational            0.889              2.981             41.695
 Rotational               0.889              2.981             32.117
 Vibrational            151.006             48.038             47.562
 Vibration     1          0.594              1.983              5.601
 Vibration     2          0.597              1.972              4.386
 Vibration     3          0.598              1.967              4.088
 Vibration     4          0.602              1.954              3.586
 Vibration     5          0.603              1.951              3.510
 Vibration     6          0.611              1.927              3.003
 Vibration     7          0.614              1.915              2.828
 Vibration     8          0.636              1.847              2.178
 Vibration     9          0.659              1.772              1.773
 Vibration    10          0.667              1.750              1.677
 Vibration    11          0.668              1.747              1.667
 Vibration    12          0.669              1.743              1.653
 Vibration    13          0.707              1.632              1.300
 Vibration    14          0.728              1.574              1.163
 Vibration    15          0.734              1.557              1.127
 Vibration    16          0.810              1.357              0.790
 Vibration    17          0.817              1.341              0.770
 Vibration    18          0.822              1.330              0.755
 Vibration    19          0.832              1.304              0.722
 Vibration    20          0.885              1.183              0.587
 Vibration    21          0.899              1.153              0.556
 Vibration    22          0.949              1.051              0.465

 Optimization completed.
    -- Stationary point found.
 Normal termination of Gaussian 16 at Sat Feb 10 12:55:45 2024.
