 Q-Chem 5.4, Q-Chem, Inc., Pleasanton, CA (2021)
 Q-Chem 5.4.0 for Intel X86 EM64T Linux

User input:
--------------------------------------------------------------
$molecule
-1 2
C                 -1.7977400000      2.8011950000     -0.7501200000
C                 -2.9023300000      1.9975220000     -0.5349130000
C                 -2.7311550000      0.6462740000     -0.1668430000
C                 -0.4834390000      2.3072990000     -0.6117870000
C                 -0.3177680000      0.9355880000     -0.2381750000
C                 -1.4557870000      0.1292370000     -0.0223040000
C                  0.6541440000      3.2075490000     -0.8530660000
C                  2.0296840000      2.6314610000     -0.6920540000
C                  2.1071840000      1.2341910000     -0.3118440000
C                  1.0163600000      0.4382550000     -0.0987890000
O                  0.4791740000      4.4022590000     -1.1782240000
O                  3.0616820000      3.3126790000     -0.8739090000
H                 -1.9036970000      3.8423310000     -1.0335630000
H                 -3.9024660000      2.4055780000     -0.6489460000
H                 -3.5962600000      0.0124220000      0.0029280000
H                 -1.3122990000     -0.9073550000      0.2601080000
H                  3.1125280000      0.8297870000     -0.1987160000
O                  1.1416850000     -0.8966230000      0.2647310000
H                  2.0824490000     -1.0912790000      0.3209260000
$end

$rem
BASIS  =  6-311++G(d,p)
GUI  =  2
JOB_TYPE  =  SP
METHOD  =  B3LYP
SCF_CONVERGENCE  = 8
SOLVENT_METHOD = sm12
$end

$smx
solvent dimethylformamide
charges CM5
$end

--------------------------------------------------------------

             Standard Nuclear Orientation (Angstroms)
    I     Atom           X                Y                Z
 ----------------------------------------------------------------
    1      C      -1.7977400000     2.8011950000    -0.7501200000
    2      C      -2.9023300000     1.9975220000    -0.5349130000
    3      C      -2.7311550000     0.6462740000    -0.1668430000
    4      C      -0.4834390000     2.3072990000    -0.6117870000
    5      C      -0.3177680000     0.9355880000    -0.2381750000
    6      C      -1.4557870000     0.1292370000    -0.0223040000
    7      C       0.6541440000     3.2075490000    -0.8530660000
    8      C       2.0296840000     2.6314610000    -0.6920540000
    9      C       2.1071840000     1.2341910000    -0.3118440000
   10      C       1.0163600000     0.4382550000    -0.0987890000
   11      O       0.4791740000     4.4022590000    -1.1782240000
   12      O       3.0616820000     3.3126790000    -0.8739090000
   13      H      -1.9036970000     3.8423310000    -1.0335630000
   14      H      -3.9024660000     2.4055780000    -0.6489460000
   15      H      -3.5962600000     0.0124220000     0.0029280000
   16      H      -1.3122990000    -0.9073550000     0.2601080000
   17      H       3.1125280000     0.8297870000    -0.1987160000
   18      O       1.1416850000    -0.8966230000     0.2647310000
   19      H       2.0824490000    -1.0912790000     0.3209260000
 ----------------------------------------------------------------

   17    -610.5653111749      6.85e-09  Convergence criterion met
 Total energy in the final basis set =     -610.6615256550

                    Orbital Energies (a.u.)
 --------------------------------------------------------------

 Alpha MOs
 -- Occupied --
-19.1635 -19.0752 -19.0693 -10.2419 -10.2189 -10.2165 -10.1897 -10.1855
-10.1836 -10.1830 -10.1809 -10.1791 -10.1647  -1.0692  -1.0089  -0.9828
 -0.8702  -0.8092  -0.7638  -0.7378  -0.6875  -0.6322  -0.6033  -0.5942
 -0.5323  -0.5199  -0.5063  -0.4573  -0.4538  -0.4370  -0.4334  -0.4262
 -0.4084  -0.3965  -0.3954  -0.3893  -0.3717  -0.3587  -0.3491  -0.3392
 -0.2891  -0.2677  -0.2543  -0.2303  -0.2198  -0.1524

 Beta MOs
 -- Occupied --
-19.1627 -19.0681 -19.0639 -10.2397 -10.2179 -10.2149 -10.1887 -10.1856
-10.1830 -10.1825 -10.1801 -10.1788 -10.1653  -1.0671  -0.9981  -0.9715
 -0.8678  -0.8057  -0.7612  -0.7361  -0.6798  -0.6301  -0.5996  -0.5920
 -0.5308  -0.5180  -0.5035  -0.4554  -0.4522  -0.4365  -0.4232  -0.4225
 -0.4042  -0.3920  -0.3866  -0.3801  -0.3624  -0.3568  -0.3477  -0.3142
 -0.2783  -0.2568  -0.2480  -0.2202  -0.2141

          Ground-State Mulliken Net Atomic Charges

     Atom                 Charge (a.u.)    Spin (a.u.)
  --------------------------------------------------------
      1 C                    -0.356177       0.057777
      2 C                     0.877775       0.019557
      3 C                     0.831569       0.069034
      4 C                    -3.029431       0.049140
      5 C                     0.578230       0.053933
      6 C                     1.206481       0.011328
      7 C                    -1.938080       0.088255
      8 C                    -1.568062       0.123037
      9 C                     0.247395      -0.050927
     10 C                     1.400803       0.098651
     11 O                    -0.387272       0.268523
     12 O                    -0.415517       0.198091
     13 H                     0.124722      -0.004254
     14 H                     0.322151      -0.002129
     15 H                     0.369837      -0.004925
     16 H                     0.220391       0.001468
     17 H                     0.234847       0.000777
     18 O                    -0.057225       0.023401
     19 H                     0.337561      -0.000737
  --------------------------------------------------------
  Sum of atomic charges =    -1.000000

                    Cartesian Multipole Moments
 -----------------------------------------------------------------
    Charge (ESU x 10^10)
                -4.8032
    Dipole Moment (Debye)
         X      -5.5367      Y     -16.8440      Z       4.4804
       Tot      18.2880
    Quadrupole Moments (Debye-Ang)
        XX     -95.3484     XY     -28.6811     YY    -144.3660
        XZ       7.6638     YZ      16.8186     ZZ     -85.6074

 Total job time:  281.58s(wall), 1906.51s(cpu)
        *  Thank you very much for using Q-Chem.  Have a nice day.  *
