 Q-Chem 5.4, Q-Chem, Inc., Pleasanton, CA (2021)
 Q-Chem 5.4.0 for Intel X86 EM64T Linux

User input:
--------------------------------------------------------------
$molecule
-2 1
C                 -1.2202220000      1.9887820000     -0.4394690000
C                 -2.4643770000      1.2617270000     -0.4350260000
C                 -2.6687270000     -0.0575580000     -0.0144880000
C                 -1.5606300000     -0.8476530000      0.4840380000
C                 -0.3133040000     -0.1544020000      0.4992370000
C                 -0.1764500000      1.1605100000      0.0632520000
Br                 1.6379230000      1.9547500000      0.1511580000
C                 -4.0695280000     -0.7030400000     -0.0579100000
C                 -5.1642390000      0.2370260000     -0.5985900000
C                 -4.4792790000     -1.1388370000      1.3705710000
C                 -4.0295670000     -1.9533540000     -0.9726250000
O                 -1.1149380000      3.2071010000     -0.8431360000
O                 -1.6660690000     -2.0835280000      0.8911400000
H                 -3.2968610000      1.8510450000     -0.8085310000
H                  0.5486450000     -0.7025300000      0.8641480000
H                 -5.2694140000      1.1341670000      0.0194900000
H                 -6.1298100000     -0.2876200000     -0.6039900000
H                 -4.9494470000      0.5609460000     -1.6222320000
H                 -4.5836970000     -0.2587020000      2.0164490000
H                 -3.6995340000     -1.7884250000      1.7763880000
H                 -5.4412840000     -1.6743630000      1.3603980000
H                 -3.8002040000     -1.6573370000     -2.0028330000
H                 -5.0028430000     -2.4719420000     -0.9738620000
H                 -3.2493850000     -2.6284100000     -0.6140660000
$end
$rem
MAX_SCF_CYCLES=200
BASIS  =  6-311++G(d,p)
GUI  =  2
JOB_TYPE  =  SP
METHOD  =  B3LYP
SOLVENT_METHOD = COSMO
$end
$solvent
dielectric 37.219
opticaldielectric 1.43
$end

--------------------------------------------------------------

             Standard Nuclear Orientation (Angstroms)
    I     Atom           X                Y                Z
 ----------------------------------------------------------------
    1      C       0.8152694003    -1.2753982292     0.0048447235
    2      C      -0.6252510607    -1.2373211724     0.0059920048
    3      C      -1.4388009732    -0.0983477120     0.0061907519
    4      C      -0.8470944654     1.2247321687     0.0056607585
    5      C       0.5799955123     1.2229020309    -0.0021466128
    6      C       1.3322389918     0.0516095601     0.0008866346
    7      Br      3.3050611899     0.2477174409    -0.0019942213
    8      C      -2.9773772016    -0.2143633827    -0.0037831040
    9      C      -3.4851877522    -1.6691955178    -0.0103423552
   10      C      -3.5379868767     0.4911578623    -1.2632788125
   11      C      -3.5517783062     0.4784774773     1.2578112940
   12      O       1.4934145666    -2.3701356352     0.0033960408
   13      O      -1.5338334170     2.3349621421     0.0095921005
   14      H      -1.0718354961    -2.2274691174     0.0068223412
   15      H       1.0722212438     2.1894803606    -0.0029099853
   16      H      -3.1402543924    -2.2147480380    -0.8942767791
   17      H      -4.5840781804    -1.6751661030    -0.0141000552
   18      H      -3.1468690759    -2.2193861216     0.8738145803
   19      H      -3.2004355829    -0.0298378931    -2.1673372591
   20      H      -3.1664942160     1.5188765257    -1.2842984244
   21      H      -4.6390383586     0.4938424767    -1.2584173682
   22      H      -3.2142167784    -0.0449753237     2.1598153701
   23      H      -4.6544644074     0.4656994117     1.2467976973
   24      H      -3.1924892109     1.5094428228     1.2889708025
 ----------------------------------------------------------------

   11   -3112.3962798141      4.32e-06  Convergence criterion met
 Total energy in the final basis set =    -3112.3962798141
    5   -3112.6797997200      9.13e-06  Convergence criterion met
 Total energy in the final basis set =    -3112.6797997200

                    Orbital Energies (a.u.)
 --------------------------------------------------------------

 Alpha MOs
 -- Occupied --
******** -62.4548 -56.2748 -56.2717 -56.2715 -19.0271 -19.0178 -10.1831
-10.1798 -10.1755 -10.1637 -10.1392 -10.1371 -10.1323 -10.1320 -10.1306
-10.1280  -8.6634  -6.4933  -6.4829  -6.4824  -2.6045  -2.6016  -2.6012
 -2.5930  -2.5929  -0.9434  -0.9298  -0.8079  -0.7912  -0.7486  -0.6863
 -0.6660  -0.6606  -0.6506  -0.5698  -0.5430  -0.4970  -0.4481  -0.4432
 -0.4163  -0.4105  -0.4062  -0.3983  -0.3819  -0.3701  -0.3598  -0.3586
 -0.3463  -0.3397  -0.3281  -0.3156  -0.3072  -0.3067  -0.3003  -0.2899
 -0.2700  -0.2303  -0.2109  -0.2085  -0.1957  -0.1272

          Ground-State Mulliken Net Atomic Charges

     Atom                 Charge (a.u.)
  ----------------------------------------
      1 C                    -0.734775
      2 C                    -0.463686
      3 C                     0.863925
      4 C                    -0.635494
      5 C                    -0.508493
      6 C                     0.802520
      7 Br                   -0.310329
      8 C                     0.678968
      9 C                    -0.529444
     10 C                    -0.694882
     11 C                    -0.695865
     12 O                    -0.719705
     13 O                    -0.712991
     14 H                     0.165255
     15 H                     0.180764
     16 H                     0.132195
     17 H                     0.168203
     18 H                     0.131544
     19 H                     0.125807
     20 H                     0.176229
     21 H                     0.138409
     22 H                     0.126595
     23 H                     0.138862
     24 H                     0.176389
  ----------------------------------------
  Sum of atomic charges =    -2.000000

                    Cartesian Multipole Moments
 -----------------------------------------------------------------
    Charge (ESU x 10^10)
                -9.6064
    Dipole Moment (Debye)
         X      -3.7845      Y      -0.0067      Z      -0.0448
       Tot       3.7848
    Quadrupole Moments (Debye-Ang)
        XX    -135.3301     XY      26.3586     YY    -144.2341
        XZ       0.0516     YZ      -0.0578     ZZ    -102.3842

 Total job time:  44.95s(wall), 338.37s(cpu)
        *  Thank you very much for using Q-Chem.  Have a nice day.  *
