 Q-Chem 5.4, Q-Chem, Inc., Pleasanton, CA (2021)
 Q-Chem 5.4.0 for Intel X86 EM64T Linux

User input:
--------------------------------------------------------------
$molecule
0 1
O                  2.3178330000      2.7701050000     -0.2108380000
C                  2.3781960000      1.4318670000     -0.1646290000
C                  3.6436330000      0.8381990000     -0.1447170000
C                  3.7567710000     -0.5419660000     -0.0946200000
C                  2.6232880000     -1.3580800000     -0.0670410000
C                  1.3547050000     -0.7915900000     -0.0876170000
C                  0.1421420000     -1.6861160000     -0.1032030000
C                 -1.1974380000     -1.0158420000      0.0610790000
C                 -2.3373050000     -1.7939420000      0.2219420000
C                 -3.5908850000     -1.1875630000      0.3334280000
C                 -3.7258680000      0.1906780000      0.2846430000
C                 -2.5937230000      0.9950090000      0.1250690000
O                 -2.7726280000      2.3228400000      0.0857520000
C                 -1.3069690000      0.3915530000      0.0146420000
C                 -0.1143640000      1.2269010000     -0.1126870000
O                 -0.2285180000      2.4808900000     -0.1808430000
C                  1.2118780000      0.6128650000     -0.1321120000
H                  1.3645430000      3.0208170000     -0.2186750000
H                  4.5143070000      1.4814880000     -0.1675950000
H                  4.7422830000     -0.9943160000     -0.0763330000
H                  2.7315980000     -2.4364160000     -0.0310110000
H                  0.2547570000     -2.4585290000      0.6647760000
H                  0.1341290000     -2.2284630000     -1.0585260000
H                 -2.2517000000     -2.8742770000      0.2592660000
H                 -4.4740110000     -1.8041020000      0.4605490000
H                 -4.6918340000      0.6725990000      0.3687820000
H                 -1.8848220000      2.7353890000     -0.0294780000
$end
$rem
MAX_SCF_CYCLES=200
BASIS  =  6-311++G(d,p)
GUI  =  2
JOB_TYPE  =  SP
METHOD  =  B3LYP
SOLVENT_METHOD = COSMO
$end
$solvent
dielectric 37.219
opticaldielectric 1.43
$end

--------------------------------------------------------------

             Standard Nuclear Orientation (Angstroms)
    I     Atom           X                Y                Z
 ----------------------------------------------------------------
    1      O       2.5593222043    -2.2203199892    -0.0210018685
    2      C       2.4997415972    -0.8812493970    -0.0209103451
    3      C       3.7051768843    -0.1765804271    -0.0882631067
    4      C       3.6941916282     1.2090668292    -0.0933962101
    5      C       2.4940464771     1.9211259405    -0.0285131470
    6      C       1.2831462181     1.2432100582     0.0406803443
    7      C       0.0000062700     2.0248818665     0.1558748518
    8      C      -1.2831416364     1.2432232360     0.0406723223
    9      C      -2.4940362978     1.9211344760    -0.0284924241
   10      C      -3.6941822978     1.2090755987    -0.0933705404
   11      C      -3.7051657828    -0.1765657887    -0.0882764930
   12      C      -2.4997332137    -0.8812382374    -0.0209446182
   13      O      -2.5593499674    -2.2203177073    -0.0210222461
   14      C      -1.2664019899    -0.1690918241     0.0409480415
   15      C      -0.0000006331    -0.8982085862     0.0716399327
   16      O      -0.0000045700    -2.1589177867     0.0995164430
   17      C       1.2664039535    -0.1690904854     0.0409544252
   18      H       1.6336469256    -2.5553096920     0.0298599740
   19      H       4.6285878063    -0.7399208652    -0.1370193852
   20      H       4.6336869774     1.7479975174    -0.1489933417
   21      H       2.5054483124     3.0054246761    -0.0305121694
   22      H       0.0000123391     2.8284438304    -0.5880229204
   23      H      -0.0000019603     2.5334969833     1.1296084775
   24      H      -2.5054639745     3.0054363417    -0.0304625690
   25      H      -4.6336789233     1.7480100120    -0.1489349883
   26      H      -4.6285734115    -0.7399105067    -0.1370475368
   27      H      -1.6337124875    -2.5553839873     0.0299676338
 ----------------------------------------------------------------

    9    -765.4319598885      3.22e-06  Convergence criterion met
 Total energy in the final basis set =     -765.4319598885
    5    -765.4453372301      4.48e-06  Convergence criterion met
 Total energy in the final basis set =     -765.4453372301

                    Orbital Energies (a.u.)
 --------------------------------------------------------------

 Alpha MOs
 -- Occupied --
-19.1583 -19.1583 -19.1392 -10.2878 -10.2594 -10.2594 -10.2094 -10.2094
-10.2000 -10.2000 -10.1933 -10.1933 -10.1928 -10.1794 -10.1794 -10.1781
-10.1781  -1.0925  -1.0800  -1.0530  -0.8917  -0.8683  -0.8132  -0.7828
 -0.7666  -0.7565  -0.7125  -0.6640  -0.6567  -0.6155  -0.6105  -0.5833
 -0.5467  -0.5396  -0.5382  -0.4963  -0.4870  -0.4842  -0.4698  -0.4595
 -0.4527  -0.4378  -0.4320  -0.4299  -0.4252  -0.4124  -0.4039  -0.4003
 -0.3872  -0.3813  -0.3592  -0.3576  -0.3540  -0.3434  -0.2880  -0.2826
 -0.2715  -0.2413  -0.2372

          Ground-State Mulliken Net Atomic Charges

     Atom                 Charge (a.u.)
  ----------------------------------------
      1 O                    -0.349721
      2 C                     0.071021
      3 C                    -0.328197
      4 C                    -0.215994
      5 C                    -0.304092
      6 C                    -0.603724
      7 C                    -0.504063
      8 C                    -0.603464
      9 C                    -0.304045
     10 C                    -0.216310
     11 C                    -0.327645
     12 C                     0.071275
     13 O                    -0.349804
     14 C                     1.049395
     15 C                    -0.229479
     16 O                    -0.413967
     17 C                     1.050572
     18 H                     0.389435
     19 H                     0.220023
     20 H                     0.224287
     21 H                     0.203626
     22 H                     0.180668
     23 H                     0.252922
     24 H                     0.203538
     25 H                     0.224248
     26 H                     0.220039
     27 H                     0.389458
  ----------------------------------------
  Sum of atomic charges =     0.000000

                    Cartesian Multipole Moments
 -----------------------------------------------------------------
    Charge (ESU x 10^10)
                 0.0000
    Dipole Moment (Debye)
         X      -0.0008      Y       6.6500      Z       0.1420
       Tot       6.6515
    Quadrupole Moments (Debye-Ang)
        XX     -91.1577     XY      -0.0017     YY     -95.2297
        XZ      -0.0008     YZ       0.3205     ZZ    -101.9567

 Total job time:  62.15s(wall), 456.47s(cpu)
        *  Thank you very much for using Q-Chem.  Have a nice day.  *
