 Q-Chem 5.4, Q-Chem, Inc., Pleasanton, CA (2021)
 Q-Chem 5.4.0 for Intel X86 EM64T Linux

User input:
--------------------------------------------------------------
$molecule
-1 2
C                 -1.1308510000      2.9739070000     -0.5394750000
C                 -2.4469130000      2.5514870000     -0.3956550000
C                 -2.7348750000      1.2470080000      0.0177990000
C                 -0.0732070000      2.0827680000     -0.2607130000
C                 -0.3650120000      0.7557140000      0.1421650000
C                 -1.7100600000      0.3478060000      0.2679410000
C                  1.3238420000      2.5646460000     -0.4074890000
C                  2.3691290000      1.6036170000     -0.1071500000
C                  2.0571140000      0.3040090000      0.2789200000
C                  0.7279290000     -0.1825710000      0.4582690000
O                  1.5176570000      3.7364220000     -0.7835180000
O                  0.4813240000     -1.3435600000      0.8809660000
H                 -3.7666320000      0.9307200000      0.1270240000
H                  2.8531130000     -0.3950650000      0.5010530000
C                 -2.0886470000     -1.0486910000      0.6720980000
O                 -2.5569700000     -1.3521830000      1.7448140000
O                 -1.9985460000     -1.9034040000     -0.3715980000
C                 -2.1578260000     -3.2888290000     -0.0446240000
H                 -3.2569120000      3.2362180000     -0.6218140000
H                 -2.0650240000     -3.8253910000     -0.9878930000
H                 -3.1335900000     -3.4760200000      0.4087460000
H                 -1.3678690000     -3.5908130000      0.6455920000
C                  3.7837780000      2.0278180000     -0.1663870000
O                  4.2282290000      3.1434260000     -0.0177570000
O                  4.6228360000      0.9579950000     -0.3924420000
C                 -0.9502940000      4.3777730000     -1.0783310000
O                 -1.1533680000      4.6367040000     -2.2382830000
O                 -0.8184880000      5.4006320000     -0.1939380000
C                 -0.3609710000      5.1582940000      1.1427770000
C                  6.0160280000      1.2683090000     -0.3953910000
H                 -0.5317740000      6.0904810000      1.6814470000
H                  0.7023670000      4.9187700000      1.1282670000
H                 -0.9232770000      4.3531020000      1.6217080000
H                  6.5271490000      0.3250210000     -0.5874940000
H                  6.3295440000      1.6798200000      0.5675050000
H                  6.2537960000      1.9946700000     -1.1760690000
$end

$rem
BASIS  =  6-311++G(d,p)
GUI  =  2
JOB_TYPE  =  SP
METHOD  =  B3LYP
SCF_CONVERGENCE  = 8
SOLVENT_METHOD = sm12
$end

$smx
solvent dimethylformamide
charges CM5
$end

--------------------------------------------------------------

             Standard Nuclear Orientation (Angstroms)
    I     Atom           X                Y                Z
 ----------------------------------------------------------------
    1      C      -1.1308510000     2.9739070000    -0.5394750000
    2      C      -2.4469130000     2.5514870000    -0.3956550000
    3      C      -2.7348750000     1.2470080000     0.0177990000
    4      C      -0.0732070000     2.0827680000    -0.2607130000
    5      C      -0.3650120000     0.7557140000     0.1421650000
    6      C      -1.7100600000     0.3478060000     0.2679410000
    7      C       1.3238420000     2.5646460000    -0.4074890000
    8      C       2.3691290000     1.6036170000    -0.1071500000
    9      C       2.0571140000     0.3040090000     0.2789200000
   10      C       0.7279290000    -0.1825710000     0.4582690000
   11      O       1.5176570000     3.7364220000    -0.7835180000
   12      O       0.4813240000    -1.3435600000     0.8809660000
   13      H      -3.7666320000     0.9307200000     0.1270240000
   14      H       2.8531130000    -0.3950650000     0.5010530000
   15      C      -2.0886470000    -1.0486910000     0.6720980000
   16      O      -2.5569700000    -1.3521830000     1.7448140000
   17      O      -1.9985460000    -1.9034040000    -0.3715980000
   18      C      -2.1578260000    -3.2888290000    -0.0446240000
   19      H      -3.2569120000     3.2362180000    -0.6218140000
   20      H      -2.0650240000    -3.8253910000    -0.9878930000
   21      H      -3.1335900000    -3.4760200000     0.4087460000
   22      H      -1.3678690000    -3.5908130000     0.6455920000
   23      C       3.7837780000     2.0278180000    -0.1663870000
   24      O       4.2282290000     3.1434260000    -0.0177570000
   25      O       4.6228360000     0.9579950000    -0.3924420000
   26      C      -0.9502940000     4.3777730000    -1.0783310000
   27      O      -1.1533680000     4.6367040000    -2.2382830000
   28      O      -0.8184880000     5.4006320000    -0.1939380000
   29      C      -0.3609710000     5.1582940000     1.1427770000
   30      C       6.0160280000     1.2683090000    -0.3953910000
   31      H      -0.5317740000     6.0904810000     1.6814470000
   32      H       0.7023670000     4.9187700000     1.1282670000
   33      H      -0.9232770000     4.3531020000     1.6217080000
   34      H       6.5271490000     0.3250210000    -0.5874940000
   35      H       6.3295440000     1.6798200000     0.5675050000
   36      H       6.2537960000     1.9946700000    -1.1760690000
 ----------------------------------------------------------------

   17   -1219.1474138789      7.04e-09  Convergence criterion met
 Total energy in the final basis set =    -1219.2309633535

                    Orbital Energies (a.u.)
 --------------------------------------------------------------

 Alpha MOs
 -- Occupied --
-19.1635 -19.1612 -19.1589 -19.1137 -19.1073 -19.1067 -19.0896 -19.0885
-10.3089 -10.3084 -10.2978 -10.2436 -10.2331 -10.2186 -10.2161 -10.2159
-10.2073 -10.2051 -10.1994 -10.1989 -10.1973 -10.1964 -10.1876 -10.1804
 -1.1072  -1.0994  -1.0992  -1.0234  -1.0221  -1.0215  -1.0132  -1.0121
 -0.8855  -0.8298  -0.7973  -0.7742  -0.7317  -0.7226  -0.7198  -0.6951
 -0.6630  -0.6456  -0.6151  -0.5847  -0.5685  -0.5526  -0.5368  -0.5268
 -0.5193  -0.5034  -0.4944  -0.4804  -0.4793  -0.4761  -0.4746  -0.4734
 -0.4638  -0.4559  -0.4463  -0.4330  -0.4302  -0.4223  -0.4192  -0.4127
 -0.4078  -0.3999  -0.3947  -0.3898  -0.3878  -0.3803  -0.3727  -0.3674
 -0.3573  -0.3554  -0.3480  -0.3059  -0.3037  -0.2989  -0.2960  -0.2916
 -0.2862  -0.2848  -0.2716  -0.2619  -0.2544  -0.2440  -0.1704

 Beta MOs
 -- Occupied --
-19.1635 -19.1612 -19.1588 -19.1137 -19.1073 -19.1061 -19.0841 -19.0808
-10.3089 -10.3084 -10.2978 -10.2429 -10.2322 -10.2186 -10.2161 -10.2159
-10.2074 -10.2049 -10.1990 -10.1986 -10.1972 -10.1961 -10.1862 -10.1776
 -1.1071  -1.0992  -1.0989  -1.0220  -1.0215  -1.0169  -1.0090  -0.9995
 -0.8841  -0.8240  -0.7964  -0.7724  -0.7311  -0.7214  -0.7190  -0.6868
 -0.6625  -0.6428  -0.6129  -0.5842  -0.5677  -0.5519  -0.5356  -0.5253
 -0.5183  -0.5015  -0.4925  -0.4802  -0.4780  -0.4755  -0.4739  -0.4730
 -0.4634  -0.4547  -0.4458  -0.4283  -0.4246  -0.4200  -0.4160  -0.4078
 -0.4063  -0.3964  -0.3926  -0.3884  -0.3823  -0.3709  -0.3627  -0.3596
 -0.3570  -0.3548  -0.3471  -0.3050  -0.3021  -0.2987  -0.2939  -0.2868
 -0.2842  -0.2661  -0.2596  -0.2573  -0.2480  -0.2389

          Ground-State Mulliken Net Atomic Charges

     Atom                 Charge (a.u.)    Spin (a.u.)
  --------------------------------------------------------
      1 C                    -0.332007      -0.011932
      2 C                     1.123600       0.029594
      3 C                     1.149346       0.008242
      4 C                    -0.333999       0.021645
      5 C                    -0.147071       0.023545
      6 C                    -0.198740       0.014569
      7 C                    -2.043352       0.025873
      8 C                    -0.554635       0.083914
      9 C                    -0.182844       0.206164
     10 C                    -1.473638       0.059843
     11 O                    -0.260911       0.208915
     12 O                    -0.281516       0.284926
     13 H                     0.336982      -0.000604
     14 H                     0.172075      -0.016203
     15 C                     0.013183       0.003008
     16 O                    -0.173259       0.000801
     17 O                     0.048181      -0.001455
     18 C                     0.024530       0.001955
     19 H                     0.330043      -0.001860
     20 H                     0.248066       0.000210
     21 H                     0.192979      -0.000056
     22 H                     0.157966      -0.000536
     23 C                     1.050513       0.034814
     24 O                    -0.261443       0.022679
     25 O                    -0.058859       0.000163
     26 C                    -0.462541       0.000859
     27 O                    -0.287599       0.000036
     28 O                    -0.002082      -0.000215
     29 C                    -0.123319       0.000164
     30 C                     0.106783       0.000113
     31 H                     0.291605      -0.000666
     32 H                     0.139607       0.000106
     33 H                     0.135771       0.001097
     34 H                     0.260842       0.000083
     35 H                     0.207380      -0.000030
     36 H                     0.188363       0.000243
  --------------------------------------------------------
  Sum of atomic charges =    -1.000000

                    Cartesian Multipole Moments
 -----------------------------------------------------------------
    Charge (ESU x 10^10)
                -4.8032
    Dipole Moment (Debye)
         X      -2.4053      Y     -10.4646      Z       2.1044
       Tot      10.9417
    Quadrupole Moments (Debye-Ang)
        XX    -146.9801     XY     -13.7330     YY    -198.0070
        XZ       2.1632     YZ      32.3691     ZZ    -157.7564

 Total job time:  1483.63s(wall), 11477.67s(cpu)
        *  Thank you very much for using Q-Chem.  Have a nice day.  *
