 Q-Chem 5.4, Q-Chem, Inc., Pleasanton, CA (2021)
 Q-Chem 5.4.0 for Intel X86 EM64T Linux

User input:
--------------------------------------------------------------
$molecule
-2 1
O                 -0.0509080000     -1.5602180000     -2.3937620000
C                 -0.0275170000     -0.8456580000     -1.3298680000
C                  1.2062980000     -0.4614150000     -0.6723400000
C                  2.4280500000     -0.8836960000     -1.2144810000
C                  3.6652980000     -0.5625890000     -0.6510710000
C                  4.9116990000     -0.9912530000     -1.2015410000
C                  6.1131980000     -0.6599110000     -0.6255140000
C                  6.1392510000      0.1403470000      0.5660080000
C                  4.9629080000      0.5726880000      1.1265320000
C                  3.6917540000      0.2509630000      0.5595490000
C                  2.4789830000      0.6759960000      1.1067750000
C                  1.2328740000      0.3584590000      0.5483190000
C                  0.0276040000      0.8461110000      1.1895200000
O                  0.0507270000      1.5605250000      2.2538300000
C                 -1.2061640000      0.4616150000      0.5322250000
C                 -2.4281460000      0.8832270000      1.0748890000
C                 -3.6652500000      0.5622070000      0.5113630000
C                 -4.9119540000      0.9906480000      1.0618960000
C                 -6.1131620000      0.6593650000      0.4855310000
C                 -6.1392500000     -0.1407180000     -0.7061430000
C                 -4.9626300000     -0.5724070000     -1.2668360000
C                 -3.6918010000     -0.2503750000     -0.6997060000
C                 -2.4787980000     -0.6750480000     -1.2472570000
C                 -1.2330690000     -0.3578400000     -0.6884190000
H                  2.3768940000     -1.4878790000     -2.1161130000
H                  4.8884940000     -1.5977750000     -2.1045640000
H                  7.0464610000     -1.0006950000     -1.0665510000
H                  7.0922070000      0.4011070000      1.0194370000
H                  4.9794210000      1.1794840000      2.0295150000
H                  2.4671530000      1.2828050000      2.0080180000
H                 -2.3769000000      1.4871050000      1.9767000000
H                 -4.8889130000      1.5967520000      1.9651820000
H                 -7.0466130000      0.9993160000      0.9269100000
H                 -7.0921900000     -0.4009360000     -1.1598410000
H                 -4.9789490000     -1.1787620000     -2.1701040000
H                 -2.4670620000     -1.2815450000     -2.1486880000
$end
$rem
MAX_SCF_CYCLES=200
BASIS  =  6-311++G(d,p)
GUI  =  2
JOB_TYPE  =  SP
METHOD  =  B3LYP
THRESH = 14
SCF_CONVERGENCE = 8
SCF_ALGORITHM = RCA_DIIS
scf_guess = GWH
SOLVENT_METHOD = PCM
$end
$pcm
theory = CPCM
$end
$solvent
dielectric 37.219
opticaldielectric 1.43
$end

--------------------------------------------------------------

             Standard Nuclear Orientation (Angstroms)
    I     Atom           X                Y                Z
 ----------------------------------------------------------------
    1      O      -0.0509080000    -1.5602180000    -2.3937620000
    2      C      -0.0275170000    -0.8456580000    -1.3298680000
    3      C       1.2062980000    -0.4614150000    -0.6723400000
    4      C       2.4280500000    -0.8836960000    -1.2144810000
    5      C       3.6652980000    -0.5625890000    -0.6510710000
    6      C       4.9116990000    -0.9912530000    -1.2015410000
    7      C       6.1131980000    -0.6599110000    -0.6255140000
    8      C       6.1392510000     0.1403470000     0.5660080000
    9      C       4.9629080000     0.5726880000     1.1265320000
   10      C       3.6917540000     0.2509630000     0.5595490000
   11      C       2.4789830000     0.6759960000     1.1067750000
   12      C       1.2328740000     0.3584590000     0.5483190000
   13      C       0.0276040000     0.8461110000     1.1895200000
   14      O       0.0507270000     1.5605250000     2.2538300000
   15      C      -1.2061640000     0.4616150000     0.5322250000
   16      C      -2.4281460000     0.8832270000     1.0748890000
   17      C      -3.6652500000     0.5622070000     0.5113630000
   18      C      -4.9119540000     0.9906480000     1.0618960000
   19      C      -6.1131620000     0.6593650000     0.4855310000
   20      C      -6.1392500000    -0.1407180000    -0.7061430000
   21      C      -4.9626300000    -0.5724070000    -1.2668360000
   22      C      -3.6918010000    -0.2503750000    -0.6997060000
   23      C      -2.4787980000    -0.6750480000    -1.2472570000
   24      C      -1.2330690000    -0.3578400000    -0.6884190000
   25      H       2.3768940000    -1.4878790000    -2.1161130000
   26      H       4.8884940000    -1.5977750000    -2.1045640000
   27      H       7.0464610000    -1.0006950000    -1.0665510000
   28      H       7.0922070000     0.4011070000     1.0194370000
   29      H       4.9794210000     1.1794840000     2.0295150000
   30      H       2.4671530000     1.2828050000     2.0080180000
   31      H      -2.3769000000     1.4871050000     1.9767000000
   32      H      -4.8889130000     1.5967520000     1.9651820000
   33      H      -7.0466130000     0.9993160000     0.9269100000
   34      H      -7.0921900000    -0.4009360000    -1.1598410000
   35      H      -4.9789490000    -1.1787620000    -2.1701040000
   36      H      -2.4670620000    -1.2815450000    -2.1486880000
 ----------------------------------------------------------------

  120    -996.5430632510      8.23E-09 Convergence criterion met
 Total energy in the final basis set = -996.54306325

                    Orbital Energies (a.u.)
 --------------------------------------------------------------

 Alpha MOs
 -- Occupied --
-19.0299 -19.0298 -10.1814 -10.1813 -10.1643 -10.1643 -10.1642 -10.1642
-10.1639 -10.1639 -10.1637 -10.1637 -10.1626 -10.1626 -10.1622 -10.1622
-10.1507 -10.1507 -10.1506 -10.1506 -10.1452 -10.1452 -10.1449 -10.1449
 -0.9503  -0.9472  -0.8552  -0.8543  -0.8097  -0.7975  -0.7588  -0.7585
 -0.7467  -0.7140  -0.7094  -0.7049  -0.6412  -0.6378  -0.6014  -0.5978
 -0.5784  -0.5701  -0.5486  -0.5246  -0.5041  -0.4984  -0.4948  -0.4583
 -0.4478  -0.4459  -0.4321  -0.4287  -0.4167  -0.4154  -0.4015  -0.3984
 -0.3936  -0.3909  -0.3832  -0.3769  -0.3740  -0.3735  -0.3567  -0.3559
 -0.3446  -0.3363  -0.3362  -0.3205  -0.3108  -0.3087  -0.3011  -0.2847
 -0.2780  -0.2723  -0.2299  -0.2209  -0.2121  -0.2068  -0.2051  -0.2046
 -0.1041

          Ground-State Mulliken Net Atomic Charges

     Atom                 Charge (a.u.)
  ----------------------------------------
      1 O                    -0.645590
      2 C                    -0.575317
      3 C                     0.249317
      4 C                    -0.019395
      5 C                     0.056797
      6 C                    -0.260991
      7 C                    -0.397200
      8 C                    -0.395642
      9 C                    -0.260737
     10 C                     0.056430
     11 C                    -0.015514
     12 C                     0.245862
     13 C                    -0.573543
     14 O                    -0.646578
     15 C                     0.248508
     16 C                    -0.019323
     17 C                     0.058113
     18 C                    -0.262071
     19 C                    -0.396772
     20 C                    -0.396079
     21 C                    -0.259719
     22 C                     0.055248
     23 C                    -0.015644
     24 C                     0.247301
     25 H                     0.127381
     26 H                     0.162975
     27 H                     0.190166
     28 H                     0.190249
     29 H                     0.162746
     30 H                     0.127695
     31 H                     0.127400
     32 H                     0.162958
     33 H                     0.190185
     34 H                     0.190258
     35 H                     0.162791
     36 H                     0.127733
  ----------------------------------------
  Sum of atomic charges =    -2.000000

                    Cartesian Multipole Moments
 -----------------------------------------------------------------
    Charge (ESU x 10^10)
                -9.6064
    Dipole Moment (Debye)
         X      -0.0057      Y      -0.0103      Z       0.6585
       Tot       0.6586
    Quadrupole Moments (Debye-Ang)
        XX    -181.7604     XY       0.7574     YY    -166.8338
        XZ      -0.7652     YZ     -17.7686     ZZ    -181.3863

 Total job time:  2323.44s(wall), 14916.64s(cpu)
        *  Thank you very much for using Q-Chem.  Have a nice day.  *
