 Q-Chem 5.4, Q-Chem, Inc., Pleasanton, CA (2021)
 Q-Chem 5.4.0 for Intel X86 EM64T Linux

User input:
--------------------------------------------------------------
$molecule
-2 1
C                 -1.6185600000      2.7937480000      0.0562750000
C                 -2.8767670000      2.2346720000      0.0912690000
C                 -3.0034250000      0.8222990000      0.0936790000
C                 -0.4458480000      2.0000940000      0.0197960000
C                 -0.5652300000      0.5479320000      0.0229940000
C                 -1.8899710000     -0.0081380000      0.0618340000
C                  0.8335870000      2.6891710000     -0.0122400000
C                  1.9711700000      1.8355850000     -0.0438700000
C                  1.8702280000      0.4214760000     -0.0342610000
C                  0.6303390000     -0.2871180000     -0.0200190000
O                  0.9123200000      3.9891300000     -0.0055070000
O                  0.5821720000     -1.5894380000     -0.0502240000
C                  3.3244010000      2.5081490000     -0.0809240000
C                  3.1224140000     -0.4251860000     -0.0612430000
C                 -2.1434360000     -1.5044470000      0.0777110000
H                 -1.4645670000      3.8685020000      0.0547040000
H                 -3.7668300000      2.8630470000      0.1173100000
H                 -3.9947890000      0.3701280000      0.1247710000
H                  3.1652910000      3.5791310000     -0.2321510000
H                  3.9689110000      2.1164570000     -0.8817170000
H                  3.8905560000      2.3809720000      0.8600510000
H                  3.8742840000     -0.0864430000      0.6658280000
H                  3.6222100000     -0.4183490000     -1.0483240000
H                  2.8401100000     -1.4589070000      0.1540820000
H                 -1.6610100000     -1.9845960000      0.9319220000
H                 -1.7099060000     -1.9956100000     -0.7956350000
H                 -3.2279360000     -1.6926620000      0.1121680000
$end

$rem
BASIS  =  6-311++G(d,p)
GUI  =  2
JOB_TYPE  =  SP
METHOD  =  B3LYP
SCF_CONVERGENCE  = 8
SOLVENT_METHOD = sm12
$end

$smx
solvent dimethylformamide
charges CM5
$end

--------------------------------------------------------------

             Standard Nuclear Orientation (Angstroms)
    I     Atom           X                Y                Z
 ----------------------------------------------------------------
    1      C      -1.6185600000     2.7937480000     0.0562750000
    2      C      -2.8767670000     2.2346720000     0.0912690000
    3      C      -3.0034250000     0.8222990000     0.0936790000
    4      C      -0.4458480000     2.0000940000     0.0197960000
    5      C      -0.5652300000     0.5479320000     0.0229940000
    6      C      -1.8899710000    -0.0081380000     0.0618340000
    7      C       0.8335870000     2.6891710000    -0.0122400000
    8      C       1.9711700000     1.8355850000    -0.0438700000
    9      C       1.8702280000     0.4214760000    -0.0342610000
   10      C       0.6303390000    -0.2871180000    -0.0200190000
   11      O       0.9123200000     3.9891300000    -0.0055070000
   12      O       0.5821720000    -1.5894380000    -0.0502240000
   13      C       3.3244010000     2.5081490000    -0.0809240000
   14      C       3.1224140000    -0.4251860000    -0.0612430000
   15      C      -2.1434360000    -1.5044470000     0.0777110000
   16      H      -1.4645670000     3.8685020000     0.0547040000
   17      H      -3.7668300000     2.8630470000     0.1173100000
   18      H      -3.9947890000     0.3701280000     0.1247710000
   19      H       3.1652910000     3.5791310000    -0.2321510000
   20      H       3.9689110000     2.1164570000    -0.8817170000
   21      H       3.8905560000     2.3809720000     0.8600510000
   22      H       3.8742840000    -0.0864430000     0.6658280000
   23      H       3.6222100000    -0.4183490000    -1.0483240000
   24      H       2.8401100000    -1.4589070000     0.1540820000
   25      H      -1.6610100000    -1.9845960000     0.9319220000
   26      H      -1.7099060000    -1.9956100000    -0.7956350000
   27      H      -3.2279360000    -1.6926620000     0.1121680000
 ----------------------------------------------------------------

   18    -653.1973515311      2.35e-09  Convergence criterion met
 Total energy in the final basis set =     -653.4848024173

                    Orbital Energies (a.u.)
 --------------------------------------------------------------

 Alpha MOs
 -- Occupied --
-19.0194 -19.0176 -10.1818 -10.1810 -10.1776 -10.1707 -10.1662 -10.1639
-10.1622 -10.1620 -10.1607 -10.1583 -10.1517 -10.1429 -10.1415  -0.9335
 -0.9299  -0.8429  -0.7955  -0.7651  -0.7434  -0.7181  -0.6835  -0.6603
 -0.6374  -0.5791  -0.5743  -0.5242  -0.4944  -0.4776  -0.4544  -0.4428
 -0.4273  -0.4141  -0.4107  -0.3975  -0.3946  -0.3859  -0.3810  -0.3716
 -0.3702  -0.3659  -0.3558  -0.3428  -0.3234  -0.3216  -0.3129  -0.3119
 -0.2398  -0.2310  -0.2162  -0.2002  -0.1924  -0.1189

          Ground-State Mulliken Net Atomic Charges

     Atom                 Charge (a.u.)
  ----------------------------------------
      1 C                    -0.476293
      2 C                     1.776288
      3 C                     1.046616
      4 C                    -2.155729
      5 C                    -0.333166
      6 C                    -0.535387
      7 C                    -2.899756
      8 C                    -0.592196
      9 C                     0.328458
     10 C                    -3.270575
     11 O                    -0.347576
     12 O                    -0.271821
     13 C                     0.825308
     14 C                     1.005243
     15 C                     1.354778
     16 H                     0.084299
     17 H                     0.420690
     18 H                     0.272947
     19 H                     0.216007
     20 H                     0.221114
     21 H                     0.178644
     22 H                     0.220062
     23 H                     0.165594
     24 H                     0.218058
     25 H                     0.111529
     26 H                     0.114700
     27 H                     0.322163
  ----------------------------------------
  Sum of atomic charges =    -2.000000

                    Cartesian Multipole Moments
 -----------------------------------------------------------------
    Charge (ESU x 10^10)
                -9.6064
    Dipole Moment (Debye)
         X      -3.9479      Y     -12.3281      Z       0.1145
       Tot      12.9453
    Quadrupole Moments (Debye-Ang)
        XX    -129.3106     XY      -6.9964     YY    -172.2418
        XZ       0.7606     YZ      -0.4153     ZZ    -102.8158

 Total job time:  678.84s(wall), 4639.57s(cpu)
        *  Thank you very much for using Q-Chem.  Have a nice day.  *
