 Q-Chem 5.4, Q-Chem, Inc., Pleasanton, CA (2021)
 Q-Chem 5.4.0 for Intel X86 EM64T Linux

User input:
--------------------------------------------------------------
$molecule
-1 2
C                  6.6523390000      0.5036190000      0.8131260000
C                  5.1776190000      0.4178430000      0.4985610000
C                  4.5223110000      1.4303710000     -0.2169030000
C                  3.1793770000      1.3380560000     -0.5472480000
C                  2.4003170000      0.2195840000     -0.1691760000
N                  1.0603050000      0.2328950000     -0.5068990000
C                  0.1058470000     -0.7840310000     -0.4266320000
C                  0.4505330000     -2.1219180000     -0.5659130000
C                 -0.5210200000     -3.1240500000     -0.4876040000
C                 -1.8550040000     -2.8201000000     -0.2709750000
O                 -2.7638940000     -3.8465380000     -0.1748360000
C                 -2.2800650000     -1.4677520000     -0.1645960000
C                 -3.7007480000     -1.1476240000      0.0489020000
O                 -4.5921130000     -2.0118140000      0.1659140000
C                 -4.0507960000      0.2796590000      0.1246980000
C                 -5.3962880000      0.6416690000      0.3395540000
C                 -5.7750710000      1.9683810000      0.4086900000
C                 -4.8051930000      2.9826150000      0.2599150000
C                 -3.4834320000      2.6483420000      0.0464100000
C                 -3.0779180000      1.2950390000     -0.0218910000
C                 -1.6744760000      0.9797440000     -0.2455380000
O                 -0.8482940000      1.9382120000     -0.4235190000
C                 -1.2829930000     -0.4237710000     -0.2695240000
C                  3.0527360000     -0.7890470000      0.5676780000
C                  4.4054610000     -0.6795180000      0.8847880000
H                  6.9218370000     -0.1702880000      1.6313920000
H                  7.2722770000      0.2303660000     -0.0503560000
H                  6.9423440000      1.5171640000      1.1087300000
H                  5.0781830000      2.3117360000     -0.5267330000
H                  2.7001460000      2.1376790000     -1.1023740000
H                  0.5947340000      1.1544880000     -0.5810490000
H                  1.4759980000     -2.3965650000     -0.7704940000
H                 -0.2246630000     -4.1650510000     -0.5997100000
H                 -2.2700930000     -4.6669430000     -0.2806540000
H                 -6.1161120000     -0.1612750000      0.4459880000
H                 -6.8152580000      2.2314760000      0.5757660000
H                 -5.0999790000      4.0265510000      0.3133870000
H                 -2.7192890000      3.4065510000     -0.0732100000
H                  2.4935860000     -1.6404750000      0.9290800000
H                  4.8667510000     -1.4752810000      1.4645250000
$end
$rem
MAX_SCF_CYCLES=200
BASIS  =  6-311++G(d,p)
GUI  =  2
JOB_TYPE  =  SP
THRESH = 14
SCF_CONVERGENCE = 8
METHOD  =  B3LYP
SOLVENT_METHOD = COSMO
$end
$solvent
dielectric 37.219
opticaldielectric 1.43
$end

--------------------------------------------------------------

             Standard Nuclear Orientation (Angstroms)
    I     Atom           X                Y                Z
 ----------------------------------------------------------------
    1      C      -7.1960113252    -0.6384715091     0.6471535044
    2      C      -5.7151449685    -0.5422814964     0.3662797694
    3      C      -5.0458445108    -1.5268120857    -0.3748455081
    4      C      -3.6964120079    -1.4233044965    -0.6739102265
    5      C      -2.9247150991    -0.3214862113    -0.2364940830
    6      N      -1.5781015268    -0.3232305732    -0.5471305454
    7      C      -0.6250168220     0.6885713644    -0.4076395455
    8      C      -0.9661833810     2.0313200478    -0.5013444676
    9      C       0.0040259725     3.0283946747    -0.3640416064
   10      C       1.3331772363     2.7145165813    -0.1323856140
   11      O       2.2403841018     3.7352582682     0.0224072123
   12      C       1.7553663974     1.3585067602    -0.0704813669
   13      C       3.1712551208     1.0284771581     0.1591773003
   14      O       4.0604413197     1.8862995465     0.3281044474
   15      C       3.5190364509    -0.4011174313     0.1860632542
   16      C       4.8597031000    -0.7729558095     0.4139057863
   17      C       5.2363949377    -2.1018317430     0.4386664669
   18      C       4.2692915789    -3.1082395039     0.2305259984
   19      C       2.9523108465    -2.7641994835     0.0034287075
   20      C       2.5488886219    -1.4087522233    -0.0199993529
   21      C       1.1504420605    -1.0831757592    -0.2596356310
   22      O       0.3276256690    -2.0328958773    -0.4918418399
   23      C       0.7601671186     0.3206905352    -0.2365375781
   24      C      -3.5915650817     0.6583084512     0.5259063256
   25      C      -4.9505244984     0.5381310692     0.8108747103
   26      H      -7.4818320415     0.0031860202     1.4855574623
   27      H      -7.7980893754    -0.3308106678    -0.2173916468
   28      H      -7.4924439244    -1.6624586914     0.8968254023
   29      H      -5.5956836331    -2.3946599362    -0.7302461560
   30      H      -3.2063245933    -2.2011570113    -1.2500907196
   31      H      -1.1115340394    -1.2417922664    -0.6478650067
   32      H      -1.9871387965     2.3150588365    -0.7158326159
   33      H      -0.2895106112     4.0733600867    -0.4412547553
   34      H       1.7492161688     4.5597983513    -0.0611927512
   35      H       5.5775718522     0.0242972374     0.5663718103
   36      H       6.2728392858    -2.3725759950     0.6164388693
   37      H       4.5624517356    -4.1538377439     0.2490153357
   38      H       2.1904215036    -3.5161796127    -0.1613586434
   39      H      -3.0395138214     1.4942170404     0.9317215592
   40      H      -5.4231782302     1.3111395289     1.4118560549
 ----------------------------------------------------------------

   22   -1090.0643785552      4.77e-09  Convergence criterion met
 Total energy in the final basis set =    -1090.0643785552
   14   -1090.1514608060      8.01e-09  Convergence criterion met
 Total energy in the final basis set =    -1090.1514608060

                    Orbital Energies (a.u.)
 --------------------------------------------------------------

 Alpha MOs
 -- Occupied --
-19.1481 -19.0820 -19.0757 -14.3196 -10.2336 -10.2310 -10.2293 -10.2167
-10.2147 -10.1825 -10.1806 -10.1735 -10.1728 -10.1725 -10.1720 -10.1718
-10.1712 -10.1695 -10.1694 -10.1694 -10.1690 -10.1689 -10.1673 -10.1663
-10.1598  -1.0606  -1.0098  -1.0074  -0.9429  -0.8621  -0.8549  -0.8386
 -0.7868  -0.7697  -0.7512  -0.7466  -0.7422  -0.7304  -0.6792  -0.6690
 -0.6415  -0.6301  -0.6115  -0.5974  -0.5799  -0.5673  -0.5539  -0.5429
 -0.5153  -0.5088  -0.4824  -0.4755  -0.4672  -0.4604  -0.4591  -0.4444
 -0.4351  -0.4344  -0.4270  -0.4231  -0.4173  -0.4154  -0.4132  -0.4092
 -0.4025  -0.3963  -0.3880  -0.3838  -0.3792  -0.3734  -0.3667  -0.3544
 -0.3536  -0.3499  -0.3427  -0.3379  -0.3344  -0.3030  -0.2708  -0.2573
 -0.2559  -0.2534  -0.2511  -0.2405  -0.2358  -0.1904  -0.1400

 Beta MOs
 -- Occupied --
-19.1478 -19.0771 -19.0709 -14.3192 -10.2335 -10.2297 -10.2269 -10.2162
-10.2147 -10.1824 -10.1799 -10.1731 -10.1727 -10.1722 -10.1713 -10.1712
-10.1701 -10.1695 -10.1693 -10.1691 -10.1690 -10.1685 -10.1672 -10.1662
-10.1598  -1.0600  -1.0015  -0.9989  -0.9416  -0.8600  -0.8541  -0.8376
 -0.7829  -0.7690  -0.7491  -0.7460  -0.7408  -0.7288  -0.6779  -0.6631
 -0.6398  -0.6279  -0.6108  -0.5970  -0.5790  -0.5653  -0.5522  -0.5421
 -0.5144  -0.5077  -0.4792  -0.4744  -0.4669  -0.4591  -0.4583  -0.4432
 -0.4341  -0.4288  -0.4244  -0.4225  -0.4165  -0.4147  -0.4103  -0.4069
 -0.3957  -0.3912  -0.3867  -0.3820  -0.3753  -0.3663  -0.3614  -0.3533
 -0.3493  -0.3476  -0.3369  -0.3342  -0.3333  -0.2989  -0.2557  -0.2530
 -0.2512  -0.2493  -0.2464  -0.2358  -0.2311  -0.1834

          Ground-State Mulliken Net Atomic Charges

     Atom                 Charge (a.u.)    Spin (a.u.)
  --------------------------------------------------------
      1 C                    -0.599134      -0.000678
      2 C                     0.452442       0.008065
      3 C                    -0.252487      -0.004299
      4 C                    -0.563398       0.007502
      5 C                    -0.236523      -0.010787
      6 N                     0.013212       0.020641
      7 C                     0.078722       0.042372
      8 C                    -0.175673       0.061142
      9 C                    -0.406406       0.080923
     10 C                    -0.388759       0.021693
     11 O                    -0.263865       0.005878
     12 C                     0.483279       0.044343
     13 C                    -0.261229       0.066992
     14 O                    -0.472317       0.180883
     15 C                     0.013100       0.038203
     16 C                     0.078340       0.012977
     17 C                    -0.560179       0.046528
     18 C                    -0.547326       0.017495
     19 C                    -0.021437       0.042544
     20 C                     0.051108      -0.010733
     21 C                    -0.151948       0.132452
     22 O                    -0.453362       0.182684
     23 C                     0.368739       0.017196
     24 C                     0.187181       0.012827
     25 C                    -0.595016       0.000939
     26 H                     0.159600       0.000082
     27 H                     0.176557       0.000549
     28 H                     0.153561       0.000141
     29 H                     0.204048       0.000213
     30 H                     0.172697      -0.000924
     31 H                     0.478552       0.001087
     32 H                     0.217752      -0.005683
     33 H                     0.201390      -0.006911
     34 H                     0.313026      -0.000726
     35 H                     0.176273      -0.000368
     36 H                     0.201903      -0.003570
     37 H                     0.204732      -0.001684
     38 H                     0.168749      -0.002264
     39 H                     0.200009       0.002109
     40 H                     0.194085       0.000169
  --------------------------------------------------------
  Sum of atomic charges =    -1.000000

                    Cartesian Multipole Moments
 -----------------------------------------------------------------
    Charge (ESU x 10^10)
                -4.8032
    Dipole Moment (Debye)
         X     -10.6496      Y       0.7637      Z       0.1990
       Tot      10.6788
    Quadrupole Moments (Debye-Ang)
        XX    -187.1510     XY     -22.7836     YY    -147.7615
        XZ      -3.5243     YZ      -1.7929     ZZ    -155.0221

 Total job time:  873.84s(wall), 6523.22s(cpu)
        *  Thank you very much for using Q-Chem.  Have a nice day.  *
