 Gaussian 16, Revision A.03,
 Gaussian 16:  ES64L-G16RevA.03 25-Dec-2016

 ----------------------------------------------------------------------
 #P UB3LYP/6-311++G(d,p) nosym opt freq SCRF=(PCM,Solvent=n,n-DiMethylF
 ormamide)
 ----------------------------------------------------------------------

 --------
 Oxidized
 --------
 Symbolic Z-matrix:
 Charge =  0 Multiplicity = 1

 SCF Done:  E(UB3LYP) =  -613.928549535     A.U. after   15 cycles
 SCF Done:  E(UB3LYP) =  -613.928622456     A.U. after   11 cycles
 SCF Done:  E(UB3LYP) =  -613.928610290     A.U. after   10 cycles
 SCF Done:  E(UB3LYP) =  -613.928625583     A.U. after   10 cycles
 SCF Done:  E(UB3LYP) =  -613.928626207     A.U. after    9 cycles
 Optimization completed.
    -- Stationary point found.
 Normal termination of Gaussian 16 at Sun Feb 11 15:06:38 2024.

 ----------------------------------------------------------------------
 #P Geom=AllCheck Guess=TCheck SCRF=Check GenChk UB3LYP/6-311++G(d,p) F
 req
 ----------------------------------------------------------------------

 Structure from the checkpoint file:  "242.chk"
 --------
 Oxidized
 --------
 Charge =  0 Multiplicity = 1

                          Input orientation:
 ---------------------------------------------------------------------
 Center     Atomic      Atomic             Coordinates (Angstroms)
 Number     Number       Type             X           Y           Z
 ---------------------------------------------------------------------
      1          6           0       -4.043629    0.278032    0.268634
      2          6           0       -2.581024   -0.003667    0.042027
      3          6           0       -2.177992   -1.064171   -0.784958
      4          6           0       -0.833463   -1.330024   -1.010282
      5          6           0        0.152475   -0.539873   -0.411638
      6          6           0        1.588990   -0.829888   -0.656556
      7          8           0        1.946196   -1.751800   -1.379228
      8          6           0        2.612777    0.040940    0.006991
      9          6           0        2.214404    1.053492    0.799932
     10          6           0        0.800383    1.374001    1.067337
     11          8           0        0.506480    2.313161    1.800499
     12          6           0       -0.236479    0.523818    0.419661
     13          6           0       -1.590643    0.780960    0.638302
     14          6           0        4.051722   -0.275103   -0.258609
     15          1           0       -4.523974    0.599030   -0.660888
     16          1           0       -4.188378    1.062296    1.012698
     17          1           0       -4.566883   -0.620170    0.607724
     18          1           0       -2.930686   -1.687537   -1.255854
     19          1           0       -0.533690   -2.150969   -1.649682
     20          1           0        2.936341    1.697616    1.291439
     21          1           0       -1.863752    1.606568    1.284774
     22          1           0        4.265648   -0.218652   -1.329614
     23          1           0        4.283785   -1.297487    0.052437
     24          1           0        4.707392    0.415429    0.271578
 ---------------------------------------------------------------------

 SCF Done:  E(UB3LYP) =  -613.928626207     A.U. after    1 cycles

 Alpha  occ. eigenvalues --  -19.13661 -19.13444 -10.28457 -10.28308 -10.22148
 Alpha  occ. eigenvalues --  -10.20867 -10.20765 -10.20588 -10.20361 -10.19823
 Alpha  occ. eigenvalues --  -10.19521 -10.19484 -10.17866 -10.17462  -1.06778
 Alpha  occ. eigenvalues --   -1.06360  -0.89228  -0.85001  -0.80111  -0.77981
 Alpha  occ. eigenvalues --   -0.73419  -0.71738  -0.67010  -0.64901  -0.61188
 Alpha  occ. eigenvalues --   -0.58644  -0.54493  -0.52149  -0.50410  -0.46840
 Alpha  occ. eigenvalues --   -0.46305  -0.46084  -0.46078  -0.45024  -0.43411
 Alpha  occ. eigenvalues --   -0.42909  -0.42349  -0.41237  -0.40974  -0.40313
 Alpha  occ. eigenvalues --   -0.39227  -0.37596  -0.36737  -0.36423  -0.29859
 Alpha  occ. eigenvalues --   -0.28921  -0.27911  -0.27757  -0.26922
 Alpha virt. eigenvalues --   -0.12668  -0.05564  -0.03245  -0.00739   0.00121
 Alpha virt. eigenvalues --    0.01085   0.01965   0.02186   0.02438   0.02917
 Alpha virt. eigenvalues --    0.03819   0.04041   0.04389   0.05108   0.05912

  Beta  occ. eigenvalues --  -19.13661 -19.13444 -10.28457 -10.28308 -10.22148
  Beta  occ. eigenvalues --  -10.20867 -10.20765 -10.20588 -10.20361 -10.19823
  Beta  occ. eigenvalues --  -10.19521 -10.19484 -10.17866 -10.17462  -1.06778
  Beta  occ. eigenvalues --   -1.06360  -0.89228  -0.85001  -0.80111  -0.77981
  Beta  occ. eigenvalues --   -0.73419  -0.71738  -0.67010  -0.64901  -0.61188
  Beta  occ. eigenvalues --   -0.58644  -0.54493  -0.52149  -0.50410  -0.46840
  Beta  occ. eigenvalues --   -0.46305  -0.46084  -0.46078  -0.45024  -0.43411
  Beta  occ. eigenvalues --   -0.42909  -0.42349  -0.41237  -0.40974  -0.40313
  Beta  occ. eigenvalues --   -0.39227  -0.37596  -0.36737  -0.36423  -0.29859
  Beta  occ. eigenvalues --   -0.28921  -0.27911  -0.27757  -0.26922
  Beta virt. eigenvalues --   -0.12668  -0.05564  -0.03245  -0.00739   0.00121
  Beta virt. eigenvalues --    0.01085   0.01965   0.02186   0.02438   0.02917
  Beta virt. eigenvalues --    0.03819   0.04041   0.04389   0.05108   0.05912

 Mulliken charges and spin densities:
               1          2
     1  C   -0.384954   0.000000
     2  C    0.480632  -0.000000
     3  C   -0.397100   0.000000
     4  C    0.122136  -0.000000
     5  C   -0.217942   0.000000
     6  C   -0.474414  -0.000000
     7  O   -0.278406   0.000000
     8  C    0.745248  -0.000000
     9  C   -0.428165   0.000000
    10  C   -0.848364   0.000000
    11  O   -0.297164   0.000000
    12  C    0.568183  -0.000000
    13  C   -0.187968   0.000000
    14  C   -0.223548   0.000000
    15  H    0.180106  -0.000000
    16  H    0.176862  -0.000000
    17  H    0.167255  -0.000000
    18  H    0.204166   0.000000
    19  H    0.187008   0.000000
    20  H    0.199848   0.000000
    21  H    0.150502  -0.000000
    22  H    0.189668   0.000000
    23  H    0.189772   0.000000
    24  H    0.176639  -0.000000
 Sum of Mulliken charges =  -0.00000   0.00000

 Dipole moment (field-independent basis, Debye):
    X=             -1.8826    Y=             -0.8346    Z=             -0.6451  Tot=              2.1580
 Quadrupole moment (field-independent basis, Debye-Ang):
   XX=            -60.9908   YY=            -92.3080   ZZ=            -88.6189
   XY=              5.5884   XZ=              4.1442   YZ=             -7.6533

  Exact polarizability: 264.279 -12.019 196.415 -11.015  70.685 160.522
 Approx polarizability: 280.940 -23.226 252.112 -19.707  99.688 201.718

                      1                      2                      3
                      A                      A                      A
 Frequencies --     10.4251                50.5395                91.3679
 Red. masses --      1.0313                 4.9743                 4.5744
 Frc consts  --      0.0001                 0.0075                 0.0225
 IR Inten    --      0.4776                13.3326                 1.2562

                      4                      5                      6
                      A                      A                      A
 Frequencies --    134.7184               152.2424               188.5044
 Red. masses --      2.6918                 1.6704                 2.2339
 Frc consts  --      0.0288                 0.0228                 0.0468
 IR Inten    --      0.7956                 0.7249                 2.1359

                      7                      8                      9
                      A                      A                      A
 Frequencies --    202.2179               262.7294               291.4391
 Red. masses --      3.9931                 4.2350                 3.2296
 Frc consts  --      0.0962                 0.1722                 0.1616
 IR Inten    --      1.4417                 0.6887                 0.8405

                     10                     11                     12
                      A                      A                      A
 Frequencies --    345.8757               373.6443               377.1034
 Red. masses --      5.4624                 4.8166                 3.6403
 Frc consts  --      0.3850                 0.3962                 0.3050
 IR Inten    --      4.4677                 9.7446                 2.8422

                     13                     14                     15
                      A                      A                      A
 Frequencies --    408.0843               428.4259               462.9711
 Red. masses --      5.7948                 3.2600                 8.1449
 Frc consts  --      0.5686                 0.3525                 1.0286
 IR Inten    --     30.2480                 1.0636                 3.8239

                     16                     17                     18
                      A                      A                      A
 Frequencies --    519.1651               519.9906               600.9907
 Red. masses --      6.5514                 3.7681                 5.1597
 Frc consts  --      1.0404                 0.6003                 1.0980
 IR Inten    --     11.2250                10.5180                 5.0134

                     19                     20                     21
                      A                      A                      A
 Frequencies --    651.7987               692.5684               706.4000
 Red. masses --      4.4467                 3.6476                 3.5159
 Frc consts  --      1.1130                 1.0308                 1.0337
 IR Inten    --      4.2165                 0.0085                26.6788

                     22                     23                     24
                      A                      A                      A
 Frequencies --    720.0945               744.3176               793.7758
 Red. masses --      5.4717                 5.5110                 5.0663
 Frc consts  --      1.6717                 1.7989                 1.8808
 IR Inten    --      2.4889                 2.0891                 3.5995

                     25                     26                     27
                      A                      A                      A
 Frequencies --    854.7574               907.0591               912.2077
 Red. masses --      1.3740                 3.9169                 1.4748
 Frc consts  --      0.5915                 1.8987                 0.7231
 IR Inten    --     50.9198                 7.3135                27.1617

                     28                     29                     30
                      A                      A                      A
 Frequencies --    931.0883               948.1467              1005.7779
 Red. masses --      1.4013                 4.8292                 1.3580
 Frc consts  --      0.7158                 2.5579                 0.8094
 IR Inten    --      0.0911                80.4843                 0.6404

                     31                     32                     33
                      A                      A                      A
 Frequencies --   1014.3171              1033.0384              1055.6036
 Red. masses --      1.4618                 1.7301                 1.5471
 Frc consts  --      0.8861                 1.0878                 1.0157
 IR Inten    --     26.9790                22.7551                 4.7978

                     34                     35                     36
                      A                      A                      A
 Frequencies --   1061.5663              1101.5863              1140.7218
 Red. masses --      1.5773                 2.2111                 1.8121
 Frc consts  --      1.0472                 1.5809                 1.3893
 IR Inten    --     12.6269                 7.9447                 3.2295

                     37                     38                     39
                      A                      A                      A
 Frequencies --   1182.3200              1218.0506              1254.6192
 Red. masses --      2.3326                 2.4331                 1.8628
 Frc consts  --      1.9212                 2.1269                 1.7275
 IR Inten    --     23.0010                22.5899                31.6741

                     40                     41                     42
                      A                      A                      A
 Frequencies --   1279.1363              1311.8440              1348.8614
 Red. masses --      2.3593                 2.7521                 5.1308
 Frc consts  --      2.2744                 2.7905                 5.5001
 IR Inten    --    348.6709               298.2776                23.4155

                     43                     44                     45
                      A                      A                      A
 Frequencies --   1368.2790              1407.2532              1409.3139
 Red. masses --      2.6514                 1.2956                 1.2530
 Frc consts  --      2.9246                 1.5117                 1.4663
 IR Inten    --     75.8437                17.6923                 6.6293

                     46                     47                     48
                      A                      A                      A
 Frequencies --   1440.1115              1458.8159              1469.8169
 Red. masses --      2.6798                 1.0434                 1.0749
 Frc consts  --      3.2746                 1.3083                 1.3681
 IR Inten    --     30.5980                13.7587                23.9084

                     49                     50                     51
                      A                      A                      A
 Frequencies --   1474.5171              1487.4338              1517.1744
 Red. masses --      1.0462                 1.2414                 2.9628
 Frc consts  --      1.3402                 1.6182                 4.0182
 IR Inten    --     12.2302                 2.1172                 4.6766

                     52                     53                     54
                      A                      A                      A
 Frequencies --   1599.7456              1625.4604              1666.7139
 Red. masses --      6.6837                 6.1216                 9.2783
 Frc consts  --     10.0779                 9.5295                15.1860
 IR Inten    --     22.8600               465.6703               148.0638

                     55                     56                     57
                      A                      A                      A
 Frequencies --   1688.8283              1698.3891              3029.6265
 Red. masses --     10.3107                 9.9059                 1.0378
 Frc consts  --     17.3265                16.8352                 5.6123
 IR Inten    --    808.2857                94.4077                26.1776

                     58                     59                     60
                      A                      A                      A
 Frequencies --   3036.3730              3080.5791              3086.5781
 Red. masses --      1.0365                 1.0995                 1.0990
 Frc consts  --      5.6305                 6.1476                 6.1687
 IR Inten    --     11.1651                17.5899                10.5608

                     61                     62                     63
                      A                      A                      A
 Frequencies --   3114.4818              3126.7533              3170.6693
 Red. masses --      1.1015                 1.1026                 1.0898
 Frc consts  --      6.2949                 6.3512                 6.4552
 IR Inten    --     24.5852                18.4659                15.2735

                     64                     65                     66
                      A                      A                      A
 Frequencies --   3172.8276              3188.5714              3199.7549
 Red. masses --      1.0919                 1.0905                 1.0928
 Frc consts  --      6.4760                 6.5324                 6.5923
 IR Inten    --     10.7311                 5.8299                 6.8857

 - Thermochemistry -
 -------------------
 Temperature   298.150 Kelvin.  Pressure   1.00000 Atm.
 Atom     1 has atomic number  6 and mass  12.00000

 Molecular mass:   186.06808 amu.
 Principal axes and moments of inertia in atomic units:
                           1         2         3
     Eigenvalues --  1410.811013392.925534781.51622
           X            0.99886   0.04662   0.01005
           Y           -0.03066   0.78914  -0.61345
           Z           -0.03653   0.61245   0.78967
 This molecule is an asymmetric top.
 Rotational symmetry number  1.
 Warning -- assumption of classical behavior for rotation
           may cause significant error
 Rotational temperatures (Kelvin)      0.06139     0.02553     0.01811
 Rotational constants (GHZ):           1.27922     0.53191     0.37744
 Zero-point vibrational energy     489321.5 (Joules/Mol)
                                  116.95064 (Kcal/Mol)
 Warning -- explicit consideration of  18 degrees of freedom as
           vibrations may cause significant error
 Vibrational temperatures:     15.00    72.72   131.46   193.83   219.04
          (Kelvin)            271.22   290.95   378.01   419.32   497.64
                              537.59   542.57   587.14   616.41   666.11
                              746.96   748.15   864.69   937.79   996.45
                             1016.35  1036.06  1070.91  1142.07  1229.81
                             1305.06  1312.46  1339.63  1364.17  1447.09
                             1459.38  1486.31  1518.78  1527.36  1584.94
                             1641.24  1701.09  1752.50  1805.12  1840.39
                             1887.45  1940.71  1968.65  2024.72  2027.69
                             2072.00  2098.91  2114.74  2121.50  2140.09
                             2182.88  2301.68  2338.67  2398.03  2429.85
                             2443.60  4358.96  4368.66  4432.27  4440.90
                             4481.04  4498.70  4561.89  4564.99  4587.64
                             4603.73

 Zero-point correction=                           0.186373 (Hartree/Particle)
 Thermal correction to Energy=                    0.198765
 Thermal correction to Enthalpy=                  0.199709
 Thermal correction to Gibbs Free Energy=         0.145909
 Sum of electronic and zero-point Energies=           -613.742254
 Sum of electronic and thermal Energies=              -613.729861
 Sum of electronic and thermal Enthalpies=            -613.728917
 Sum of electronic and thermal Free Energies=         -613.782717

                     E (Thermal)             CV                S
                      KCal/Mol        Cal/Mol-Kelvin    Cal/Mol-Kelvin
 Total                  124.727             46.586            113.232
 Electronic               0.000              0.000              0.000
 Translational            0.889              2.981             41.569
 Rotational               0.889              2.981             31.504
 Vibrational            122.949             40.624             40.159
 Vibration     1          0.593              1.987              7.928
 Vibration     2          0.595              1.977              4.796
 Vibration     3          0.602              1.955              3.631
 Vibration     4          0.613              1.919              2.878
 Vibration     5          0.619              1.900              2.644
 Vibration     6          0.633              1.856              2.242
 Vibration     7          0.639              1.837              2.113
 Vibration     8          0.670              1.741              1.644
 Vibration     9          0.687              1.690              1.466
 Vibration    10          0.724              1.584              1.185
 Vibration    11          0.745              1.526              1.065
 Vibration    12          0.748              1.519              1.051
 Vibration    13          0.773              1.453              0.933
 Vibration    14          0.790              1.408              0.864
 Vibration    15          0.821              1.332              0.758
 Vibration    16          0.874              1.208              0.612
 Vibration    17          0.875              1.206              0.610
 Vibration    18          0.959              1.030              0.448

                           ! Non-Optimized Parameters !
 Normal termination of Gaussian 16 at Sun Feb 11 15:36:22 2024.
