 Q-Chem 5.4, Q-Chem, Inc., Pleasanton, CA (2021)
 Q-Chem 5.4.0 for Intel X86 EM64T Linux

User input:
--------------------------------------------------------------
$molecule
-1 2
C                 -1.2686180000      1.8203100000     -0.8581820000
C                 -2.5574510000      1.1630910000     -0.8026410000
C                 -2.8846650000      0.1161470000      0.0238780000
C                 -1.8536910000     -0.3885880000      0.9307500000
C                 -0.5650530000      0.2686640000      0.8752770000
C                 -0.2377970000      1.3157090000      0.0487300000
O                 -1.0803300000      2.7813940000     -1.6651250000
O                 -2.0421200000     -1.3498110000      1.7375070000
C                  1.1580340000      1.9626430000      0.0487930000
C                  1.0381390000      3.4622550000      0.4142330000
C                  2.1115860000      1.3047360000      1.0640630000
C                  1.7954200000      1.8286260000     -1.3557070000
C                 -4.2804230000     -0.5307730000      0.0239040000
C                 -5.2338710000      0.1270880000     -0.9914300000
C                 -4.9178530000     -0.3967270000      1.4283970000
C                 -4.1606040000     -2.0304400000     -0.3415060000
H                 -3.2798630000      1.5789130000     -1.4956520000
H                  0.1574960000     -0.1469980000      1.5682640000
H                  0.3868510000      3.9732800000     -0.2945180000
H                  2.0274070000      3.9375520000      0.4006360000
H                  0.6205990000      3.5778080000      1.4200280000
H                  1.7366340000      1.3885960000      2.0883190000
H                  3.0866420000      1.8027680000      1.0221380000
H                  2.2679080000      0.2438960000      0.8474400000
H                  2.7856820000      2.3018280000     -1.3708360000
H                  1.9203260000      0.7730030000     -1.6190150000
H                  1.1619620000      2.3025760000     -2.1052270000
H                 -4.8586310000      0.0433720000     -2.0156060000
H                 -5.3904470000      1.1879130000     -0.7748720000
H                 -6.2088960000     -0.3710390000     -0.9497970000
H                 -5.0424720000      0.6588970000      1.6918710000
H                 -4.2845450000     -0.8708850000      2.1779040000
H                 -5.9082520000     -0.8696240000      1.4434580000
H                 -3.7429140000     -2.1460740000     -1.3472230000
H                 -5.1499670000     -2.5055550000     -0.3281580000
H                 -3.5096510000     -2.5415980000      0.3674860000
$end

$rem
BASIS  =  6-311++G(d,p)
GUI  =  2
JOB_TYPE  =  SP
METHOD  =  B3LYP
SCF_CONVERGENCE  = 8
SOLVENT_METHOD = sm12
$end

$smx
solvent dimethylformamide
charges CM5
$end

--------------------------------------------------------------

             Standard Nuclear Orientation (Angstroms)
    I     Atom           X                Y                Z
 ----------------------------------------------------------------
    1      C      -1.2686180000     1.8203100000    -0.8581820000
    2      C      -2.5574510000     1.1630910000    -0.8026410000
    3      C      -2.8846650000     0.1161470000     0.0238780000
    4      C      -1.8536910000    -0.3885880000     0.9307500000
    5      C      -0.5650530000     0.2686640000     0.8752770000
    6      C      -0.2377970000     1.3157090000     0.0487300000
    7      O      -1.0803300000     2.7813940000    -1.6651250000
    8      O      -2.0421200000    -1.3498110000     1.7375070000
    9      C       1.1580340000     1.9626430000     0.0487930000
   10      C       1.0381390000     3.4622550000     0.4142330000
   11      C       2.1115860000     1.3047360000     1.0640630000
   12      C       1.7954200000     1.8286260000    -1.3557070000
   13      C      -4.2804230000    -0.5307730000     0.0239040000
   14      C      -5.2338710000     0.1270880000    -0.9914300000
   15      C      -4.9178530000    -0.3967270000     1.4283970000
   16      C      -4.1606040000    -2.0304400000    -0.3415060000
   17      H      -3.2798630000     1.5789130000    -1.4956520000
   18      H       0.1574960000    -0.1469980000     1.5682640000
   19      H       0.3868510000     3.9732800000    -0.2945180000
   20      H       2.0274070000     3.9375520000     0.4006360000
   21      H       0.6205990000     3.5778080000     1.4200280000
   22      H       1.7366340000     1.3885960000     2.0883190000
   23      H       3.0866420000     1.8027680000     1.0221380000
   24      H       2.2679080000     0.2438960000     0.8474400000
   25      H       2.7856820000     2.3018280000    -1.3708360000
   26      H       1.9203260000     0.7730030000    -1.6190150000
   27      H       1.1619620000     2.3025760000    -2.1052270000
   28      H      -4.8586310000     0.0433720000    -2.0156060000
   29      H      -5.3904470000     1.1879130000    -0.7748720000
   30      H      -6.2088960000    -0.3710390000    -0.9497970000
   31      H      -5.0424720000     0.6588970000     1.6918710000
   32      H      -4.2845450000    -0.8708850000     2.1779040000
   33      H      -5.9082520000    -0.8696240000     1.4434580000
   34      H      -3.7429140000    -2.1460740000    -1.3472230000
   35      H      -5.1499670000    -2.5055550000    -0.3281580000
   36      H      -3.5096510000    -2.5415980000     0.3674860000
 ----------------------------------------------------------------

   16    -696.2330155874      3.40e-09  Convergence criterion met
 Total energy in the final basis set =     -696.3114272097

                    Orbital Energies (a.u.)
 --------------------------------------------------------------

 Alpha MOs
 -- Occupied --
-19.0714 -19.0714 -10.2168 -10.2168 -10.1921 -10.1921 -10.1728 -10.1728
-10.1623 -10.1623 -10.1608 -10.1608 -10.1583 -10.1583 -10.1583 -10.1583
 -0.9937  -0.9914  -0.8406  -0.8288  -0.7928  -0.7313  -0.6915  -0.6903
 -0.6873  -0.6872  -0.6741  -0.6174  -0.5773  -0.5528  -0.5198  -0.4842
 -0.4738  -0.4648  -0.4429  -0.4407  -0.4380  -0.4357  -0.4239  -0.4159
 -0.4135  -0.4019  -0.3953  -0.3854  -0.3786  -0.3760  -0.3728  -0.3663
 -0.3598  -0.3563  -0.3440  -0.3378  -0.3358  -0.3356  -0.3319  -0.3262
 -0.2748  -0.2524  -0.2346  -0.2294  -0.1588

 Beta MOs
 -- Occupied --
-19.0642 -19.0642 -10.2156 -10.2156 -10.1922 -10.1922 -10.1716 -10.1716
-10.1623 -10.1623 -10.1598 -10.1598 -10.1583 -10.1583 -10.1582 -10.1582
 -0.9812  -0.9786  -0.8372  -0.8279  -0.7896  -0.7291  -0.6901  -0.6899
 -0.6870  -0.6870  -0.6653  -0.6146  -0.5739  -0.5516  -0.5173  -0.4826
 -0.4713  -0.4642  -0.4417  -0.4403  -0.4377  -0.4331  -0.4233  -0.4105
 -0.4067  -0.3979  -0.3889  -0.3852  -0.3754  -0.3730  -0.3701  -0.3627
 -0.3565  -0.3432  -0.3395  -0.3338  -0.3336  -0.3314  -0.3302  -0.3255
 -0.2448  -0.2412  -0.2280  -0.2231

          Ground-State Mulliken Net Atomic Charges

     Atom                 Charge (a.u.)    Spin (a.u.)
  --------------------------------------------------------
      1 C                    -1.845593       0.074291
      2 C                    -1.122244       0.062512
      3 C                     0.567643       0.107435
      4 C                    -1.845261       0.074343
      5 C                    -1.122362       0.062640
      6 C                     0.567405       0.107597
      7 O                    -0.285198       0.262150
      8 O                    -0.285215       0.262163
      9 C                     1.167061      -0.020186
     10 C                    -0.516485       0.013741
     11 C                     0.377995      -0.002130
     12 C                    -0.513365       0.013735
     13 C                     1.166507      -0.020145
     14 C                     0.378104      -0.002129
     15 C                    -0.513350       0.013726
     16 C                    -0.516438       0.013728
     17 H                     0.123578      -0.009258
     18 H                     0.123527      -0.009265
     19 H                     0.095963      -0.002490
     20 H                     0.266173       0.000481
     21 H                     0.099674       0.001123
     22 H                     0.142417      -0.000344
     23 H                     0.338243       0.000012
     24 H                     0.142841      -0.000337
     25 H                     0.266103       0.000469
     26 H                     0.099058       0.001129
     27 H                     0.096364      -0.002516
     28 H                     0.142398      -0.000344
     29 H                     0.142844      -0.000336
     30 H                     0.338258       0.000012
     31 H                     0.099097       0.001128
     32 H                     0.096342      -0.002513
     33 H                     0.266133       0.000467
     34 H                     0.099679       0.001124
     35 H                     0.266173       0.000478
     36 H                     0.095929      -0.002487
  --------------------------------------------------------
  Sum of atomic charges =    -1.000000

                    Cartesian Multipole Moments
 -----------------------------------------------------------------
    Charge (ESU x 10^10)
                -4.8032
    Dipole Moment (Debye)
         X       7.4986      Y      -3.4381      Z      -0.1740
       Tot       8.2511
    Quadrupole Moments (Debye-Ang)
        XX    -124.7176     XY      -1.3502     YY    -130.4838
        XZ       4.1406     YZ      15.8934     ZZ    -120.7036

 Total job time:  1121.58s(wall), 8768.45s(cpu)
        *  Thank you very much for using Q-Chem.  Have a nice day.  *
