 Gaussian 16, Revision A.03,
 Gaussian 16:  ES64L-G16RevA.03 25-Dec-2016

 --------------------------------------
 #P UB3LYP/6-311++G(d,p) nosym opt freq
 --------------------------------------

 -------
 Radical
 -------
 Symbolic Z-matrix:
 Charge = -1 Multiplicity = 2

 SCF Done:  E(UB3LYP) =  -613.959702646     A.U. after   22 cycles
 SCF Done:  E(UB3LYP) =  -613.969389266     A.U. after   17 cycles
 SCF Done:  E(UB3LYP) =  -613.970094017     A.U. after   17 cycles
 SCF Done:  E(UB3LYP) =  -613.970981212     A.U. after   15 cycles
 SCF Done:  E(UB3LYP) =  -613.971466651     A.U. after   16 cycles
 SCF Done:  E(UB3LYP) =  -613.972159370     A.U. after   18 cycles
 SCF Done:  E(UB3LYP) =  -613.973205074     A.U. after   15 cycles
 SCF Done:  E(UB3LYP) =  -613.973605360     A.U. after   15 cycles
 SCF Done:  E(UB3LYP) =  -613.973708507     A.U. after   15 cycles
 SCF Done:  E(UB3LYP) =  -613.973833469     A.U. after   13 cycles
 SCF Done:  E(UB3LYP) =  -613.973855275     A.U. after   14 cycles
 SCF Done:  E(UB3LYP) =  -613.973869804     A.U. after   13 cycles
 SCF Done:  E(UB3LYP) =  -613.973871484     A.U. after   11 cycles
 SCF Done:  E(UB3LYP) =  -613.973872455     A.U. after   11 cycles
 SCF Done:  E(UB3LYP) =  -613.973872592     A.U. after   10 cycles
 SCF Done:  E(UB3LYP) =  -613.973872655     A.U. after   10 cycles
 Optimization completed.
    -- Stationary point found.
 Normal termination of Gaussian 16 at Tue Dec 26 20:58:27 2023.

 ----------------------------------------------------------------------
 #P Geom=AllCheck Guess=TCheck SCRF=Check GenChk UB3LYP/6-311++G(d,p) F
 req
 ----------------------------------------------------------------------

 Structure from the checkpoint file:  "245-rad.chk"
 -------
 Radical
 -------
 Charge = -1 Multiplicity = 2

                          Input orientation:
 ---------------------------------------------------------------------
 Center     Atomic      Atomic             Coordinates (Angstroms)
 Number     Number       Type             X           Y           Z
 ---------------------------------------------------------------------
      1          6           0        5.735301   -5.355723    1.322351
      2          6           0        6.698946   -5.190822    0.339452
      3          6           0        6.608550   -4.173907   -0.615945
      4          6           0        4.626005   -4.456688    1.348940
      5          6           0        4.532907   -3.407909    0.363886
      6          6           0        5.550673   -3.278023   -0.629500
      7          6           0        3.575692   -4.603079    2.385874
      8          6           0        2.494315   -3.660792    2.344499
      9          6           0        2.406020   -2.664768    1.409246
     10          6           0        3.386307   -2.467226    0.380167
     11          8           0        3.607603   -5.503270    3.272122
     12          8           0        3.255462   -1.530832   -0.458197
     13          6           0        5.932677   -6.489586    2.305938
     14          1           0        7.546257   -5.871047    0.312535
     15          1           0        1.573108   -1.967209    1.406274
     16          6           0        5.552704   -2.216470   -1.708906
     17          1           0        7.387135   -4.081656   -1.368709
     18          1           0        6.859416   -7.021883    2.062136
     19          1           0        5.098919   -7.193485    2.288047
     20          1           0        5.984725   -6.130824    3.335259
     21          1           0        1.734051   -3.782687    3.110974
     22          1           0        5.547800   -1.209206   -1.288977
     23          1           0        4.660903   -2.271654   -2.335462
     24          1           0        6.442774   -2.341323   -2.336463
 ---------------------------------------------------------------------

 SCF Done:  E(UB3LYP) =  -613.973872655     A.U. after    1 cycles

 Alpha  occ. eigenvalues --  -18.93292 -18.93291 -10.08360 -10.08359 -10.05656
 Alpha  occ. eigenvalues --  -10.05655 -10.04753 -10.04714 -10.04503 -10.04451
 Alpha  occ. eigenvalues --  -10.03721 -10.03720 -10.02693 -10.02629  -0.85887
 Alpha  occ. eigenvalues --   -0.85622  -0.73221  -0.67104  -0.66009  -0.60969
 Alpha  occ. eigenvalues --   -0.58911  -0.55024  -0.51921  -0.48486  -0.47419
 Alpha  occ. eigenvalues --   -0.40155  -0.37427  -0.36252  -0.34585  -0.32523
 Alpha  occ. eigenvalues --   -0.30101  -0.29319  -0.29046  -0.28648  -0.27082
 Alpha  occ. eigenvalues --   -0.26003  -0.25886  -0.25860  -0.25674  -0.23347
 Alpha  occ. eigenvalues --   -0.23035  -0.21721  -0.21262  -0.21234  -0.13825
 Alpha  occ. eigenvalues --   -0.12198  -0.11518  -0.09738  -0.09413  -0.01344
 Alpha virt. eigenvalues --    0.08426   0.09484   0.09935   0.10483   0.10837
 Alpha virt. eigenvalues --    0.11045   0.12295   0.13378   0.13413   0.13512
 Alpha virt. eigenvalues --    0.13954   0.15623   0.16364   0.16960   0.18132

  Beta  occ. eigenvalues --  -18.92606 -18.92606 -10.08245 -10.08244 -10.05657
  Beta  occ. eigenvalues --  -10.05655 -10.04696 -10.04656 -10.04454 -10.04401
  Beta  occ. eigenvalues --  -10.03720 -10.03720 -10.02547 -10.02481  -0.84721
  Beta  occ. eigenvalues --   -0.84419  -0.73050  -0.66536  -0.65921  -0.60755
  Beta  occ. eigenvalues --   -0.58873  -0.54374  -0.51550  -0.48139  -0.47213
  Beta  occ. eigenvalues --   -0.39906  -0.37169  -0.36152  -0.34399  -0.32267
  Beta  occ. eigenvalues --   -0.29755  -0.29120  -0.28823  -0.28518  -0.27063
  Beta  occ. eigenvalues --   -0.25886  -0.25625  -0.25177  -0.24572  -0.23130
  Beta  occ. eigenvalues --   -0.21541  -0.21091  -0.20528  -0.20392  -0.11567
  Beta  occ. eigenvalues --   -0.10888  -0.10680  -0.09107  -0.08796
  Beta virt. eigenvalues --    0.05363   0.08426   0.09485   0.10493   0.10571
  Beta virt. eigenvalues --    0.11045   0.11984   0.12307   0.13384   0.13521
  Beta virt. eigenvalues --    0.13552   0.14027   0.15631   0.16381   0.17025

 Mulliken charges and spin densities:
               1          2
     1  C    1.141741   0.023291
     2  C   -0.624759   0.029943
     3  C   -0.624698   0.029951
     4  C    0.216027   0.049784
     5  C    0.216171   0.049784
     6  C    1.141744   0.023282
     7  C   -1.011789   0.050039
     8  C   -0.130971   0.106890
     9  C   -0.131069   0.106885
    10  C   -1.011830   0.050045
    11  O   -0.375616   0.247060
    12  O   -0.375605   0.247053
    13  C   -0.352168   0.007793
    14  H    0.077826  -0.003383
    15  H    0.142096  -0.010348
    16  C   -0.352117   0.007793
    17  H    0.077818  -0.003384
    18  H    0.094374  -0.000750
    19  H    0.161573  -0.000157
    20  H    0.161601  -0.000157
    21  H    0.142096  -0.010348
    22  H    0.161605  -0.000157
    23  H    0.161583  -0.000158
    24  H    0.094367  -0.000750
 Sum of Mulliken charges =  -1.00000   1.00000

 Dipole moment (field-independent basis, Debye):
    X=            -18.4323    Y=             17.5983    Z=             -5.8228  Tot=             26.1411
 Quadrupole moment (field-independent basis, Debye-Ang):
   XX=           -163.6405   YY=           -170.7840   ZZ=           -111.7489
   XY=             70.6653   XZ=            -21.6783   YZ=             36.8762

  Exact polarizability: 178.165 -38.316 168.450 -37.065 -48.746 169.238
 Approx polarizability: 277.352 -60.170 281.686 -54.948 -92.514 280.594

                      1                      2                      3
                      A                      A                      A
 Frequencies --     49.0057                72.1348               111.4978
 Red. masses --      4.7511                 5.9170                 3.0786
 Frc consts  --      0.0067                 0.0181                 0.0225
 IR Inten    --      0.0001                 9.3990                 0.7693

                      4                      5                      6
                      A                      A                      A
 Frequencies --    211.6389               218.4404               224.9194
 Red. masses --      4.3903                 1.0556                 1.0783
 Frc consts  --      0.1159                 0.0297                 0.0321
 IR Inten    --      0.0037                 0.0003                 0.5827

                      7                      8                      9
                      A                      A                      A
 Frequencies --    289.4979               317.9073               324.1641
 Red. masses --      5.9401                 4.9841                 3.3194
 Frc consts  --      0.2933                 0.2968                 0.2055
 IR Inten    --      0.8815                 0.0000                 0.0000

                     10                     11                     12
                      A                      A                      A
 Frequencies --    348.7490               367.1684               376.7087
 Red. masses --      2.7549                 4.8632                11.3075
 Frc consts  --      0.1974                 0.3863                 0.9454
 IR Inten    --      4.8003                 1.8926                 7.7450

                     13                     14                     15
                      A                      A                      A
 Frequencies --    456.2714               467.9004               476.0743
 Red. masses --     10.0357                 5.4458                 4.0676
 Frc consts  --      1.2310                 0.7025                 0.5432
 IR Inten    --      2.3428                 0.1402                 0.9685

                     16                     17                     18
                      A                      A                      A
 Frequencies --    486.4367               516.2630               599.8224
 Red. masses --      4.1142                 2.9610                 6.3825
 Frc consts  --      0.5736                 0.4650                 1.3530
 IR Inten    --      0.0000                 1.8089                 2.5752

                     19                     20                     21
                      A                      A                      A
 Frequencies --    638.1648               663.5024               676.2484
 Red. masses --      3.7468                 2.5793                 4.2819
 Frc consts  --      0.8990                 0.6690                 1.1537
 IR Inten    --      0.0787                12.5132                 0.0000

                     22                     23                     24
                      A                      A                      A
 Frequencies --    742.1410               764.7022               800.1841
 Red. masses --      5.2004                 6.6565                 1.2305
 Frc consts  --      1.6876                 2.2934                 0.4642
 IR Inten    --      5.5007                22.1308                34.5668

                     25                     26                     27
                      A                      A                      A
 Frequencies --    800.9559               832.8501               885.0006
 Red. masses --      7.5670                 2.0520                 5.8218
 Frc consts  --      2.8602                 0.8386                 2.6865
 IR Inten    --      0.0005                28.0104                19.5972

                     28                     29                     30
                      A                      A                      A
 Frequencies --    910.9099               928.3258               935.1825
 Red. masses --      1.3114                 3.9273                 1.2842
 Frc consts  --      0.6411                 1.9941                 0.6617
 IR Inten    --      0.0000                 9.4749                 0.0000

                     31                     32                     33
                      A                      A                      A
 Frequencies --   1017.3327              1044.6396              1052.1023
 Red. masses --      1.6519                 1.4084                 1.5157
 Frc consts  --      1.0073                 0.9055                 0.9885
 IR Inten    --      6.4365                 0.0259                 0.0010

                     34                     35                     36
                      A                      A                      A
 Frequencies --   1054.7757              1097.7252              1132.7663
 Red. masses --      1.5262                 1.7109                 3.2580
 Frc consts  --      1.0004                 1.2147                 2.4631
 IR Inten    --      3.0273                 1.6188                27.2862

                     37                     38                     39
                      A                      A                      A
 Frequencies --   1177.0254              1206.2936              1224.6050
 Red. masses --      1.6329                 3.1908                 2.5331
 Frc consts  --      1.3329                 2.7356                 2.2382
 IR Inten    --     33.2061                 4.6747                18.4975

                     40                     41                     42
                      A                      A                      A
 Frequencies --   1260.8569              1305.8496              1306.2145
 Red. masses --      2.0860                 8.6551                 2.0989
 Frc consts  --      1.9538                 8.6958                 2.1100
 IR Inten    --      3.2155                 2.0082                 3.1196

                     43                     44                     45
                      A                      A                      A
 Frequencies --   1370.0876              1414.2569              1415.6337
 Red. masses --      2.9557                 1.5191                 1.2312
 Frc consts  --      3.2690                 1.7902                 1.4537
 IR Inten    --      9.6509                 1.6490                 0.1270

                     46                     47                     48
                      A                      A                      A
 Frequencies --   1417.0743              1439.6412              1463.1424
 Red. masses --      2.2397                 4.0002                 1.0466
 Frc consts  --      2.6499                 4.8847                 1.3201
 IR Inten    --     57.9509               154.7313                 0.0003

                     49                     50                     51
                      A                      A                      A
 Frequencies --   1463.4323              1472.5359              1480.0692
 Red. masses --      1.0463                 1.1140                 1.4299
 Frc consts  --      1.3203                 1.4232                 1.8455
 IR Inten    --      9.0455                20.7144                17.8289

                     52                     53                     54
                      A                      A                      A
 Frequencies --   1502.3920              1545.0822              1570.1749
 Red. masses --      3.4294                 5.2422                 5.7107
 Frc consts  --      4.5608                 7.3734                 8.2953
 IR Inten    --      3.0075               470.1008                77.0610

                     55                     56                     57
                      A                      A                      A
 Frequencies --   1600.0378              1633.6769              3006.8133
 Red. masses --      4.7519                 7.3994                 1.0469
 Frc consts  --      7.1676                11.6353                 5.5767
 IR Inten    --      0.4666                 3.2614               105.3791

                     58                     59                     60
                      A                      A                      A
 Frequencies --   3007.4964              3085.0453              3085.2240
 Red. masses --      1.0468                 1.0888                 1.0888
 Frc consts  --      5.5786                 6.1052                 6.1062
 IR Inten    --     94.4455                 1.9569                30.6502

                     61                     62                     63
                      A                      A                      A
 Frequencies --   3095.6724              3095.7655              3121.8941
 Red. masses --      1.0991                 1.0991                 1.0849
 Frc consts  --      6.2057                 6.2060                 6.2299
 IR Inten    --      0.2909                32.7464                30.9543

                     64                     65                     66
                      A                      A                      A
 Frequencies --   3134.5707              3143.3943              3156.8778
 Red. masses --      1.0848                 1.0932                 1.0944
 Frc consts  --      6.2800                 6.3641                 6.4261
 IR Inten    --     22.7013                75.7539                40.3631

 - Thermochemistry -
 -------------------
 Temperature   298.150 Kelvin.  Pressure   1.00000 Atm.
 Atom     1 has atomic number  6 and mass  12.00000

 Molecular mass:   186.06808 amu.
 Principal axes and moments of inertia in atomic units:
                           1         2         3
     Eigenvalues --  1894.420232349.794274222.54446
           X           -0.06458   0.85731   0.51074
           Y            0.72736  -0.30996   0.61227
           Z           -0.68321  -0.41103   0.60355
 This molecule is an asymmetric top.
 Rotational symmetry number  1.
 Warning -- assumption of classical behavior for rotation
           may cause significant error
 Rotational temperatures (Kelvin)      0.04572     0.03686     0.02051
 Rotational constants (GHZ):           0.95266     0.76804     0.42741
 Zero-point vibrational energy     485043.5 (Joules/Mol)
                                  115.92819 (Kcal/Mol)
 Warning -- explicit consideration of  18 degrees of freedom as
           vibrations may cause significant error
 Vibrational temperatures:     70.51   103.79   160.42   304.50   314.29
          (Kelvin)            323.61   416.52   457.40   466.40   501.77
                              528.27   542.00   656.47   673.20   684.96
                              699.87   742.79   863.01   918.18   954.63
                              972.97  1067.78  1100.24  1151.29  1152.40
                             1198.29  1273.32  1310.60  1335.65  1345.52
                             1463.71  1503.00  1513.74  1517.59  1579.38
                             1629.80  1693.48  1735.59  1761.93  1814.09
                             1878.83  1879.35  1971.25  2034.80  2036.78
                             2038.85  2071.32  2105.14  2105.55  2118.65
                             2129.49  2161.61  2223.03  2259.13  2302.10
                             2350.50  4326.13  4327.12  4438.69  4438.95
                             4453.98  4454.12  4491.71  4509.95  4522.64
                             4542.04

 Zero-point correction=                           0.184743 (Hartree/Particle)
 Thermal correction to Energy=                    0.196471
 Thermal correction to Enthalpy=                  0.197416
 Thermal correction to Gibbs Free Energy=         0.146434
 Sum of electronic and zero-point Energies=           -613.789129
 Sum of electronic and thermal Energies=              -613.777401
 Sum of electronic and thermal Enthalpies=            -613.776457
 Sum of electronic and thermal Free Energies=         -613.827438

                     E (Thermal)             CV                S
                      KCal/Mol        Cal/Mol-Kelvin    Cal/Mol-Kelvin
 Total                  123.288             46.469            107.299
 Electronic               0.000              0.000              1.377
 Translational            0.889              2.981             41.569
 Rotational               0.889              2.981             31.308
 Vibrational            121.510             40.508             33.044
 Vibration     1          0.595              1.978              4.857
 Vibration     2          0.598              1.967              4.094
 Vibration     3          0.607              1.940              3.243
 Vibration     4          0.643              1.823              2.029
 Vibration     5          0.646              1.813              1.972
 Vibration     6          0.650              1.803              1.919
 Vibration     7          0.686              1.693              1.477
 Vibration     8          0.704              1.639              1.321
 Vibration     9          0.709              1.627              1.289
 Vibration    10          0.726              1.578              1.172
 Vibration    11          0.740              1.540              1.092
 Vibration    12          0.747              1.520              1.052
 Vibration    13          0.815              1.347              0.777
 Vibration    14          0.825              1.321              0.743
 Vibration    15          0.833              1.303              0.721
 Vibration    16          0.842              1.280              0.693
 Vibration    17          0.871              1.214              0.619
 Vibration    18          0.958              1.032              0.450

 Optimization completed.
    -- Stationary point found.
 Normal termination of Gaussian 16 at Tue Dec 26 21:25:54 2023.
