 Q-Chem 5.4, Q-Chem, Inc., Pleasanton, CA (2021)
 Q-Chem 5.4.0 for Intel X86 EM64T Linux

User input:
--------------------------------------------------------------
$molecule
0 1
C                  2.6459100000     -0.3449820000     -1.9403270000
C                  2.6265670000     -0.0049550000     -0.4286720000
C                  2.8290460000      1.5177390000     -0.2250340000
C                  3.8158150000     -0.7295020000      0.2310010000
C                  1.2940280000     -0.4465800000      0.1932220000
C                  1.2157050000     -1.3515420000      1.1856870000
C                 -0.0625570000     -1.7766030000      1.7832300000
O                 -0.0916130000     -2.6032820000      2.6855790000
C                 -1.3048220000     -1.1781250000      1.2633530000
C                 -1.3191520000     -0.2665390000      0.2739630000
C                  0.0054860000      0.1552360000     -0.3239980000
O                  0.0345440000      0.9803010000     -1.2226210000
C                 -2.6142160000      0.3565780000     -0.2664350000
C                 -2.7733120000      0.0286640000     -1.7724900000
C                 -3.8487100000     -0.2003080000      0.4686400000
C                 -2.5925850000      1.8917950000     -0.0573440000
H                  3.6190010000     -0.0731730000     -2.3596810000
H                  2.5028780000     -1.4179630000     -2.0995220000
H                  1.8746620000      0.1952680000     -2.4861040000
H                  2.0617090000      2.0990180000     -0.7328700000
H                  3.8040360000      1.8097150000     -0.6260310000
H                  2.8167230000      1.7729250000      0.8388330000
H                  3.7602960000     -1.8139120000      0.1017460000
H                  3.8888510000     -0.5119890000      1.3001450000
H                  4.7430890000     -0.3903380000     -0.2369140000
H                  2.0885820000     -1.8284470000      1.6118050000
H                 -2.2069950000     -1.5328520000      1.7441640000
H                 -3.7238150000      0.4333020000     -2.1322870000
H                 -2.7890870000     -1.0531410000     -1.9354100000
H                 -1.9702630000      0.4600660000     -2.3671180000
H                 -3.8247700000      0.0205180000      1.5393270000
H                 -4.7476630000      0.2652840000      0.0576510000
H                 -3.9511250000     -1.2814580000      0.3407880000
H                 -3.5413970000      2.3165190000     -0.3979570000
H                 -2.4789210000      2.1384390000      1.0025300000
H                 -1.7859240000      2.3643260000     -0.6146460000
$end

$rem
BASIS  =  6-311++G(d,p)
GUI  =  2
JOB_TYPE  =  SP
METHOD  =  B3LYP
SCF_CONVERGENCE  = 8
SOLVENT_METHOD = sm12
$end

$smx
solvent dimethylformamide
charges CM5
$end

--------------------------------------------------------------

             Standard Nuclear Orientation (Angstroms)
    I     Atom           X                Y                Z
 ----------------------------------------------------------------
    1      C       2.6459100000    -0.3449820000    -1.9403270000
    2      C       2.6265670000    -0.0049550000    -0.4286720000
    3      C       2.8290460000     1.5177390000    -0.2250340000
    4      C       3.8158150000    -0.7295020000     0.2310010000
    5      C       1.2940280000    -0.4465800000     0.1932220000
    6      C       1.2157050000    -1.3515420000     1.1856870000
    7      C      -0.0625570000    -1.7766030000     1.7832300000
    8      O      -0.0916130000    -2.6032820000     2.6855790000
    9      C      -1.3048220000    -1.1781250000     1.2633530000
   10      C      -1.3191520000    -0.2665390000     0.2739630000
   11      C       0.0054860000     0.1552360000    -0.3239980000
   12      O       0.0345440000     0.9803010000    -1.2226210000
   13      C      -2.6142160000     0.3565780000    -0.2664350000
   14      C      -2.7733120000     0.0286640000    -1.7724900000
   15      C      -3.8487100000    -0.2003080000     0.4686400000
   16      C      -2.5925850000     1.8917950000    -0.0573440000
   17      H       3.6190010000    -0.0731730000    -2.3596810000
   18      H       2.5028780000    -1.4179630000    -2.0995220000
   19      H       1.8746620000     0.1952680000    -2.4861040000
   20      H       2.0617090000     2.0990180000    -0.7328700000
   21      H       3.8040360000     1.8097150000    -0.6260310000
   22      H       2.8167230000     1.7729250000     0.8388330000
   23      H       3.7602960000    -1.8139120000     0.1017460000
   24      H       3.8888510000    -0.5119890000     1.3001450000
   25      H       4.7430890000    -0.3903380000    -0.2369140000
   26      H       2.0885820000    -1.8284470000     1.6118050000
   27      H      -2.2069950000    -1.5328520000     1.7441640000
   28      H      -3.7238150000     0.4333020000    -2.1322870000
   29      H      -2.7890870000    -1.0531410000    -1.9354100000
   30      H      -1.9702630000     0.4600660000    -2.3671180000
   31      H      -3.8247700000     0.0205180000     1.5393270000
   32      H      -4.7476630000     0.2652840000     0.0576510000
   33      H      -3.9511250000    -1.2814580000     0.3407880000
   34      H      -3.5413970000     2.3165190000    -0.3979570000
   35      H      -2.4789210000     2.1384390000     1.0025300000
   36      H      -1.7859240000     2.3643260000    -0.6146460000
 ----------------------------------------------------------------

   13    -696.1570347944      9.03e-09  Convergence criterion met
 Total energy in the final basis set =     -696.1675231375

                    Orbital Energies (a.u.)
 --------------------------------------------------------------

 Alpha MOs
 -- Occupied --
-19.1374 -19.1315 -10.2866 -10.2760 -10.2159 -10.2159 -10.2028 -10.2028
-10.1987 -10.1987 -10.1605 -10.1605 -10.1599 -10.1599 -10.1599 -10.1598
 -1.0722  -1.0605  -0.8693  -0.8450  -0.8073  -0.7645  -0.7030  -0.6918
 -0.6903  -0.6898  -0.6864  -0.6401  -0.6107  -0.5574  -0.5438  -0.5232
 -0.5033  -0.4773  -0.4749  -0.4571  -0.4471  -0.4454  -0.4443  -0.4398
 -0.4345  -0.4200  -0.4157  -0.4060  -0.3959  -0.3851  -0.3831  -0.3796
 -0.3697  -0.3671  -0.3563  -0.3563  -0.3435  -0.3417  -0.3407  -0.3330
 -0.3000  -0.2849  -0.2797  -0.2668

          Ground-State Mulliken Net Atomic Charges

     Atom                 Charge (a.u.)
  ----------------------------------------
      1 C                    -0.710913
      2 C                     0.730931
      3 C                    -0.711506
      4 C                    -0.050037
      5 C                     0.724248
      6 C                    -0.162245
      7 C                    -1.282805
      8 O                    -0.338334
      9 C                    -0.162410
     10 C                     0.726551
     11 C                    -1.201998
     12 O                    -0.185535
     13 C                     0.732325
     14 C                    -0.711572
     15 C                    -0.050743
     16 C                    -0.712686
     17 H                     0.186413
     18 H                     0.146163
     19 H                     0.115393
     20 H                     0.115842
     21 H                     0.186248
     22 H                     0.145419
     23 H                     0.153828
     24 H                     0.153781
     25 H                     0.201542
     26 H                     0.278648
     27 H                     0.278731
     28 H                     0.186251
     29 H                     0.145677
     30 H                     0.115876
     31 H                     0.153710
     32 H                     0.201552
     33 H                     0.153888
     34 H                     0.186465
     35 H                     0.145836
     36 H                     0.115467
  ----------------------------------------
  Sum of atomic charges =     0.000000

                    Cartesian Multipole Moments
 -----------------------------------------------------------------
    Charge (ESU x 10^10)
                 0.0000
    Dipole Moment (Debye)
         X       0.0451      Y       1.2748      Z      -1.3928
       Tot       1.8887
    Quadrupole Moments (Debye-Ang)
        XX     -86.8669     XY      -1.1988     YY    -108.7837
        XZ      -0.0340     YZ      10.1485     ZZ    -110.1961

 Total job time:  932.94s(wall), 7333.65s(cpu)
        *  Thank you very much for using Q-Chem.  Have a nice day.  *
