 Gaussian 16, Revision A.03,

 -------------------------
 #P HF/6-311++G(d,p) nosym
 -------------------------

 -------
 Reduced
 -------
 Symbolic Z-matrix:
 Charge = -3 Multiplicity = 1

 SCF Done:  E(RHF) =  -3932.84742513     A.U. after   39 cycles
 Normal termination of Gaussian 16 at Fri Dec 22 22:08:28 2023.
 Gaussian 16:  ES64L-G16RevA.03 25-Dec-2016

 ------------------------------------------------------------------
 #P UB3LYP/6-311++G(d,p) nosym guess=read geom=check nosym opt freq
 ------------------------------------------------------------------

 --------------------------------------------
 Then read in here HF orbitals and run UB3LYP
 --------------------------------------------
 Structure from the checkpoint file:  "163-an.chk"
 Charge = -3 Multiplicity = 1

 SCF Done:  E(UB3LYP) =  -3941.05054715     A.U. after   32 cycles
 SCF Done:  E(UB3LYP) =  -3941.06908934     A.U. after   30 cycles
 SCF Done:  E(UB3LYP) =  -3941.07905204     A.U. after   29 cycles
 SCF Done:  E(UB3LYP) =  -3941.08135891     A.U. after   31 cycles
 SCF Done:  E(UB3LYP) =  -3941.08266599     A.U. after   29 cycles
 SCF Done:  E(UB3LYP) =  -3941.08321144     A.U. after   26 cycles
 SCF Done:  E(UB3LYP) =  -3941.08374104     A.U. after   27 cycles
 SCF Done:  E(UB3LYP) =  -3941.08377104     A.U. after   25 cycles
 SCF Done:  E(UB3LYP) =  -3941.08399763     A.U. after   26 cycles
 SCF Done:  E(UB3LYP) =  -3941.08417079     A.U. after   25 cycles
 SCF Done:  E(UB3LYP) =  -3941.08412663     A.U. after   27 cycles
 SCF Done:  E(UB3LYP) =  -3941.08282542     A.U. after   31 cycles
 SCF Done:  E(UB3LYP) =  -3941.08420703     A.U. after   25 cycles
 SCF Done:  E(UB3LYP) =  -3941.08419368     A.U. after   26 cycles
 SCF Done:  E(UB3LYP) =  -3941.08421541     A.U. after   24 cycles
 SCF Done:  E(UB3LYP) =  -3941.08422055     A.U. after   23 cycles
 SCF Done:  E(UB3LYP) =  -3941.08422169     A.U. after   25 cycles
 SCF Done:  E(UB3LYP) =  -3941.08422185     A.U. after   21 cycles
 Optimization completed.
    -- Stationary point found.
 Normal termination of Gaussian 16 at Sat Dec 23 06:34:44 2023.

 ----------------------------------------------------------------------
 #P Geom=AllCheck Guess=TCheck SCRF=Check GenChk UB3LYP/6-311++G(d,p) F
 req
 ----------------------------------------------------------------------

 Structure from the checkpoint file:  "163-an.chk"
 --------------------------------------------
 Then read in here HF orbitals and run UB3LYP
 --------------------------------------------
 Charge = -3 Multiplicity = 1

                         Standard orientation:
 ---------------------------------------------------------------------
 Center     Atomic      Atomic             Coordinates (Angstroms)
 Number     Number       Type             X           Y           Z
 ---------------------------------------------------------------------
      1          6           0        3.902108   -2.241360   -0.172683
      2          6           0        5.207006   -1.790165   -0.125352
      3          6           0        5.462161   -0.406049    0.056618
      4          6           0        2.798262   -1.360632   -0.048070
      5          6           0        3.055057    0.037903    0.103175
      6          6           0        4.402489    0.472400    0.172200
      7          6           0        1.449947   -1.892596   -0.070943
      8          6           0        1.984932    1.017562    0.210630
      9          6           0        0.356541   -0.933360    0.007971
     10          6           0        0.622346    0.502454    0.075525
     11          6           0       -1.018273   -1.415210    0.009534
     12          6           0       -2.081877   -0.493504   -0.010658
     13          6           0       -1.812495    0.884218   -0.036416
     14          6           0       -0.522131    1.351210    0.015432
     15          8           0        1.281118   -3.168043   -0.176633
     16          8           0        2.251264    2.241222    0.421970
     17          1           0        3.675281   -3.293924   -0.302090
     18          1           0        6.039462   -2.486493   -0.221736
     19          1           0        6.489720   -0.046448    0.101064
     20          1           0        4.563741    1.535720    0.313852
     21         35           0       -0.418211    3.313768   -0.156078
     22          7           0       -1.261839   -2.758988    0.043193
     23         16           0       -3.835397   -0.992094    0.061240
     24          8           0       -3.942019   -2.255496   -0.748936
     25          8           0       -4.175933   -1.220943    1.497185
     26          8           0       -4.602896    0.140643   -0.537121
     27          1           0       -2.647300    1.566179   -0.117431
     28          1           0       -0.422462   -3.324235   -0.118285
     29          1           0       -2.190528   -3.042531   -0.248333
 ---------------------------------------------------------------------

 SCF Done:  E(UB3LYP) =  -3941.08422185     A.U. after    4 cycles

 The electronic state is 1-A.
 Alpha  occ. eigenvalues -- -482.52013 -88.72820 -62.17283 -55.99297 -55.98957
 Alpha  occ. eigenvalues --  -55.98922 -18.77278 -18.77165 -18.76874 -18.75105
 Alpha  occ. eigenvalues --  -18.74041 -13.98937  -9.91586  -9.91108  -9.90723
 Alpha  occ. eigenvalues --   -9.90318  -9.87561  -9.87515  -9.87318  -9.87249
 Alpha  occ. eigenvalues --   -9.87046  -9.87018  -9.86975  -9.86879  -9.85944
 Alpha  occ. eigenvalues --   -9.85849  -8.38233  -7.78653  -6.21295  -6.20165
 Alpha  occ. eigenvalues --   -6.20056  -5.74942  -5.74912  -5.74826  -2.32399
 Alpha  occ. eigenvalues --   -2.32099  -2.32017  -2.31116  -2.31114  -0.78515
 Alpha  occ. eigenvalues --   -0.67176  -0.66399  -0.65102  -0.64682  -0.60349
 Alpha  occ. eigenvalues --   -0.54958  -0.54070  -0.48471  -0.47090  -0.44490
 Alpha  occ. eigenvalues --   -0.43465  -0.40328  -0.35967  -0.33699  -0.32061
 Alpha  occ. eigenvalues --   -0.28921  -0.26236  -0.24664  -0.23875  -0.20918
 Alpha  occ. eigenvalues --   -0.19441  -0.17262  -0.16711  -0.15792  -0.14032
 Alpha  occ. eigenvalues --   -0.13394  -0.13080  -0.12767  -0.12042  -0.10844
 Alpha  occ. eigenvalues --   -0.10535  -0.09709  -0.08322  -0.07711  -0.07150
 Alpha  occ. eigenvalues --   -0.05850  -0.05230  -0.04860  -0.03083  -0.02842
 Alpha  occ. eigenvalues --   -0.01978  -0.01289  -0.01182   0.01318   0.01740
 Alpha  occ. eigenvalues --    0.02232   0.02631   0.02745   0.05061   0.05759
 Alpha  occ. eigenvalues --    0.06488   0.06595   0.07602   0.09318   0.10457
 Alpha  occ. eigenvalues --    0.18550
 Alpha virt. eigenvalues --    0.20087   0.21872   0.24163   0.25350   0.25927
 Alpha virt. eigenvalues --    0.26242   0.27057   0.27592   0.28005   0.28754
 Alpha virt. eigenvalues --    0.29805   0.30290   0.30933   0.31215   0.31435

  Beta  occ. eigenvalues -- -482.52013 -88.72820 -62.17283 -55.99297 -55.98957
  Beta  occ. eigenvalues --  -55.98922 -18.77278 -18.77165 -18.76874 -18.75105
  Beta  occ. eigenvalues --  -18.74041 -13.98937  -9.91586  -9.91108  -9.90723
  Beta  occ. eigenvalues --   -9.90318  -9.87561  -9.87515  -9.87318  -9.87249
  Beta  occ. eigenvalues --   -9.87046  -9.87018  -9.86975  -9.86879  -9.85944
  Beta  occ. eigenvalues --   -9.85849  -8.38233  -7.78653  -6.21295  -6.20165
  Beta  occ. eigenvalues --   -6.20056  -5.74942  -5.74912  -5.74826  -2.32399
  Beta  occ. eigenvalues --   -2.32099  -2.32017  -2.31116  -2.31114  -0.78515
  Beta  occ. eigenvalues --   -0.67176  -0.66399  -0.65102  -0.64682  -0.60349
  Beta  occ. eigenvalues --   -0.54958  -0.54070  -0.48471  -0.47090  -0.44490
  Beta  occ. eigenvalues --   -0.43465  -0.40328  -0.35967  -0.33699  -0.32061
  Beta  occ. eigenvalues --   -0.28921  -0.26236  -0.24664  -0.23875  -0.20918
  Beta  occ. eigenvalues --   -0.19441  -0.17262  -0.16711  -0.15792  -0.14032
  Beta  occ. eigenvalues --   -0.13394  -0.13080  -0.12767  -0.12042  -0.10844
  Beta  occ. eigenvalues --   -0.10535  -0.09709  -0.08322  -0.07711  -0.07150
  Beta  occ. eigenvalues --   -0.05850  -0.05230  -0.04860  -0.03083  -0.02842
  Beta  occ. eigenvalues --   -0.01978  -0.01289  -0.01182   0.01318   0.01740
  Beta  occ. eigenvalues --    0.02232   0.02631   0.02745   0.05061   0.05759
  Beta  occ. eigenvalues --    0.06488   0.06595   0.07602   0.09318   0.10457
  Beta  occ. eigenvalues --    0.18550
  Beta virt. eigenvalues --    0.20087   0.21872   0.24163   0.25350   0.25927
  Beta virt. eigenvalues --    0.26242   0.27057   0.27592   0.28005   0.28754
  Beta virt. eigenvalues --    0.29805   0.30290   0.30933   0.31215   0.31435

 Mulliken charges and spin densities:
               1          2
     1  C   -0.841129  -0.000000
     2  C    1.142148   0.000000
     3  C    1.370878   0.000000
     4  C    0.310850  -0.000000
     5  C    0.487272  -0.000000
     6  C   -0.725337  -0.000000
     7  C   -0.561668   0.000000
     8  C   -1.294785  -0.000000
     9  C    0.449270   0.000000
    10  C    1.027055   0.000000
    11  C    0.279655  -0.000000
    12  C   -0.977735   0.000000
    13  C   -0.369534  -0.000000
    14  C    0.390249  -0.000000
    15  O   -0.447952   0.000000
    16  O   -0.352919   0.000000
    17  H    0.245760  -0.000000
    18  H   -1.504435  -0.000000
    19  H   -1.474815  -0.000000
    20  H    0.255509  -0.000000
    21  Br  -0.367568   0.000000
    22  N   -0.416615   0.000000
    23  S    0.643486   0.000000
    24  O   -0.420383   0.000000
    25  O   -0.311287   0.000000
    26  O   -0.348509   0.000000
    27  H    0.237774  -0.000000
    28  H    0.334705   0.000000
    29  H    0.240061  -0.000000
 Sum of Mulliken charges =  -3.00000  -0.00000

 Dipole moment (field-independent basis, Debye):
    X=             -9.9145    Y=              7.7221    Z=             -0.9410  Tot=             12.6021
 Quadrupole moment (field-independent basis, Debye-Ang):
   XX=           -462.6151   YY=           -238.9007   ZZ=           -179.3817
   XY=             12.4980   XZ=              2.4231   YZ=             -3.0636

  Exact polarizability:1978.774-118.6461330.465   7.311 210.663 242.911
 Approx polarizability:8525.290********1443.620-191.057 173.756 325.751

                      1                      2                      3
                      A                      A                      A
 Frequencies --     25.3565                33.5291                42.9751
 Red. masses --     12.9491                 9.2419                11.7232
 Frc consts  --      0.0049                 0.0061                 0.0128
 IR Inten    --      3.0695                 5.4718                 2.0236

                      4                      5                      6
                      A                      A                      A
 Frequencies --     83.6606               109.2925               125.9757
 Red. masses --      9.5820                 8.3261                 8.0745
 Frc consts  --      0.0395                 0.0586                 0.0755
 IR Inten    --      1.6293                 2.2941                 5.5328

                      7                      8                      9
                      A                      A                      A
 Frequencies --    133.4544               137.3855               179.8467
 Red. masses --      8.1232                 8.8554                 8.5404
 Frc consts  --      0.0852                 0.0985                 0.1628
 IR Inten    --      1.2084                 1.5746                19.9494

                     10                     11                     12
                      A                      A                      A
 Frequencies --    215.1344               222.8077               245.1034
 Red. masses --     12.0790                11.5576                10.2770
 Frc consts  --      0.3294                 0.3380                 0.3638
 IR Inten    --      1.3440                10.4219                 5.5247

                     13                     14                     15
                      A                      A                      A
 Frequencies --    260.0137               297.7560               313.3684
 Red. masses --     10.2427                 5.4545                 9.3172
 Frc consts  --      0.4080                 0.2849                 0.5391
 IR Inten    --     29.5455                16.9299                 4.9958

                     16                     17                     18
                      A                      A                      A
 Frequencies --    348.2285               365.7336               392.8138
 Red. masses --      7.0636                 8.6403                 6.9652
 Frc consts  --      0.5047                 0.6809                 0.6332
 IR Inten    --    202.9809                 4.8854                22.9933

                     19                     20                     21
                      A                      A                      A
 Frequencies --    408.9243               423.2681               440.6839
 Red. masses --      8.8006                 7.6672                 4.2883
 Frc consts  --      0.8671                 0.8093                 0.4907
 IR Inten    --     27.4376               115.2616                27.1199

                     22                     23                     24
                      A                      A                      A
 Frequencies --    443.6352               477.2751               483.3647
 Red. masses --      6.5163                 7.5876                 6.8980
 Frc consts  --      0.7556                 1.0183                 0.9496
 IR Inten    --    124.1452               107.3356                53.9835

                     25                     26                     27
                      A                      A                      A
 Frequencies --    506.2259               523.4148               536.3704
 Red. masses --      8.7346                 7.7971                 8.3236
 Frc consts  --      1.3188                 1.2586                 1.4109
 IR Inten    --     40.2007                92.8158                19.2650

                     28                     29                     30
                      A                      A                      A
 Frequencies --    566.1421               600.3170               609.9230
 Red. masses --      5.4309                 9.0772                 2.0349
 Frc consts  --      1.0256                 1.9274                 0.4460
 IR Inten    --     10.4451               390.8113               315.9886

                     31                     32                     33
                      A                      A                      A
 Frequencies --    629.4524               659.3065               670.7653
 Red. masses --      2.6400                 5.5620                 5.8063
 Frc consts  --      0.6163                 1.4245                 1.5392
 IR Inten    --     74.2665                37.2027               189.2298

                     34                     35                     36
                      A                      A                      A
 Frequencies --    691.5676               715.0529               720.4889
 Red. masses --      7.5779                 7.0915                 6.3330
 Frc consts  --      2.1353                 2.1363                 1.9369
 IR Inten    --    454.8516                74.0541                24.6854

                     37                     38                     39
                      A                      A                      A
 Frequencies --    747.5225               794.5441               801.0203
 Red. masses --      6.0741                 1.9762                 3.8739
 Frc consts  --      1.9998                 0.7350                 1.4645
 IR Inten    --      1.3765                 3.7669                68.7147

                     40                     41                     42
                      A                      A                      A
 Frequencies --    813.1484               868.0798               872.0980
 Red. masses --      2.3210                 1.4676                 1.4653
 Frc consts  --      0.9042                 0.6516                 0.6566
 IR Inten    --    106.3465                 3.8413                99.3983

                     43                     44                     45
                      A                      A                      A
 Frequencies --    882.5972               894.8515               933.0060
 Red. masses --      1.3170                 7.7738                 8.9034
 Frc consts  --      0.6045                 3.6676                 4.5664
 IR Inten    --     58.3404               102.0670               282.0328

                     46                     47                     48
                      A                      A                      A
 Frequencies --    961.6455               995.9658              1010.2645
 Red. masses --     10.5150                 1.2254                 3.8504
 Frc consts  --      5.7291                 0.7162                 2.3154
 IR Inten    --   1002.6318                 5.2961               485.1059

                     49                     50                     51
                      A                      A                      A
 Frequencies --   1025.3140              1070.4509              1094.3762
 Red. masses --      2.3327                 1.2500                 6.1637
 Frc consts  --      1.4448                 0.8439                 4.3494
 IR Inten    --      1.9396               933.1010               325.4385

                     52                     53                     54
                      A                      A                      A
 Frequencies --   1100.2846              1126.0609              1129.7814
 Red. masses --      2.4806                 2.7960                 6.3516
 Frc consts  --      1.7694                 2.0888                 4.7766
 IR Inten    --    104.2704                80.4447               264.7843

                     55                     56                     57
                      A                      A                      A
 Frequencies --   1133.3694              1165.1996              1199.8965
 Red. masses --      2.1232                 2.7308                 2.0752
 Frc consts  --      1.6069                 2.1844                 1.7603
 IR Inten    --    249.5299               580.2054                14.4056

                     58                     59                     60
                      A                      A                      A
 Frequencies --   1209.5120              1234.2382              1275.2326
 Red. masses --      2.4618                 2.2710                 7.6349
 Frc consts  --      2.1219                 2.0383                 7.3153
 IR Inten    --     66.6859               396.0698               147.4249

                     61                     62                     63
                      A                      A                      A
 Frequencies --   1290.9539              1346.6922              1364.9307
 Red. masses --      2.4266                 3.7410                 5.8047
 Frc consts  --      2.3827                 3.9973                 6.3717
 IR Inten    --    798.5632               136.3604               159.4700

                     64                     65                     66
                      A                      A                      A
 Frequencies --   1369.4620              1409.3387              1440.3907
 Red. masses --      3.5189                 2.5539                 6.0912
 Frc consts  --      3.8883                 2.9887                 7.4459
 IR Inten    --    318.2218                65.8747              1024.9012

                     67                     68                     69
                      A                      A                      A
 Frequencies --   1456.1217              1467.2732              1497.2906
 Red. masses --      4.9748                 2.4972                 5.4655
 Frc consts  --      6.2148                 3.1676                 7.2192
 IR Inten    --    200.6645               202.1545               937.5046

                     70                     71                     72
                      A                      A                      A
 Frequencies --   1519.5334              1561.9939              1564.1559
 Red. masses --      5.4885                 5.6092                 6.3448
 Frc consts  --      7.4666                 8.0632                 9.1460
 IR Inten    --   1880.3515              1733.1084              1035.3180

                     73                     74                     75
                      A                      A                      A
 Frequencies --   1594.8767              1603.1683              3093.1456
 Red. masses --      5.3619                 1.3256                 1.0854
 Frc consts  --      8.0357                 2.0073                 6.1187
 IR Inten    --    136.8814               160.9671              1109.7224

                     76                     77                     78
                      A                      A                      A
 Frequencies --   3116.5568              3166.1333              3169.3516
 Red. masses --      1.0917                 1.0903                 1.0905
 Frc consts  --      6.2477                 6.4393                 6.4536
 IR Inten    --    111.9519                 8.8439                33.1161

                     79                     80                     81
                      A                      A                      A
 Frequencies --   3208.3717              3285.7219              3532.3089
 Red. masses --      1.0895                 1.0630                 1.0913
 Frc consts  --      6.6077                 6.7612                 8.0224
 IR Inten    --      7.2659               328.1421               708.5936

 - Thermochemistry -
 -------------------
 Temperature   298.150 Kelvin.  Pressure   1.00000 Atm.
 Atom     1 has atomic number  6 and mass  12.00000

 Molecular mass:   379.92283 amu.
 Principal axes and moments of inertia in atomic units:
                           1         2         3
     Eigenvalues --  6068.50190********************
           X            0.99999  -0.00397  -0.00001
           Y            0.00397   0.99998   0.00473
           Z           -0.00001  -0.00473   0.99999
 This molecule is an asymmetric top.
 Rotational symmetry number  1.
 Warning -- assumption of classical behavior for rotation
           may cause significant error
 Rotational temperatures (Kelvin)      0.01427     0.00769     0.00512
 Rotational constants (GHZ):           0.29739     0.16031     0.10667
 Zero-point vibrational energy     484696.0 (Joules/Mol)
                                  115.84513 (Kcal/Mol)
 Warning -- explicit consideration of  30 degrees of freedom as
           vibrations may cause significant error
 Vibrational temperatures:     36.48    48.24    61.83   120.37   157.25
          (Kelvin)            181.25   192.01   197.67   258.76   309.53
                              320.57   352.65   374.10   428.40   450.87
                              501.02   526.21   565.17   588.35   608.99
                              634.05   638.29   686.69   695.45   728.35
                              753.08   771.72   814.55   863.72   877.54
                              905.64   948.60   965.08   995.01  1028.80
                             1036.62  1075.52  1143.17  1152.49  1169.94
                             1248.97  1254.75  1269.86  1287.49  1342.39
                             1383.59  1432.97  1453.55  1475.20  1540.14
                             1574.56  1583.06  1620.15  1625.50  1630.67
                             1676.46  1726.38  1740.22  1775.79  1834.78
                             1857.39  1937.59  1963.83  1970.35  2027.72
                             2072.40  2095.03  2111.08  2154.27  2186.27
                             2247.36  2250.47  2294.67  2306.60  4450.35
                             4484.03  4555.36  4559.99  4616.13  4727.42
                             5082.20

 Zero-point correction=                           0.184611 (Hartree/Particle)
 Thermal correction to Energy=                    0.202553
 Thermal correction to Enthalpy=                  0.203497
 Thermal correction to Gibbs Free Energy=         0.136810
 Sum of electronic and zero-point Energies=          -3940.899611
 Sum of electronic and thermal Energies=             -3940.881669
 Sum of electronic and thermal Enthalpies=           -3940.880724
 Sum of electronic and thermal Free Energies=        -3940.947412

                     E (Thermal)             CV                S
                      KCal/Mol        Cal/Mol-Kelvin    Cal/Mol-Kelvin
 Total                  127.104             69.320            140.356
 Electronic               0.000              0.000              0.000
 Translational            0.889              2.981             43.697
 Rotational               0.889              2.981             35.401
 Vibrational            125.327             63.359             61.258
 Vibration     1          0.593              1.985              6.163
 Vibration     2          0.594              1.983              5.609
 Vibration     3          0.595              1.980              5.117
 Vibration     4          0.601              1.960              3.803
 Vibration     5          0.606              1.942              3.281
 Vibration     6          0.611              1.927              3.007
 Vibration     7          0.613              1.920              2.896
 Vibration     8          0.614              1.916              2.840
 Vibration     9          0.629              1.867              2.330
 Vibration    10          0.645              1.818              2.000
 Vibration    11          0.648              1.806              1.936
 Vibration    12          0.660              1.771              1.766
 Vibration    13          0.668              1.746              1.662
 Vibration    14          0.691              1.678              1.429
 Vibration    15          0.701              1.648              1.344
 Vibration    16          0.726              1.579              1.174
 Vibration    17          0.739              1.543              1.098
 Vibration    18          0.760              1.486              0.989
 Vibration    19          0.773              1.451              0.930
 Vibration    20          0.785              1.420              0.881
 Vibration    21          0.801              1.381              0.824
 Vibration    22          0.803              1.375              0.815
 Vibration    23          0.834              1.300              0.717
 Vibration    24          0.840              1.287              0.701
 Vibration    25          0.861              1.236              0.643
 Vibration    26          0.878              1.198              0.602
 Vibration    27          0.891              1.170              0.573
 Vibration    28          0.922              1.105              0.512
 Vibration    29          0.958              1.031              0.449
 Vibration    30          0.969              1.011              0.433

                           ! Non-Optimized Parameters !
 Normal termination of Gaussian 16 at Sat Dec 23 08:08:24 2023.
