 Gaussian 16, Revision A.03,
 Gaussian 16:  ES64L-G16RevA.03 25-Dec-2016

 ----------------------------------------------------------------
 #P UB3LYP/6-311++G(d,p) SCRF=(PCM,Solvent=n,n-DiMethylFormamide)
 ----------------------------------------------------------------

 ------------------
 Quinone PCM in DMF
 ------------------
 Symbolic Z-matrix:
 Charge =  0 Multiplicity = 1

                         Standard orientation:
 ---------------------------------------------------------------------
 Center     Atomic      Atomic             Coordinates (Angstroms)
 Number     Number       Type             X           Y           Z
 ---------------------------------------------------------------------
      1          6           0        4.134541   -1.472816   -0.011737
      2          6           0        2.844953   -0.694224   -0.004871
      3          6           0        2.844986    0.694254    0.005093
      4          6           0        4.134716    1.472656    0.012849
      5          6           0        1.610029    1.403124    0.000302
      6          8           0        1.663956    2.742131   -0.003083
      7          6           0        0.387120    0.713232   -0.000607
      8          6           0       -0.863792    1.462531   -0.001686
      9          8           0       -0.880329    2.707153   -0.003249
     10          6           0       -2.137950    0.703326   -0.000720
     11          6           0       -3.352579    1.397093   -0.001174
     12          6           0       -4.553940    0.699065   -0.000219
     13          6           0       -4.553932   -0.699138    0.001199
     14          6           0       -3.352547   -1.397127    0.001604
     15          6           0       -2.137945   -0.703316    0.000653
     16          6           0       -0.863768   -1.462479    0.001156
     17          8           0       -0.880239   -2.707099    0.002486
     18          6           0        0.387106   -0.713141   -0.000095
     19          6           0        1.609975   -1.403051   -0.000731
     20          8           0        1.663865   -2.742061    0.002413
     21          1           0        3.953264   -2.526149   -0.212725
     22          1           0        4.639661   -1.397722    0.957831
     23          1           0        4.824773   -1.083668   -0.764328
     24          1           0        4.642509    1.394302   -0.955024
     25          1           0        3.953131    2.526614    0.210158
     26          1           0        4.822749    1.085692    0.768622
     27          1           0        0.724938    3.066069   -0.001502
     28          1           0       -3.329873    2.479543   -0.002215
     29          1           0       -5.493024    1.240600   -0.000534
     30          1           0       -5.493008   -1.240687    0.001934
     31          1           0       -3.329798   -2.479576    0.002569
     32          1           0        0.724824   -3.065950    0.000572
 ---------------------------------------------------------------------

 SCF Done:  E(UB3LYP) =  -918.135390545     A.U. after   14 cycles

 The electronic state is 1-A.
 Alpha  occ. eigenvalues --  -19.16263 -19.16261 -19.13708 -19.13708 -10.28653
 Alpha  occ. eigenvalues --  -10.28652 -10.26573 -10.26571 -10.21144 -10.21094
 Alpha  occ. eigenvalues --  -10.21072 -10.21015 -10.20648 -10.20605 -10.20041
 Alpha  occ. eigenvalues --  -10.19998 -10.19947 -10.19938 -10.17421 -10.17421
 Alpha  occ. eigenvalues --   -1.09314  -1.09149  -1.05927  -1.05797  -0.89670
 Alpha  occ. eigenvalues --   -0.88134  -0.83203  -0.78691  -0.78339  -0.77436
 Alpha  occ. eigenvalues --   -0.73686  -0.71353  -0.68037  -0.65209  -0.64865
 Alpha  occ. eigenvalues --   -0.63232  -0.60179  -0.57105  -0.55593  -0.53982
 Alpha  occ. eigenvalues --   -0.53679  -0.50522  -0.49401  -0.48356  -0.47504
 Alpha  occ. eigenvalues --   -0.46568  -0.46268  -0.45430  -0.45183  -0.44662
 Alpha  occ. eigenvalues --   -0.43821  -0.43317  -0.42396  -0.41388  -0.41201
 Alpha  occ. eigenvalues --   -0.39547  -0.39269  -0.39178  -0.38336  -0.37991
 Alpha  occ. eigenvalues --   -0.37838  -0.37458  -0.37002  -0.32912  -0.29857
 Alpha  occ. eigenvalues --   -0.28787  -0.28167  -0.28147  -0.26903  -0.23198
 Alpha virt. eigenvalues --   -0.12258  -0.07101  -0.03883  -0.01364  -0.01058
 Alpha virt. eigenvalues --   -0.00186   0.00698   0.01482   0.01886   0.02794
 Alpha virt. eigenvalues --    0.03100   0.03421   0.03575   0.03720   0.04112

  Beta  occ. eigenvalues --  -19.16263 -19.16261 -19.13708 -19.13708 -10.28653
  Beta  occ. eigenvalues --  -10.28652 -10.26573 -10.26571 -10.21144 -10.21094
  Beta  occ. eigenvalues --  -10.21072 -10.21015 -10.20648 -10.20605 -10.20041
  Beta  occ. eigenvalues --  -10.19998 -10.19947 -10.19938 -10.17421 -10.17421
  Beta  occ. eigenvalues --   -1.09314  -1.09149  -1.05927  -1.05797  -0.89670
  Beta  occ. eigenvalues --   -0.88134  -0.83203  -0.78691  -0.78339  -0.77436
  Beta  occ. eigenvalues --   -0.73686  -0.71353  -0.68037  -0.65209  -0.64865
  Beta  occ. eigenvalues --   -0.63232  -0.60179  -0.57105  -0.55593  -0.53982
  Beta  occ. eigenvalues --   -0.53679  -0.50522  -0.49401  -0.48356  -0.47504
  Beta  occ. eigenvalues --   -0.46568  -0.46268  -0.45430  -0.45183  -0.44662
  Beta  occ. eigenvalues --   -0.43821  -0.43317  -0.42396  -0.41388  -0.41201
  Beta  occ. eigenvalues --   -0.39547  -0.39269  -0.39178  -0.38336  -0.37991
  Beta  occ. eigenvalues --   -0.37838  -0.37458  -0.37002  -0.32912  -0.29857
  Beta  occ. eigenvalues --   -0.28787  -0.28167  -0.28147  -0.26903  -0.23198
  Beta virt. eigenvalues --   -0.12258  -0.07101  -0.03883  -0.01364  -0.01058
  Beta virt. eigenvalues --   -0.00186   0.00698   0.01482   0.01886   0.02794
  Beta virt. eigenvalues --    0.03100   0.03421   0.03575   0.03720   0.04112

 Mulliken charges and spin densities:
               1          2
     1  C   -0.535164  -0.000000
     2  C    0.570953   0.000000
     3  C    0.569340   0.000000
     4  C   -0.535026  -0.000000
     5  C   -0.590231  -0.000000
     6  O   -0.343846  -0.000000
     7  C    0.474555  -0.000000
     8  C   -0.460003   0.000000
     9  O   -0.337910  -0.000000
    10  C    0.115814   0.000000
    11  C    0.130886   0.000000
    12  C   -0.363100  -0.000000
    13  C   -0.362996  -0.000000
    14  C    0.131134  -0.000000
    15  C    0.114075   0.000000
    16  C   -0.460112   0.000000
    17  O   -0.337913  -0.000000
    18  C    0.474595   0.000000
    19  C   -0.590313   0.000000
    20  O   -0.343831  -0.000000
    21  H    0.192413   0.000000
    22  H    0.196001   0.000000
    23  H    0.171482  -0.000000
    24  H    0.195745   0.000000
    25  H    0.192364   0.000000
    26  H    0.171708  -0.000000
    27  H    0.378190   0.000000
    28  H    0.193045  -0.000000
    29  H    0.208442  -0.000000
    30  H    0.208446  -0.000000
    31  H    0.193046   0.000000
    32  H    0.378214  -0.000000
 Sum of Mulliken charges =  -0.00000   0.00000

 Dipole moment (field-independent basis, Debye):
    X=             -0.7248    Y=             -0.0002    Z=              0.0024  Tot=              0.7248
 Quadrupole moment (field-independent basis, Debye-Ang):
   XX=            -82.5675   YY=           -131.8393   ZZ=           -117.4043
   XY=              0.0001   XZ=              0.0016   YZ=              0.0188

 Normal termination of Gaussian 16 at Tue Jan 16 05:08:26 2024.
