 Gaussian 16, Revision A.03,
 Gaussian 16:  ES64L-G16RevA.03 25-Dec-2016

 ----------------------------------------------------------------
 #P UB3LYP/6-311++G(d,p) SCRF=(PCM,Solvent=n,n-DiMethylFormamide)
 ----------------------------------------------------------------

 ------------------
 Quinone PCM in DMF
 ------------------
 Symbolic Z-matrix:
 Charge =  0 Multiplicity = 1

                         Standard orientation:
 ---------------------------------------------------------------------
 Center     Atomic      Atomic             Coordinates (Angstroms)
 Number     Number       Type             X           Y           Z
 ---------------------------------------------------------------------
      1          6           0       -3.855335   -2.447965   -0.101792
      2          6           0       -3.115691   -1.258774    0.432739
      3          8           0       -2.812920   -1.044984    1.571500
      4          8           0       -2.821296   -0.383598   -0.596550
      5          6           0       -1.966384    0.673621   -0.345477
      6          6           0       -2.540387    1.939595   -0.318267
      7          6           0       -1.745448    3.066836   -0.141961
      8          6           0       -0.371647    2.926849    0.006978
      9          6           0        0.212164    1.660366   -0.027170
     10          6           0        1.699400    1.584484    0.124515
     11          8           0        2.364262    2.593094    0.295630
     12          6           0        2.334496    0.242889    0.052808
     13          6           0        3.723361    0.135474    0.179693
     14          6           0        4.334368   -1.110073    0.111843
     15          6           0        3.561562   -2.258839   -0.082437
     16          6           0        2.181370   -2.159535   -0.207703
     17          6           0        1.557166   -0.909341   -0.142144
     18          6           0        0.069213   -0.844974   -0.272675
     19          8           0       -0.571243   -1.871838   -0.432880
     20          6           0       -0.576062    0.500648   -0.206433
     21          1           0       -4.629431   -2.140043   -0.806296
     22          1           0       -4.287589   -3.009566    0.723783
     23          1           0       -3.139366   -3.074455   -0.639467
     24          1           0       -3.614069    2.019230   -0.436477
     25          1           0       -2.200616    4.050073   -0.118152
     26          1           0        0.272511    3.785046    0.148047
     27          1           0        4.299666    1.039808    0.330256
     28          1           0        5.410871   -1.190937    0.210494
     29          1           0        4.039338   -3.230594   -0.134052
     30          1           0        1.565385   -3.037530   -0.354845
 ---------------------------------------------------------------------

 SCF Done:  E(UB3LYP) =  -916.904929187     A.U. after   15 cycles

 The electronic state is 1-A.
 Alpha  occ. eigenvalues --  -19.18964 -19.13574 -19.13511 -19.13493 -10.32674
 Alpha  occ. eigenvalues --  -10.29099 -10.28718 -10.27076 -10.22202 -10.21770
 Alpha  occ. eigenvalues --  -10.21190 -10.21075 -10.20661 -10.20496 -10.20163
 Alpha  occ. eigenvalues --  -10.20098 -10.20053 -10.20001 -10.19955 -10.18463
 Alpha  occ. eigenvalues --   -1.13414  -1.07174  -1.06970  -1.05378  -0.90027
 Alpha  occ. eigenvalues --   -0.88721  -0.81927  -0.79907  -0.78119  -0.77732
 Alpha  occ. eigenvalues --   -0.75600  -0.69806  -0.67742  -0.65675  -0.64525
 Alpha  occ. eigenvalues --   -0.60686  -0.57563  -0.56869  -0.55361  -0.51522
 Alpha  occ. eigenvalues --   -0.50949  -0.50674  -0.50303  -0.49151  -0.48789
 Alpha  occ. eigenvalues --   -0.47646  -0.46118  -0.45945  -0.45396  -0.45083
 Alpha  occ. eigenvalues --   -0.44391  -0.42997  -0.42258  -0.41840  -0.40880
 Alpha  occ. eigenvalues --   -0.39643  -0.39356  -0.38896  -0.38205  -0.37270
 Alpha  occ. eigenvalues --   -0.37105  -0.34383  -0.30714  -0.29584  -0.29213
 Alpha  occ. eigenvalues --   -0.28158  -0.28142  -0.27926  -0.27474
 Alpha virt. eigenvalues --   -0.12301  -0.07847  -0.04242  -0.03182  -0.01514
 Alpha virt. eigenvalues --   -0.00717   0.00090   0.00392   0.01653   0.01937
 Alpha virt. eigenvalues --    0.02756   0.02854   0.03212   0.03313   0.03889

  Beta  occ. eigenvalues --  -19.18964 -19.13574 -19.13511 -19.13493 -10.32674
  Beta  occ. eigenvalues --  -10.29099 -10.28718 -10.27076 -10.22202 -10.21770
  Beta  occ. eigenvalues --  -10.21190 -10.21075 -10.20661 -10.20496 -10.20163
  Beta  occ. eigenvalues --  -10.20098 -10.20053 -10.20001 -10.19955 -10.18463
  Beta  occ. eigenvalues --   -1.13414  -1.07174  -1.06970  -1.05378  -0.90027
  Beta  occ. eigenvalues --   -0.88721  -0.81927  -0.79907  -0.78119  -0.77732
  Beta  occ. eigenvalues --   -0.75600  -0.69806  -0.67742  -0.65675  -0.64525
  Beta  occ. eigenvalues --   -0.60686  -0.57563  -0.56869  -0.55361  -0.51522
  Beta  occ. eigenvalues --   -0.50949  -0.50674  -0.50303  -0.49151  -0.48789
  Beta  occ. eigenvalues --   -0.47646  -0.46118  -0.45945  -0.45396  -0.45083
  Beta  occ. eigenvalues --   -0.44391  -0.42997  -0.42258  -0.41840  -0.40880
  Beta  occ. eigenvalues --   -0.39643  -0.39356  -0.38896  -0.38205  -0.37270
  Beta  occ. eigenvalues --   -0.37105  -0.34383  -0.30714  -0.29584  -0.29213
  Beta  occ. eigenvalues --   -0.28158  -0.28142  -0.27926  -0.27474
  Beta virt. eigenvalues --   -0.12301  -0.07847  -0.04242  -0.03182  -0.01514
  Beta virt. eigenvalues --   -0.00717   0.00090   0.00392   0.01653   0.01937
  Beta virt. eigenvalues --    0.02756   0.02854   0.03212   0.03313   0.03889

 Mulliken charges and spin densities:
               1          2
     1  C   -0.477812  -0.000000
     2  C    0.035214   0.000000
     3  O   -0.262989  -0.000000
     4  O   -0.000569  -0.000000
     5  C    0.052877   0.000000
     6  C    0.155225  -0.000000
     7  C   -0.440307   0.000000
     8  C    0.070018  -0.000000
     9  C    0.535819  -0.000000
    10  C   -0.631610   0.000000
    11  O   -0.264555  -0.000000
    12  C   -0.119076   0.000000
    13  C    0.061349   0.000000
    14  C   -0.454921   0.000000
    15  C   -0.386906   0.000000
    16  C    0.179632  -0.000000
    17  C    0.050859   0.000000
    18  C   -0.357938  -0.000000
    19  O   -0.249715   0.000000
    20  C    0.523672   0.000000
    21  H    0.185667   0.000000
    22  H    0.174625  -0.000000
    23  H    0.198962  -0.000000
    24  H    0.222636  -0.000000
    25  H    0.224672   0.000000
    26  H    0.189224  -0.000000
    27  H    0.183841  -0.000000
    28  H    0.208056  -0.000000
    29  H    0.211663   0.000000
    30  H    0.182389  -0.000000
 Sum of Mulliken charges =  -0.00000  -0.00000

 Dipole moment (field-independent basis, Debye):
    X=             -0.1158    Y=             -0.5978    Z=             -2.2538  Tot=              2.3346
 Quadrupole moment (field-independent basis, Debye-Ang):
   XX=            -90.7753   YY=           -104.9034   ZZ=           -122.7633
   XY=            -16.0048   XZ=              5.6842   YZ=              0.5021

 Normal termination of Gaussian 16 at Sun Jan 14 01:07:14 2024.
