 Gaussian 16, Revision A.03,
 Gaussian 16:  ES64L-G16RevA.03 25-Dec-2016

 ----------------------------------------------------------------------
 #P UB3LYP/6-311++G(d,p) nosym opt freq SCRF=(PCM,Solvent=n,n-DiMethylF
 ormamide)
 ----------------------------------------------------------------------

 -------
 Reduced
 -------
 Symbolic Z-matrix:
 Charge = -3 Multiplicity = 1

 SCF Done:  E(UB3LYP) =  -1312.62893206     A.U. after   18 cycles
 SCF Done:  E(UB3LYP) =  -1312.63317233     A.U. after   15 cycles
 SCF Done:  E(UB3LYP) =  -1312.63375167     A.U. after   14 cycles
 SCF Done:  E(UB3LYP) =  -1312.63388318     A.U. after   13 cycles
 SCF Done:  E(UB3LYP) =  -1312.63293002     A.U. after   14 cycles
 SCF Done:  E(UB3LYP) =  -1312.63401540     A.U. after   14 cycles
 SCF Done:  E(UB3LYP) =  -1312.63412285     A.U. after   13 cycles
 SCF Done:  E(UB3LYP) =  -1312.63412740     A.U. after   12 cycles
 SCF Done:  E(UB3LYP) =  -1312.63413699     A.U. after   11 cycles
 SCF Done:  E(UB3LYP) =  -1312.63413869     A.U. after   10 cycles
 SCF Done:  E(UB3LYP) =  -1312.63413905     A.U. after   10 cycles
 SCF Done:  E(UB3LYP) =  -1312.63413913     A.U. after    9 cycles
 Optimization completed.
    -- Stationary point found.
 Normal termination of Gaussian 16 at Sat Feb 10 23:48:15 2024.

 ----------------------------------------------------------------------
 #P Geom=AllCheck Guess=TCheck SCRF=Check GenChk UB3LYP/6-311++G(d,p) F
 req
 ----------------------------------------------------------------------

 Structure from the checkpoint file:  "222-an.chk"
 -------
 Reduced
 -------
 Charge = -3 Multiplicity = 1

                          Input orientation:
 ---------------------------------------------------------------------
 Center     Atomic      Atomic             Coordinates (Angstroms)
 Number     Number       Type             X           Y           Z
 ---------------------------------------------------------------------
      1          8           0       -2.576746   -2.858482   -1.619783
      2         16           0       -2.988910   -2.320238   -0.288167
      3          8           0       -2.546828   -3.133835    0.885124
      4          8           0       -4.485364   -2.155474   -0.254634
      5          6           0       -2.322325   -0.603381   -0.085717
      6          6           0       -3.336830    0.323803    0.027991
      7          6           0       -3.064227    1.700369    0.229086
      8          6           0       -1.763610    2.115631    0.323619
      9          6           0       -0.668934    1.216783    0.216249
     10          6           0        0.646551    1.787442    0.338206
     11          8           0        0.838065    3.062822    0.544034
     12          6           0        1.736820    0.865961    0.218446
     13          6           0        3.081730    1.325346    0.326104
     14          6           0        4.157166    0.475133    0.211784
     15          6           0        3.935503   -0.910448   -0.019868
     16          6           0        2.646913   -1.385133   -0.127284
     17          6           0        1.509277   -0.538418   -0.016440
     18          6           0        0.188309   -1.125122   -0.146642
     19          8           0        0.062632   -2.387194   -0.370415
     20          6           0       -0.923408   -0.216193   -0.011713
     21          1           0       -4.360544   -0.016231   -0.029356
     22          1           0       -3.886650    2.403654    0.314043
     23          1           0       -1.518019    3.158434    0.487443
     24          1           0        3.230599    2.384654    0.501984
     25          1           0        5.170389    0.856463    0.297310
     26          1           0        4.779241   -1.587876   -0.110940
     27          1           0        2.459200   -2.438471   -0.302604
 ---------------------------------------------------------------------

 SCF Done:  E(UB3LYP) =  -1312.63413913     A.U. after    1 cycles

 Alpha  occ. eigenvalues --  -89.01950 -19.06324 -19.06304 -19.05996 -19.01400
 Alpha  occ. eigenvalues --  -19.00640 -10.17645 -10.17200 -10.16867 -10.14808
 Alpha  occ. eigenvalues --  -10.14712 -10.14707 -10.14669 -10.14540 -10.14467
 Alpha  occ. eigenvalues --  -10.14457 -10.14340 -10.13701 -10.13449 -10.13402
 Alpha  occ. eigenvalues --   -8.07806  -6.04090  -6.04075  -6.03962  -1.07683
 Alpha  occ. eigenvalues --   -0.94318  -0.93608  -0.92832  -0.92364  -0.82628
 Alpha  occ. eigenvalues --   -0.82041  -0.75191  -0.73211  -0.72014  -0.70472
 Alpha  occ. eigenvalues --   -0.63853  -0.61713  -0.59006  -0.58527  -0.54321
 Alpha  occ. eigenvalues --   -0.51486  -0.50302  -0.49355  -0.44974  -0.44032
 Alpha  occ. eigenvalues --   -0.43363  -0.42699  -0.42620  -0.42397  -0.41407
 Alpha  occ. eigenvalues --   -0.39614  -0.37835  -0.37401  -0.36328  -0.36124
 Alpha  occ. eigenvalues --   -0.34748  -0.34061  -0.33234  -0.32120  -0.31369
 Alpha  occ. eigenvalues --   -0.30986  -0.30423  -0.29958  -0.29803  -0.27528
 Alpha  occ. eigenvalues --   -0.26763  -0.25803  -0.23182  -0.22829  -0.22209
 Alpha  occ. eigenvalues --   -0.21606  -0.21475  -0.19470  -0.18391  -0.10373
 Alpha virt. eigenvalues --   -0.02934   0.00345   0.00368   0.01052   0.01561
 Alpha virt. eigenvalues --    0.01914   0.02770   0.02969   0.04777   0.04837
 Alpha virt. eigenvalues --    0.04966   0.05153   0.06163   0.06751   0.06886

  Beta  occ. eigenvalues --  -89.01950 -19.06324 -19.06304 -19.05996 -19.01400
  Beta  occ. eigenvalues --  -19.00640 -10.17645 -10.17200 -10.16867 -10.14808
  Beta  occ. eigenvalues --  -10.14712 -10.14707 -10.14669 -10.14540 -10.14467
  Beta  occ. eigenvalues --  -10.14457 -10.14340 -10.13701 -10.13449 -10.13402
  Beta  occ. eigenvalues --   -8.07806  -6.04090  -6.04075  -6.03962  -1.07683
  Beta  occ. eigenvalues --   -0.94318  -0.93608  -0.92832  -0.92364  -0.82628
  Beta  occ. eigenvalues --   -0.82041  -0.75191  -0.73211  -0.72014  -0.70472
  Beta  occ. eigenvalues --   -0.63853  -0.61713  -0.59006  -0.58527  -0.54321
  Beta  occ. eigenvalues --   -0.51486  -0.50302  -0.49355  -0.44974  -0.44032
  Beta  occ. eigenvalues --   -0.43363  -0.42699  -0.42620  -0.42397  -0.41407
  Beta  occ. eigenvalues --   -0.39614  -0.37835  -0.37401  -0.36328  -0.36124
  Beta  occ. eigenvalues --   -0.34748  -0.34061  -0.33234  -0.32120  -0.31369
  Beta  occ. eigenvalues --   -0.30986  -0.30423  -0.29958  -0.29803  -0.27528
  Beta  occ. eigenvalues --   -0.26763  -0.25803  -0.23182  -0.22829  -0.22209
  Beta  occ. eigenvalues --   -0.21606  -0.21475  -0.19470  -0.18391  -0.10373
  Beta virt. eigenvalues --   -0.02934   0.00345   0.00368   0.01052   0.01561
  Beta virt. eigenvalues --    0.01914   0.02770   0.02969   0.04777   0.04837
  Beta virt. eigenvalues --    0.04966   0.05153   0.06163   0.06751   0.06886

 Mulliken charges and spin densities:
               1          2
     1  O   -0.442408   0.000000
     2  S    0.706907   0.000000
     3  O   -0.454988   0.000000
     4  O   -0.480982   0.000000
     5  C   -0.932760  -0.000000
     6  C    0.560528   0.000000
     7  C   -0.395376   0.000000
     8  C   -0.486863  -0.000000
     9  C    0.721726  -0.000000
    10  C   -0.457962  -0.000000
    11  O   -0.673479   0.000000
    12  C    0.121029  -0.000000
    13  C   -0.038374  -0.000000
    14  C   -0.505531   0.000000
    15  C   -0.534490  -0.000000
    16  C    0.047523   0.000000
    17  C    0.394734   0.000000
    18  C   -0.760730   0.000000
    19  O   -0.580077   0.000000
    20  C    0.054790   0.000000
    21  H    0.226038   0.000000
    22  H    0.169326   0.000000
    23  H    0.137125  -0.000000
    24  H    0.146049  -0.000000
    25  H    0.155834  -0.000000
    26  H    0.156655  -0.000000
    27  H    0.145757  -0.000000
 Sum of Mulliken charges =  -3.00000   0.00000

 Dipole moment (field-independent basis, Debye):
    X=             13.5971    Y=             12.6732    Z=              1.0346  Tot=             18.6161
 Quadrupole moment (field-independent basis, Debye-Ang):
   XX=           -217.1922   YY=           -233.7867   ZZ=           -148.1939
   XY=            -59.3047   XZ=             -7.9706   YZ=            -13.1166

  Exact polarizability: 591.391  -3.660 432.454   7.849  37.477 197.744
 Approx polarizability: 649.791 -16.720 498.989   7.388  44.910 222.845

                      1                      2                      3
                      A                      A                      A
 Frequencies --     35.0437                51.1315                92.3655
 Red. masses --      8.5579                 7.7761                 9.6518
 Frc consts  --      0.0062                 0.0120                 0.0485
 IR Inten    --      3.6151                17.6268                 1.2046

                      4                      5                      6
                      A                      A                      A
 Frequencies --    112.9306               136.3388               160.4438
 Red. masses --      4.2910                 9.6429                 6.4250
 Frc consts  --      0.0322                 0.1056                 0.0974
 IR Inten    --      0.4139                 8.3384                 3.3356

                      7                      8                      9
                      A                      A                      A
 Frequencies --    184.7333               208.4200               231.6595
 Red. masses --      7.7994                11.2619                 5.6861
 Frc consts  --      0.1568                 0.2882                 0.1798
 IR Inten    --      3.0198                 1.6495                 0.2515

                     10                     11                     12
                      A                      A                      A
 Frequencies --    282.1727               296.7527               315.7487
 Red. masses --      9.0157                 9.3647                 6.6717
 Frc consts  --      0.4229                 0.4859                 0.3919
 IR Inten    --      4.7295                 2.2294                 0.7070

                     13                     14                     15
                      A                      A                      A
 Frequencies --    348.2766               370.8059               395.0674
 Red. masses --      6.3803                10.6421                 7.4750
 Frc consts  --      0.4560                 0.8621                 0.6874
 IR Inten    --     10.1052                 4.0130                 0.7072

                     16                     17                     18
                      A                      A                      A
 Frequencies --    400.5280               439.6390               452.2933
 Red. masses --      8.6682                 3.2543                 8.3706
 Frc consts  --      0.8193                 0.3706                 1.0089
 IR Inten    --      4.4704                 9.3537                 5.6460

                     19                     20                     21
                      A                      A                      A
 Frequencies --    496.7867               499.1783               502.3730
 Red. masses --      5.4110                 6.2509                11.3049
 Frc consts  --      0.7868                 0.9177                 1.6810
 IR Inten    --     11.5717                14.4761                 7.7694

                     22                     23                     24
                      A                      A                      A
 Frequencies --    514.3503               569.6450               588.0853
 Red. masses --     12.6886                 5.4736                15.1963
 Frc consts  --      1.9778                 1.0465                 3.0965
 IR Inten    --     42.9029                35.9532               466.4948

                     25                     26                     27
                      A                      A                      A
 Frequencies --    607.2121               632.4936               648.2318
 Red. masses --      6.5291                 4.5509                 7.2743
 Frc consts  --      1.4184                 1.0726                 1.8010
 IR Inten    --     52.3073                17.8855                28.2612

                     28                     29                     30
                      A                      A                      A
 Frequencies --    683.7763               688.4439               725.6284
 Red. masses --      6.9258                 2.2296                 3.5686
 Frc consts  --      1.9079                 0.6226                 1.1071
 IR Inten    --      3.6446               134.5172                 0.6280

                     31                     32                     33
                      A                      A                      A
 Frequencies --    737.6649               764.7144               779.0173
 Red. masses --      7.6621                 1.5935                 2.3127
 Frc consts  --      2.4565                 0.5490                 0.8269
 IR Inten    --     12.3833                 0.1721                71.1135

                     34                     35                     36
                      A                      A                      A
 Frequencies --    807.7589               818.6862               851.5816
 Red. masses --      2.7317                 6.7075                 1.7772
 Frc consts  --      1.0501                 2.6488                 0.7594
 IR Inten    --     17.8718                 1.9021                 0.5139

                     37                     38                     39
                      A                      A                      A
 Frequencies --    910.5822               921.5958               934.9878
 Red. masses --      1.3714                 7.3690                 8.1921
 Frc consts  --      0.6700                 3.6876                 4.2195
 IR Inten    --      2.0007                22.6046                93.0365

                     40                     41                     42
                      A                      A                      A
 Frequencies --    962.8178               969.8587               976.1913
 Red. masses --     11.6351                 1.3723                 1.2603
 Frc consts  --      6.3549                 0.7605                 0.7076
 IR Inten    --    528.5662                 2.4380                 0.2794

                     43                     44                     45
                      A                      A                      A
 Frequencies --    983.8631              1019.2333              1053.0153
 Red. masses --      1.3246                 2.0590                 6.8637
 Frc consts  --      0.7554                 1.2602                 4.4841
 IR Inten    --      1.8334                85.1639               498.6357

                     46                     47                     48
                      A                      A                      A
 Frequencies --   1081.4792              1085.9706              1104.3731
 Red. masses --      3.0469                 4.3726                20.1262
 Frc consts  --      2.0997                 3.0383                14.4625
 IR Inten    --    307.0894               840.6013               617.2197

                     49                     50                     51
                      A                      A                      A
 Frequencies --   1108.5834              1115.8058              1150.6474
 Red. masses --      2.2349                 1.7063                 1.4551
 Frc consts  --      1.6183                 1.2516                 1.1351
 IR Inten    --     34.0991               448.0159                52.5946

                     52                     53                     54
                      A                      A                      A
 Frequencies --   1179.1270              1184.7715              1214.9481
 Red. masses --      1.9680                 1.8405                 2.2531
 Frc consts  --      1.6121                 1.5222                 1.9595
 IR Inten    --    203.8317                54.2895               299.3414

                     55                     56                     57
                      A                      A                      A
 Frequencies --   1240.1340              1278.1232              1324.7512
 Red. masses --      2.8307                 5.1498                 2.7415
 Frc consts  --      2.5650                 4.9566                 2.8347
 IR Inten    --    411.0507               879.6848              1230.8067

                     58                     59                     60
                      A                      A                      A
 Frequencies --   1346.9307              1363.0059              1411.9558
 Red. masses --      7.1124                 2.4175                 3.0733
 Frc consts  --      7.6025                 2.6461                 3.6099
 IR Inten    --    484.3940               831.0011               291.0029

                     61                     62                     63
                      A                      A                      A
 Frequencies --   1448.6109              1458.2438              1478.5891
 Red. masses --      5.4243                 2.9688                 3.0057
 Frc consts  --      6.7065                 3.7195                 3.8717
 IR Inten    --      1.3886               323.7907                31.1375

                     64                     65                     66
                      A                      A                      A
 Frequencies --   1487.8113              1531.4553              1577.0553
 Red. masses --      4.7635                 5.4428                 7.6858
 Frc consts  --      6.2125                 7.5211                11.2624
 IR Inten    --     58.2869                75.5625                22.3322

                     67                     68                     69
                      A                      A                      A
 Frequencies --   1596.3379              1608.1541              3138.1391
 Red. masses --      5.0165                 5.4077                 1.0849
 Frc consts  --      7.5318                 8.2398                 6.2946
 IR Inten    --     55.3989                 9.7850                30.8963

                     70                     71                     72
                      A                      A                      A
 Frequencies --   3149.7700              3154.3406              3176.7716
 Red. masses --      1.0873                 1.0901                 1.0906
 Frc consts  --      6.3555                 6.3902                 6.4849
 IR Inten    --     43.6748                45.1879                41.2986

                     73                     74                     75
                      A                      A                      A
 Frequencies --   3180.7968              3181.7414              3211.9558
 Red. masses --      1.0918                 1.0918                 1.0894
 Frc consts  --      6.5085                 6.5120                 6.6219
 IR Inten    --    101.4760                21.3796                 1.7255

 - Thermochemistry -
 -------------------
 Temperature   298.150 Kelvin.  Pressure   1.00000 Atm.
 Atom     1 has atomic number  8 and mass  15.99491

 Molecular mass:   287.00142 amu.
 Principal axes and moments of inertia in atomic units:
                           1         2         3
     Eigenvalues --  3017.739167608.20257**********
           X            0.91411  -0.40529  -0.01218
           Y            0.39952   0.90542  -0.14349
           Z            0.06918   0.12630   0.98958
 This molecule is an asymmetric top.
 Rotational symmetry number  1.
 Warning -- assumption of classical behavior for rotation
           may cause significant error
 Rotational temperatures (Kelvin)      0.02870     0.01138     0.00844
 Rotational constants (GHZ):           0.59804     0.23721     0.17588
 Zero-point vibrational energy     464943.6 (Joules/Mol)
                                  111.12419 (Kcal/Mol)
 Warning -- explicit consideration of  25 degrees of freedom as
           vibrations may cause significant error
 Vibrational temperatures:     50.42    73.57   132.89   162.48   196.16
          (Kelvin)            230.84   265.79   299.87   333.31   405.98
                              426.96   454.29   501.09   533.51   568.41
                              576.27   632.54   650.75   714.77   718.21
                              722.80   740.04   819.59   846.12   873.64
                              910.02   932.66   983.80   990.52  1044.02
                             1061.34  1100.25  1120.83  1162.18  1177.91
                             1225.24  1310.12  1325.97  1345.24  1385.28
                             1395.41  1404.52  1415.56  1466.45  1515.05
                             1556.01  1562.47  1588.95  1595.00  1605.40
                             1655.52  1696.50  1704.62  1748.04  1784.28
                             1838.93  1906.02  1937.93  1961.06  2031.49
                             2084.23  2098.09  2127.36  2140.63  2203.42
                             2269.03  2296.77  2313.77  4515.08  4531.82
                             4538.39  4570.67  4576.46  4577.82  4621.29

 Zero-point correction=                           0.177088 (Hartree/Particle)
 Thermal correction to Energy=                    0.192309
 Thermal correction to Enthalpy=                  0.193253
 Thermal correction to Gibbs Free Energy=         0.134244
 Sum of electronic and zero-point Energies=          -1312.457051
 Sum of electronic and thermal Energies=             -1312.441830
 Sum of electronic and thermal Enthalpies=           -1312.440886
 Sum of electronic and thermal Free Energies=        -1312.499895

                     E (Thermal)             CV                S
                      KCal/Mol        Cal/Mol-Kelvin    Cal/Mol-Kelvin
 Total                  120.676             60.829            124.194
 Electronic               0.000              0.000              0.000
 Translational            0.889              2.981             42.861
 Rotational               0.889              2.981             33.821
 Vibrational            118.898             54.868             47.512
 Vibration     1          0.594              1.982              5.521
 Vibration     2          0.595              1.977              4.773
 Vibration     3          0.602              1.955              3.609
 Vibration     4          0.607              1.939              3.218
 Vibration     5          0.614              1.917              2.855
 Vibration     6          0.622              1.891              2.545
 Vibration     7          0.631              1.861              2.280
 Vibration     8          0.642              1.828              2.057
 Vibration     9          0.653              1.793              1.866
 Vibration    10          0.681              1.707              1.520
 Vibration    11          0.690              1.680              1.435
 Vibration    12          0.703              1.644              1.332
 Vibration    13          0.726              1.579              1.174
 Vibration    14          0.743              1.532              1.076
 Vibration    15          0.762              1.481              0.981
 Vibration    16          0.766              1.469              0.961
 Vibration    17          0.800              1.384              0.828
 Vibration    18          0.811              1.356              0.789
 Vibration    19          0.852              1.257              0.666
 Vibration    20          0.855              1.252              0.660
 Vibration    21          0.858              1.245              0.652
 Vibration    22          0.869              1.218              0.623
 Vibration    23          0.926              1.097              0.505
 Vibration    24          0.945              1.057              0.471
 Vibration    25          0.966              1.017              0.437

 Optimization completed.
    -- Stationary point found.
 Normal termination of Gaussian 16 at Sun Feb 11 00:42:56 2024.
