 Q-Chem 5.4, Q-Chem, Inc., Pleasanton, CA (2021)
 Q-Chem 5.4.0 for Intel X86 EM64T Linux

User input:
--------------------------------------------------------------
$molecule
-2 1
C                  0.2258410000     -0.6184930000     -0.0875550000
C                 -0.3771150000     -1.7925610000     -0.5491400000
C                 -1.7931220000     -1.9480680000     -0.6172110000
O                 -2.3653350000     -3.0152840000     -1.0326690000
C                 -2.5686660000     -0.7820080000     -0.1728470000
C                 -3.9764390000     -0.8263910000     -0.2011980000
C                 -4.7573170000      0.2447930000      0.2032100000
C                 -4.1290340000      1.4307160000      0.6619300000
C                 -2.7504680000      1.5076170000      0.7037340000
C                 -1.9293700000      0.4246770000      0.2964340000
C                 -0.4971370000      0.5398550000      0.3566780000
O                  0.1369630000      1.5968110000      0.7689640000
H                  0.2423770000     -2.6215430000     -0.8664230000
H                 -4.4227980000     -1.7496200000     -0.5586130000
H                 -5.8430730000      0.1786520000      0.1694350000
H                 -4.7327760000      2.2788110000      0.9808810000
H                 -2.2455870000      2.4035180000      1.0514350000
N                  1.6158670000     -0.3754860000     -0.0111880000
C                  2.7032020000     -1.1513970000     -0.2426920000
N                  3.9161220000     -0.5046160000      0.1009030000
C                  5.1451640000     -0.9613210000     -0.5272880000
O                  2.7118290000     -2.3066390000     -0.6670730000
H                  1.7231320000      0.5723740000      0.3682400000
H                  3.8401840000      0.5004670000      0.1749510000
H                  5.2016610000     -2.0465190000     -0.4476830000
H                  6.0057080000     -0.5263080000     -0.0112380000
H                  5.2195320000     -0.6951830000     -1.5964630000
$end
$rem
MAX_SCF_CYCLES=200
BASIS  =  6-311++G(d,p)
GUI  =  2
JOB_TYPE  =  SP
METHOD  =  B3LYP
SOLVENT_METHOD = COSMO
$end
$solvent
dielectric 37.219
opticaldielectric 1.43
$end

--------------------------------------------------------------

             Standard Nuclear Orientation (Angstroms)
    I     Atom           X                Y                Z
 ----------------------------------------------------------------
    1      C       0.5741411547     0.0165355181    -0.0270129709
    2      C       0.1769009862     1.3570544555    -0.0108405999
    3      C      -1.1948245597     1.7469157768     0.0055633343
    4      O      -1.5799967335     2.9677780103     0.0165570200
    5      C      -2.1567336067     0.6363623855     0.0106559223
    6      C      -3.5388452857     0.9084099113     0.0295212330
    7      C      -4.4898408789    -0.0996994027     0.0381488513
    8      C      -4.0691281238    -1.4541325067     0.0287322063
    9      C      -2.7213915288    -1.7563322768     0.0090618217
   10      C      -1.7287972577    -0.7426736943    -0.0012895169
   11      C      -0.3347313162    -1.0951102912    -0.0248537566
   12      O       0.1132379222    -2.3151090341    -0.0369024361
   13      H       0.9281220026     2.1363551059    -0.0135750594
   14      H      -3.8241255969     1.9562145145     0.0368889413
   15      H      -5.5504569544     0.1437560125     0.0524483291
   16      H      -4.8076629819    -2.2541344739     0.0366308077
   17      H      -2.3737660194    -2.7846929890     0.0006855380
   18      N       1.9070380408    -0.4529224225    -0.0198203090
   19      C       3.1073422754     0.1737776455    -0.0864997914
   20      N       4.1905058826    -0.7344138856    -0.1839823813
   21      C       5.5089137226    -0.2852668378     0.2329292691
   22      O       3.3090753526     1.3877888461    -0.1019369939
   23      H       1.8525240942    -1.4779312806    -0.0369969669
   24      H       3.9655294583    -1.6761992620     0.1056163692
   25      H       5.7168527145     0.6795486835    -0.2286722384
   26      H       6.2641397618    -1.0032199966    -0.0991200948
   27      H       5.6094702384    -0.1670488348     1.3262764719
 ----------------------------------------------------------------

   20    -798.7148756069      5.60e-06  Convergence criterion met
 Total energy in the final basis set =     -798.7148756069
    6    -798.9974811195      3.10e-06  Convergence criterion met
 Total energy in the final basis set =     -798.9974811195

                    Orbital Energies (a.u.)
 --------------------------------------------------------------

 Alpha MOs
 -- Occupied --
-19.0818 -19.0318 -19.0269 -14.3226 -14.3178 -10.2887 -10.1857 -10.1815
-10.1742 -10.1738 -10.1525 -10.1495 -10.1485 -10.1482 -10.1437 -10.1403
-10.1234  -1.0423  -0.9565  -0.9467  -0.9198  -0.8884  -0.8290  -0.7685
 -0.7261  -0.7163  -0.6836  -0.6478  -0.6089  -0.5917  -0.5580  -0.5443
 -0.5322  -0.4979  -0.4691  -0.4595  -0.4472  -0.4389  -0.4310  -0.4168
 -0.4065  -0.4003  -0.3963  -0.3812  -0.3787  -0.3760  -0.3716  -0.3562
 -0.3361  -0.3287  -0.3265  -0.3096  -0.2867  -0.2718  -0.2523  -0.2343
 -0.2309  -0.2183  -0.2059  -0.2014  -0.1172

          Ground-State Mulliken Net Atomic Charges

     Atom                 Charge (a.u.)
  ----------------------------------------
      1 C                     0.547974
      2 C                     0.121797
      3 C                    -0.257498
      4 O                    -0.725781
      5 C                     0.558815
      6 C                     0.064224
      7 C                    -0.421130
      8 C                    -0.489188
      9 C                    -0.025324
     10 C                    -0.260092
     11 C                    -1.206636
     12 O                    -0.716582
     13 H                     0.197188
     14 H                     0.151147
     15 H                     0.180150
     16 H                     0.179724
     17 H                     0.164049
     18 N                    -0.266345
     19 C                     0.126004
     20 N                    -0.205876
     21 C                    -0.330675
     22 O                    -0.520999
     23 H                     0.378837
     24 H                     0.264760
     25 H                     0.166922
     26 H                     0.158049
     27 H                     0.166484
  ----------------------------------------
  Sum of atomic charges =    -2.000000

                    Cartesian Multipole Moments
 -----------------------------------------------------------------
    Charge (ESU x 10^10)
                -9.6064
    Dipole Moment (Debye)
         X       7.0635      Y      -8.0327      Z       1.1906
       Tot      10.7627
    Quadrupole Moments (Debye-Ang)
        XX    -128.8901     XY      -0.7414     YY    -161.7456
        XZ       5.0463     YZ      -1.2160     ZZ    -111.2397

 Total job time:  88.70s(wall), 679.27s(cpu)
        *  Thank you very much for using Q-Chem.  Have a nice day.  *
