 Gaussian 16, Revision A.03,
 Gaussian 16:  ES64L-G16RevA.03 25-Dec-2016

 ----------------------------------------------------------------------
 #P UB3LYP/6-311++G(d,p) nosym opt freq SCRF=(PCM,Solvent=n,n-DiMethylF
 ormamide)
 ----------------------------------------------------------------------

 -------
 Reduced
 -------
 Symbolic Z-matrix:
 Charge = -2 Multiplicity = 1

 SCF Done:  E(UB3LYP) =  -764.446149793     A.U. after   18 cycles
 SCF Done:  E(UB3LYP) =  -764.447483604     A.U. after   14 cycles
 SCF Done:  E(UB3LYP) =  -764.447805702     A.U. after   14 cycles
 SCF Done:  E(UB3LYP) =  -764.447851077     A.U. after   12 cycles
 SCF Done:  E(UB3LYP) =  -764.447859656     A.U. after   11 cycles
 SCF Done:  E(UB3LYP) =  -764.447864909     A.U. after   12 cycles
 Optimization completed.
    -- Stationary point found.
 Normal termination of Gaussian 16 at Sun Feb 11 16:18:48 2024.

 ----------------------------------------------------------------------
 #P Geom=AllCheck Guess=TCheck SCRF=Check GenChk UB3LYP/6-311++G(d,p) F
 req
 ----------------------------------------------------------------------

 Structure from the checkpoint file:  "329-an.chk"
 -------
 Reduced
 -------
 Charge = -2 Multiplicity = 1

                          Input orientation:
 ---------------------------------------------------------------------
 Center     Atomic      Atomic             Coordinates (Angstroms)
 Number     Number       Type             X           Y           Z
 ---------------------------------------------------------------------
      1          6           0       -0.638245    2.681025   -0.967679
      2          6           0       -1.708621    2.066055   -0.372165
      3          6           0       -1.583007    0.748267    0.162342
      4          6           0        0.633070    2.027304   -1.072162
      5          6           0        0.757189    0.691542   -0.530934
      6          6           0       -0.381563    0.088375    0.080450
      7          6           0        1.748061    2.624132   -1.669175
      8          6           0        2.996181    1.978337   -1.766066
      9          6           0        3.117007    0.624706   -1.219093
     10          6           0        1.999679    0.041140   -0.628811
     11          6           0        4.121218    2.617068   -2.378413
     12          6           0        5.300431    1.864013   -2.409958
     13          6           0        5.450883    0.560646   -1.894620
     14          6           0        4.386033   -0.121491   -1.279525
     15          8           0        4.132273    3.839147   -2.903863
     16          8           0        4.482870   -1.321209   -0.790578
     17          8           0        6.371654    2.502654   -3.006961
     18          1           0       -0.739478    3.683935   -1.372719
     19          1           0       -2.661813    2.580260   -0.303196
     20          1           0       -2.439083    0.275359    0.631328
     21          1           0       -0.279793   -0.914706    0.485507
     22          1           0        1.657600    3.625428   -2.077832
     23          1           0        2.108231   -0.961985   -0.228593
     24          1           0        6.417887    0.070170   -1.973283
     25          1           0        5.953641    3.362102   -3.250257
 ---------------------------------------------------------------------

 SCF Done:  E(UB3LYP) =  -764.447864909     A.U. after    1 cycles

 Alpha  occ. eigenvalues --  -19.11457 -19.02302 -19.02254 -10.18160 -10.18158
 Alpha  occ. eigenvalues --  -10.16474 -10.16459 -10.16365 -10.16267 -10.16205
 Alpha  occ. eigenvalues --  -10.16114 -10.16012 -10.15137 -10.14758 -10.14706
 Alpha  occ. eigenvalues --  -10.14533 -10.12132  -1.02481  -0.93365  -0.91657
 Alpha  occ. eigenvalues --   -0.85512  -0.80663  -0.76059  -0.75745  -0.70823
 Alpha  occ. eigenvalues --   -0.70611  -0.64434  -0.61627  -0.58972  -0.57948
 Alpha  occ. eigenvalues --   -0.54251  -0.51504  -0.50304  -0.47746  -0.45302
 Alpha  occ. eigenvalues --   -0.43985  -0.43090  -0.42163  -0.40812  -0.39943
 Alpha  occ. eigenvalues --   -0.39278  -0.37423  -0.37242  -0.36894  -0.36251
 Alpha  occ. eigenvalues --   -0.34990  -0.33709  -0.33358  -0.31786  -0.31256
 Alpha  occ. eigenvalues --   -0.30248  -0.28493  -0.27141  -0.22544  -0.21129
 Alpha  occ. eigenvalues --   -0.20508  -0.20128  -0.20063  -0.11341
 Alpha virt. eigenvalues --   -0.04054   0.00026   0.00171   0.00808   0.01335
 Alpha virt. eigenvalues --    0.01694   0.02577   0.02614   0.04365   0.04757
 Alpha virt. eigenvalues --    0.05329   0.05736   0.06154   0.06881   0.07094

  Beta  occ. eigenvalues --  -19.11457 -19.02302 -19.02254 -10.18160 -10.18158
  Beta  occ. eigenvalues --  -10.16474 -10.16459 -10.16365 -10.16267 -10.16205
  Beta  occ. eigenvalues --  -10.16114 -10.16012 -10.15137 -10.14758 -10.14706
  Beta  occ. eigenvalues --  -10.14533 -10.12132  -1.02481  -0.93365  -0.91657
  Beta  occ. eigenvalues --   -0.85512  -0.80663  -0.76059  -0.75745  -0.70823
  Beta  occ. eigenvalues --   -0.70611  -0.64434  -0.61627  -0.58972  -0.57948
  Beta  occ. eigenvalues --   -0.54251  -0.51504  -0.50304  -0.47746  -0.45302
  Beta  occ. eigenvalues --   -0.43985  -0.43090  -0.42163  -0.40812  -0.39943
  Beta  occ. eigenvalues --   -0.39278  -0.37423  -0.37242  -0.36894  -0.36251
  Beta  occ. eigenvalues --   -0.34990  -0.33709  -0.33358  -0.31786  -0.31256
  Beta  occ. eigenvalues --   -0.30248  -0.28493  -0.27141  -0.22544  -0.21129
  Beta  occ. eigenvalues --   -0.20508  -0.20128  -0.20063  -0.11341
  Beta virt. eigenvalues --   -0.04054   0.00026   0.00171   0.00808   0.01335
  Beta virt. eigenvalues --    0.01694   0.02577   0.02614   0.04365   0.04757
  Beta virt. eigenvalues --    0.05329   0.05736   0.06154   0.06881   0.07094

 Mulliken charges and spin densities:
               1          2
     1  C   -0.220575  -0.000000
     2  C   -0.353444   0.000000
     3  C   -0.380923   0.000000
     4  C    0.162128  -0.000000
     5  C    0.183242  -0.000000
     6  C   -0.204067   0.000000
     7  C   -0.026973   0.000000
     8  C    0.315939   0.000000
     9  C    0.296260  -0.000000
    10  C    0.100354  -0.000000
    11  C   -0.875176   0.000000
    12  C   -0.332721  -0.000000
    13  C    0.441547   0.000000
    14  C   -0.632324   0.000000
    15  O   -0.749816   0.000000
    16  O   -0.678977  -0.000000
    17  O   -0.351626   0.000000
    18  H    0.146597  -0.000000
    19  H    0.172689   0.000000
    20  H    0.170560  -0.000000
    21  H    0.148182   0.000000
    22  H    0.122829  -0.000000
    23  H    0.120689  -0.000000
    24  H    0.152258  -0.000000
    25  H    0.273346  -0.000000
 Sum of Mulliken charges =  -2.00000  -0.00000

 Dipole moment (field-independent basis, Debye):
    X=            -38.6627    Y=            -12.2842    Z=             17.0178  Tot=             43.9922
 Quadrupole moment (field-independent basis, Debye-Ang):
   XX=           -287.7442   YY=           -166.3048   ZZ=           -149.3388
   XY=            -46.3818   XZ=             73.6250   YZ=             37.9655

  Exact polarizability: 534.048 -26.455 315.678-105.876 -64.783 207.181
 Approx polarizability: 599.833 -30.109 372.735-119.448 -81.382 234.449

                      1                      2                      3
                      A                      A                      A
 Frequencies --     67.5120                82.7990               130.0368
 Red. masses --      5.9207                 5.2464                 9.9391
 Frc consts  --      0.0159                 0.0212                 0.0990
 IR Inten    --      2.2335                 0.3138                11.6847

                      4                      5                      6
                      A                      A                      A
 Frequencies --    168.4846               199.9969               249.1424
 Red. masses --      7.1520                 7.2298                 4.3428
 Frc consts  --      0.1196                 0.1704                 0.1588
 IR Inten    --     10.1151                 2.4524                 0.1113

                      7                      8                      9
                      A                      A                      A
 Frequencies --    287.6658               290.3018               302.3198
 Red. masses --      5.7103                 5.4025                 8.4503
 Frc consts  --      0.2784                 0.2683                 0.4550
 IR Inten    --     18.9249                 3.3009                 9.0833

                     10                     11                     12
                      A                      A                      A
 Frequencies --    328.7928               372.5613               405.8323
 Red. masses --      6.2320                 5.7826                10.2197
 Frc consts  --      0.3969                 0.4729                 0.9917
 IR Inten    --      4.2869                 0.3722                 2.3108

                     13                     14                     15
                      A                      A                      A
 Frequencies --    434.5204               469.0398               492.1689
 Red. masses --      3.9171                 2.5539                11.4388
 Frc consts  --      0.4357                 0.3310                 1.6325
 IR Inten    --      0.0598                34.1586                25.8967

                     16                     17                     18
                      A                      A                      A
 Frequencies --    503.4274               530.9398               587.8301
 Red. masses --      6.6798                 3.6506                 7.1740
 Frc consts  --      0.9974                 0.6063                 1.4606
 IR Inten    --     33.3122                 6.0441                44.7631

                     19                     20                     21
                      A                      A                      A
 Frequencies --    602.4979               621.8756               648.9881
 Red. masses --      3.0293                 6.6610                 6.3154
 Frc consts  --      0.6479                 1.5177                 1.5672
 IR Inten    --     13.6715                26.3790                26.6052

                     22                     23                     24
                      A                      A                      A
 Frequencies --    694.8134               705.8696               706.7469
 Red. masses --      5.0155                 1.1991                 5.4259
 Frc consts  --      1.4266                 0.3520                 1.5968
 IR Inten    --      0.4717                97.5711                12.7083

                     25                     26                     27
                      A                      A                      A
 Frequencies --    741.3359               746.9065               757.6966
 Red. masses --      3.5827                 1.3190                 3.0046
 Frc consts  --      1.1601                 0.4335                 1.0163
 IR Inten    --     32.8966                71.1055                17.9814

                     28                     29                     30
                      A                      A                      A
 Frequencies --    760.8298               781.8865               792.9222
 Red. masses --      5.8072                 4.5682                 2.1508
 Frc consts  --      1.9806                 1.6454                 0.7967
 IR Inten    --    135.5807               146.5908                75.2483

                     31                     32                     33
                      A                      A                      A
 Frequencies --    837.8202               877.2597               908.8623
 Red. masses --      1.3641                 1.6002                 4.7060
 Frc consts  --      0.5642                 0.7256                 2.2903
 IR Inten    --      1.5335                29.7981                17.5678

                     34                     35                     36
                      A                      A                      A
 Frequencies --    919.0043               964.3466               977.5482
 Red. masses --      1.4562                 1.3703                 1.2652
 Frc consts  --      0.7246                 0.7508                 0.7123
 IR Inten    --     28.2906                 9.7826                 0.2777

                     37                     38                     39
                      A                      A                      A
 Frequencies --    980.8338              1015.1314              1054.1429
 Red. masses --      4.1219                 2.4004                 3.2629
 Frc consts  --      2.3364                 1.4574                 2.1363
 IR Inten    --    251.2232                86.0505                50.2665

                     40                     41                     42
                      A                      A                      A
 Frequencies --   1132.0413              1152.5698              1160.2926
 Red. masses --      3.3646                 1.6492                 1.3646
 Frc consts  --      2.5405                 1.2908                 1.0824
 IR Inten    --     37.8514                20.8962               117.1058

                     43                     44                     45
                      A                      A                      A
 Frequencies --   1176.8615              1193.8203              1207.9001
 Red. masses --      1.7154                 2.2415                 1.5394
 Frc consts  --      1.3998                 1.8822                 1.3233
 IR Inten    --    826.7881                39.5295               259.3118

                     46                     47                     48
                      A                      A                      A
 Frequencies --   1265.5615              1271.8661              1288.6031
 Red. masses --      2.2689                 2.3705                 2.7881
 Frc consts  --      2.1411                 2.2593                 2.7277
 IR Inten    --    344.1991               361.1934                59.0326

                     49                     50                     51
                      A                      A                      A
 Frequencies --   1344.4353              1358.9243              1372.2107
 Red. masses --      5.5836                 2.3335                 3.3879
 Frc consts  --      5.9463                 2.5389                 3.7586
 IR Inten    --   1410.7081                48.3036               615.9676

                     52                     53                     54
                      A                      A                      A
 Frequencies --   1400.2540              1404.7830              1449.8625
 Red. masses --      5.5519                 5.4157                 2.7395
 Frc consts  --      6.4136                 6.2969                 3.3930
 IR Inten    --    198.6188               236.9355               111.5944

                     55                     56                     57
                      A                      A                      A
 Frequencies --   1457.0020              1499.0407              1545.8445
 Red. masses --      3.1301                 2.6354                 4.9927
 Frc consts  --      3.9149                 3.4891                 7.0294
 IR Inten    --    354.4328                 8.5289               684.9281

                     58                     59                     60
                      A                      A                      A
 Frequencies --   1559.2797              1570.7627              1606.9107
 Red. masses --      5.7598                 5.2006                 6.7935
 Frc consts  --      8.2510                 7.5600                10.3355
 IR Inten    --     51.0154               609.8397                29.7188

                     61                     62                     63
                      A                      A                      A
 Frequencies --   1635.1651              3135.4106              3141.8111
 Red. masses --      5.5368                 1.0884                 1.0855
 Frc consts  --      8.7223                 6.3044                 6.3131
 IR Inten    --     16.3150               118.0260                16.5273

                     64                     65                     66
                      A                      A                      A
 Frequencies --   3145.2309              3158.2092              3161.3724
 Red. masses --      1.0875                 1.0885                 1.0925
 Frc consts  --      6.3383                 6.3969                 6.4330
 IR Inten    --      1.2379                 8.1802                84.2793

                     67                     68                     69
                      A                      A                      A
 Frequencies --   3163.6714              3176.0292              3411.2680
 Red. masses --      1.0878                 1.0965                 1.0638
 Frc consts  --      6.4150                 6.5164                 7.2939
 IR Inten    --     17.1357                70.4592               179.1156

 - Thermochemistry -
 -------------------
 Temperature   298.150 Kelvin.  Pressure   1.00000 Atm.
 Atom     1 has atomic number  6 and mass  12.00000

 Molecular mass:   224.04734 amu.
 Principal axes and moments of inertia in atomic units:
                           1         2         3
     Eigenvalues --  1789.256775673.583037462.82010
           X            0.94781  -0.17267   0.26804
           Y            0.06021   0.92247   0.38134
           Z           -0.31310  -0.34530   0.88472
 This molecule is an asymmetric top.
 Rotational symmetry number  1.
 Warning -- assumption of classical behavior for rotation
           may cause significant error
 Rotational temperatures (Kelvin)      0.04841     0.01527     0.01161
 Rotational constants (GHZ):           1.00865     0.31810     0.24183
 Zero-point vibrational energy     469819.5 (Joules/Mol)
                                  112.28955 (Kcal/Mol)
 Warning -- explicit consideration of  19 degrees of freedom as
           vibrations may cause significant error
 Vibrational temperatures:     97.13   119.13   187.09   242.41   287.75
          (Kelvin)            358.46   413.89   417.68   434.97   473.06
                              536.03   583.90   625.18   674.84   708.12
                              724.32   763.90   845.76   866.86   894.74
                              933.75   999.68  1015.59  1016.85  1066.62
                             1074.63  1090.16  1094.66  1124.96  1140.84
                             1205.44  1262.18  1307.65  1322.24  1387.48
                             1406.47  1411.20  1460.55  1516.68  1628.75
                             1658.29  1669.40  1693.24  1717.64  1737.90
                             1820.86  1829.93  1854.01  1934.34  1955.19
                             1974.31  2014.65  2021.17  2086.03  2096.30
                             2156.79  2224.13  2243.46  2259.98  2311.99
                             2352.64  4511.16  4520.37  4525.29  4543.96
                             4548.51  4551.82  4569.60  4908.05

 Zero-point correction=                           0.178945 (Hartree/Particle)
 Thermal correction to Energy=                    0.191298
 Thermal correction to Enthalpy=                  0.192243
 Thermal correction to Gibbs Free Energy=         0.140480
 Sum of electronic and zero-point Energies=           -764.268920
 Sum of electronic and thermal Energies=              -764.256566
 Sum of electronic and thermal Enthalpies=            -764.255622
 Sum of electronic and thermal Free Energies=         -764.307385

                     E (Thermal)             CV                S
                      KCal/Mol        Cal/Mol-Kelvin    Cal/Mol-Kelvin
 Total                  120.042             51.049            108.944
 Electronic               0.000              0.000              0.000
 Translational            0.889              2.981             42.123
 Rotational               0.889              2.981             32.693
 Vibrational            118.264             45.088             34.128
 Vibration     1          0.598              1.970              4.225
 Vibration     2          0.600              1.961              3.823
 Vibration     3          0.612              1.923              2.946
 Vibration     4          0.625              1.881              2.452
 Vibration     5          0.638              1.840              2.133
 Vibration     6          0.662              1.764              1.737
 Vibration     7          0.685              1.697              1.488
 Vibration     8          0.686              1.692              1.472
 Vibration     9          0.694              1.669              1.404
 Vibration    10          0.712              1.618              1.266
 Vibration    11          0.744              1.528              1.069
 Vibration    12          0.771              1.458              0.941
 Vibration    13          0.795              1.395              0.844
 Vibration    14          0.826              1.319              0.740
 Vibration    15          0.848              1.267              0.678
 Vibration    16          0.859              1.242              0.650
 Vibration    17          0.886              1.182              0.585
 Vibration    18          0.945              1.058              0.471
 Vibration    19          0.961              1.026              0.445

 Optimization completed.
    -- Stationary point found.
 Normal termination of Gaussian 16 at Sun Feb 11 17:20:36 2024.
