 Q-Chem 5.4, Q-Chem, Inc., Pleasanton, CA (2021)
 Q-Chem 5.4.0 for Intel X86 EM64T Linux

User input:
--------------------------------------------------------------
$molecule
-1 2
C                 -4.0310820000      0.2785250000      0.2728460000
C                 -2.5627120000      0.0062980000      0.0399960000
C                 -2.1598500000     -1.0535660000     -0.8055970000
C                 -0.8207080000     -1.3129470000     -1.0265300000
C                  0.1841890000     -0.5333220000     -0.4190870000
C                  1.6014680000     -0.8363410000     -0.6752660000
O                  1.9521200000     -1.7846580000     -1.4317200000
C                  2.5670160000      0.0130160000     -0.0118090000
C                  2.1677500000      1.0467740000      0.8128050000
C                  0.7986630000      1.3811500000      1.0931960000
O                  0.4714370000      2.3341390000      1.8529790000
C                 -0.2082440000      0.5326630000      0.4311220000
C                 -1.5803820000      0.7768290000      0.6402520000
C                  4.0237820000     -0.2781740000     -0.2585740000
H                 -4.5525930000      0.5058140000     -0.6649280000
H                 -4.1713470000      1.1275870000      0.9463940000
H                 -4.5361040000     -0.5878180000      0.7172400000
H                 -2.9160900000     -1.6701680000     -1.2864800000
H                 -0.5025210000     -2.1232050000     -1.6731640000
H                  2.9140500000      1.6705940000      1.2997580000
H                 -1.8398090000      1.6010180000      1.2971290000
H                  4.2615300000     -0.2149980000     -1.3262040000
H                  4.2767140000     -1.3003330000      0.0440800000
H                  4.6627220000      0.4211230000      0.2882850000
$end

$rem
BASIS  =  6-311++G(d,p)
GUI  =  2
JOB_TYPE  =  SP
METHOD  =  B3LYP
SCF_CONVERGENCE  = 8
SOLVENT_METHOD = sm12
$end

$smx
solvent dimethylformamide
charges CM5
$end

--------------------------------------------------------------

             Standard Nuclear Orientation (Angstroms)
    I     Atom           X                Y                Z
 ----------------------------------------------------------------
    1      C      -4.0310820000     0.2785250000     0.2728460000
    2      C      -2.5627120000     0.0062980000     0.0399960000
    3      C      -2.1598500000    -1.0535660000    -0.8055970000
    4      C      -0.8207080000    -1.3129470000    -1.0265300000
    5      C       0.1841890000    -0.5333220000    -0.4190870000
    6      C       1.6014680000    -0.8363410000    -0.6752660000
    7      O       1.9521200000    -1.7846580000    -1.4317200000
    8      C       2.5670160000     0.0130160000    -0.0118090000
    9      C       2.1677500000     1.0467740000     0.8128050000
   10      C       0.7986630000     1.3811500000     1.0931960000
   11      O       0.4714370000     2.3341390000     1.8529790000
   12      C      -0.2082440000     0.5326630000     0.4311220000
   13      C      -1.5803820000     0.7768290000     0.6402520000
   14      C       4.0237820000    -0.2781740000    -0.2585740000
   15      H      -4.5525930000     0.5058140000    -0.6649280000
   16      H      -4.1713470000     1.1275870000     0.9463940000
   17      H      -4.5361040000    -0.5878180000     0.7172400000
   18      H      -2.9160900000    -1.6701680000    -1.2864800000
   19      H      -0.5025210000    -2.1232050000    -1.6731640000
   20      H       2.9140500000     1.6705940000     1.2997580000
   21      H      -1.8398090000     1.6010180000     1.2971290000
   22      H       4.2615300000    -0.2149980000    -1.3262040000
   23      H       4.2767140000    -1.3003330000     0.0440800000
   24      H       4.6627220000     0.4211230000     0.2882850000
 ----------------------------------------------------------------

   16    -613.9835135788      9.55e-09  Convergence criterion met
 Total energy in the final basis set =     -614.0723951616

                    Orbital Energies (a.u.)
 --------------------------------------------------------------

 Alpha MOs
 -- Occupied --
-19.0764 -19.0754 -10.2222 -10.2211 -10.1892 -10.1798 -10.1787 -10.1784
-10.1771 -10.1770 -10.1745 -10.1724 -10.1674 -10.1649  -0.9994  -0.9966
 -0.8662  -0.8192  -0.7779  -0.7578  -0.7135  -0.6976  -0.6512  -0.6241
 -0.5898  -0.5586  -0.5146  -0.4920  -0.4755  -0.4457  -0.4340  -0.4328
 -0.4310  -0.4231  -0.4113  -0.3977  -0.3957  -0.3902  -0.3828  -0.3729
 -0.3727  -0.3513  -0.3438  -0.3412  -0.2737  -0.2624  -0.2490  -0.2433
 -0.2363  -0.1542

 Beta MOs
 -- Occupied --
-19.0699 -19.0688 -10.2210 -10.2197 -10.1888 -10.1796 -10.1786 -10.1777
-10.1767 -10.1753 -10.1745 -10.1724 -10.1675 -10.1636  -0.9881  -0.9850
 -0.8645  -0.8142  -0.7766  -0.7558  -0.7118  -0.6933  -0.6455  -0.6222
 -0.5879  -0.5554  -0.5128  -0.4897  -0.4729  -0.4447  -0.4321  -0.4285
 -0.4273  -0.4203  -0.4062  -0.3926  -0.3896  -0.3894  -0.3813  -0.3712
 -0.3497  -0.3488  -0.3396  -0.3331  -0.2562  -0.2447  -0.2430  -0.2371
 -0.2303

          Ground-State Mulliken Net Atomic Charges

     Atom                 Charge (a.u.)    Spin (a.u.)
  --------------------------------------------------------
      1 C                     1.839484      -0.001757
      2 C                     2.117876       0.029398
      3 C                     1.210433       0.016661
      4 C                    -0.329952       0.026526
      5 C                    -1.618049      -0.013217
      6 C                    -1.819298       0.095607
      7 O                    -0.313748       0.246433
      8 C                     0.315430       0.110959
      9 C                    -0.532533       0.096608
     10 C                    -1.879394       0.057731
     11 O                    -0.358834       0.241606
     12 C                    -1.732054       0.072362
     13 C                    -0.890574       0.011268
     14 C                     0.898112       0.011005
     15 H                     0.246829       0.001883
     16 H                     0.336344       0.000116
     17 H                     0.246601       0.001878
     18 H                     0.321295      -0.001658
     19 H                     0.165219      -0.002569
     20 H                     0.116932      -0.010078
     21 H                     0.007111      -0.002941
     22 H                     0.190927       0.006082
     23 H                     0.190722       0.006112
     24 H                     0.271122      -0.000015
  --------------------------------------------------------
  Sum of atomic charges =    -1.000000

                    Cartesian Multipole Moments
 -----------------------------------------------------------------
    Charge (ESU x 10^10)
                -4.8032
    Dipole Moment (Debye)
         X      -5.5498      Y      -1.4246      Z      -1.0977
       Tot       5.8339
    Quadrupole Moments (Debye-Ang)
        XX     -92.0153     XY       5.0516     YY    -107.6419
        XZ       4.0060     YZ     -15.2709     ZZ    -100.6545

 Total job time:  412.28s(wall), 3204.85s(cpu)
        *  Thank you very much for using Q-Chem.  Have a nice day.  *
