 Q-Chem 5.4, Q-Chem, Inc., Pleasanton, CA (2021)
 Q-Chem 5.4.0 for Intel X86 EM64T Linux

User input:
--------------------------------------------------------------
$molecule
0 1
C                  5.5798660000     -4.6113140000     -1.0113040000
C                  6.4866870000     -4.0890020000     -1.9897140000
C                  6.1865270000     -2.8242370000     -2.5851190000
C                  4.4275330000     -3.9266730000     -0.6300750000
C                  4.1629590000     -2.6587810000     -1.2528370000
C                  5.0188040000     -2.1393890000     -2.1931810000
C                  3.4573810000     -4.4453560000      0.3911210000
C                  2.2560700000     -3.6059900000      0.7074750000
C                  2.0137000000     -2.3708100000      0.0896490000
C                  2.9567560000     -1.8369290000     -0.9213760000
C                  1.3490470000     -4.0871170000      1.6593710000
C                  0.2206180000     -3.3472090000      1.9875090000
C                 -0.0184450000     -2.1153270000      1.3693840000
C                  0.8744270000     -1.6293620000      0.4245270000
C                  7.6684480000     -4.7591020000     -2.4011200000
C                  8.5002340000     -4.2054130000     -3.3464040000
C                  8.2007630000     -2.9558140000     -3.9326100000
C                  7.0656000000     -2.2808100000     -3.5573760000
O                  3.6035360000     -5.5078250000      0.9672820000
O                  2.7591380000     -0.7626850000     -1.4677260000
Cl                 6.0025210000     -6.1623370000     -0.3202130000
H                  4.7762660000     -1.1800640000     -2.6343040000
H                  1.5508730000     -5.0423050000      2.1269830000
H                 -0.4767550000     -3.7269540000      2.7256270000
H                 -0.9003500000     -1.5404020000      1.6279570000
H                  0.7140860000     -0.6791170000     -0.0693160000
H                  7.9132610000     -5.7158250000     -1.9633150000
H                  9.3972380000     -4.7357510000     -3.6448260000
H                  8.8676250000     -2.5345620000     -4.6759280000
H                  6.8202870000     -1.3204910000     -3.9970410000
$end
$rem
MAX_SCF_CYCLES=200
BASIS  =  6-311++G(d,p)
GUI  =  2
JOB_TYPE  =  SP
METHOD  =  B3LYP
SOLVENT_METHOD = PCM
$end
$pcm
theory = CPCM
$end
$solvent
dielectric 37.219
opticaldielectric 1.43
$end

--------------------------------------------------------------

             Standard Nuclear Orientation (Angstroms)
    I     Atom           X                Y                Z
 ----------------------------------------------------------------
    1      C       5.5798660000    -4.6113140000    -1.0113040000
    2      C       6.4866870000    -4.0890020000    -1.9897140000
    3      C       6.1865270000    -2.8242370000    -2.5851190000
    4      C       4.4275330000    -3.9266730000    -0.6300750000
    5      C       4.1629590000    -2.6587810000    -1.2528370000
    6      C       5.0188040000    -2.1393890000    -2.1931810000
    7      C       3.4573810000    -4.4453560000     0.3911210000
    8      C       2.2560700000    -3.6059900000     0.7074750000
    9      C       2.0137000000    -2.3708100000     0.0896490000
   10      C       2.9567560000    -1.8369290000    -0.9213760000
   11      C       1.3490470000    -4.0871170000     1.6593710000
   12      C       0.2206180000    -3.3472090000     1.9875090000
   13      C      -0.0184450000    -2.1153270000     1.3693840000
   14      C       0.8744270000    -1.6293620000     0.4245270000
   15      C       7.6684480000    -4.7591020000    -2.4011200000
   16      C       8.5002340000    -4.2054130000    -3.3464040000
   17      C       8.2007630000    -2.9558140000    -3.9326100000
   18      C       7.0656000000    -2.2808100000    -3.5573760000
   19      O       3.6035360000    -5.5078250000     0.9672820000
   20      O       2.7591380000    -0.7626850000    -1.4677260000
   21      Cl      6.0025210000    -6.1623370000    -0.3202130000
   22      H       4.7762660000    -1.1800640000    -2.6343040000
   23      H       1.5508730000    -5.0423050000     2.1269830000
   24      H      -0.4767550000    -3.7269540000     2.7256270000
   25      H      -0.9003500000    -1.5404020000     1.6279570000
   26      H       0.7140860000    -0.6791170000    -0.0693160000
   27      H       7.9132610000    -5.7158250000    -1.9633150000
   28      H       9.3972380000    -4.7357510000    -3.6448260000
   29      H       8.8676250000    -2.5345620000    -4.6759280000
   30      H       6.8202870000    -1.3204910000    -3.9970410000
 ----------------------------------------------------------------

    8   -1302.2548851915      9.60e-06  Convergence criterion met
 Total energy in the final basis set =    -1302.2548851915

                    Orbital Energies (a.u.)
 --------------------------------------------------------------

 Alpha MOs
 -- Occupied --
******** -19.1295 -19.1294 -10.2876 -10.2833 -10.2693 -10.2222 -10.2174
-10.2116 -10.2115 -10.2089 -10.2071 -10.2014 -10.1969 -10.1965 -10.1960
-10.1952 -10.1942 -10.1940 -10.1932 -10.1929  -9.4812  -7.2457  -7.2364
 -7.2351  -1.0691  -1.0654  -0.9219  -0.8888  -0.8751  -0.8535  -0.8032
 -0.7841  -0.7774  -0.7697  -0.7494  -0.6853  -0.6814  -0.6484  -0.6289
 -0.6087  -0.5854  -0.5802  -0.5561  -0.5288  -0.5199  -0.5042  -0.4878
 -0.4696  -0.4662  -0.4628  -0.4602  -0.4547  -0.4501  -0.4495  -0.4437
 -0.4342  -0.4245  -0.4196  -0.4039  -0.3860  -0.3811  -0.3722  -0.3697
 -0.3680  -0.3594  -0.3420  -0.3345  -0.2984  -0.2863  -0.2858  -0.2777
 -0.2737  -0.2687  -0.2440

          Ground-State Mulliken Net Atomic Charges

     Atom                 Charge (a.u.)
  ----------------------------------------
      1 C                     0.683248
      2 C                     0.547567
      3 C                     1.095732
      4 C                     0.275403
      5 C                     0.674710
      6 C                     0.139574
      7 C                    -1.997687
      8 C                    -0.313522
      9 C                     0.499151
     10 C                    -0.761471
     11 C                     0.269346
     12 C                    -0.490676
     13 C                    -0.522019
     14 C                     0.211507
     15 C                    -1.081985
     16 C                    -0.715431
     17 C                    -0.279557
     18 C                    -0.229581
     19 O                    -0.178538
     20 O                    -0.278919
     21 Cl                    0.590773
     22 H                     0.168921
     23 H                     0.197277
     24 H                     0.224758
     25 H                     0.223966
     26 H                     0.192881
     27 H                     0.201557
     28 H                     0.229783
     29 H                     0.219641
     30 H                     0.203591
  ----------------------------------------
  Sum of atomic charges =    -0.000001

                    Cartesian Multipole Moments
 -----------------------------------------------------------------
    Charge (ESU x 10^10)
                -0.0000
    Dipole Moment (Debye)
         X       1.0750      Y       1.4227      Z      -1.6763
       Tot       2.4474
    Quadrupole Moments (Debye-Ang)
        XX     -86.2081     XY       1.8871     YY    -146.9376
        XZ     -32.7813     YZ       9.0855     ZZ    -113.1586

 Total job time:  58.73s(wall), 428.94s(cpu)
        *  Thank you very much for using Q-Chem.  Have a nice day.  *
