 Q-Chem 5.4, Q-Chem, Inc., Pleasanton, CA (2021)
 Q-Chem 5.4.0 for Intel X86 EM64T Linux

User input:
--------------------------------------------------------------
$molecule
-2 1
C                  2.0816210000      3.8669450000      5.6660830000
C                  2.8607810000      3.2965410000      4.5805810000
C                  2.3769870000      2.3770130000      3.6805780000
C                  1.0218560000      1.8651400000      3.7087240000
C                  0.2427160000      2.4074630000      4.7556200000
C                  0.7096040000      3.3611750000      5.7201700000
O                  2.6062420000      4.7220380000      6.4478300000
O                  0.6066880000      0.9946510000      2.8391380000
H                  3.8886900000      3.6531100000      4.5121120000
H                  3.0240820000      1.9914320000      2.8901420000
H                 -0.7800580000      2.0583330000      4.8331620000
C                 -0.1818590000      3.8237830000      6.7646120000
O                  0.0316630000      4.5423900000      7.7325660000
O                 -1.5125140000      3.3445500000      6.5931960000
C                 -2.4070530000      3.6821640000      7.6316420000
H                 -3.3850010000      3.2867970000      7.3389820000
H                 -2.4795170000      4.7654600000      7.7774420000
H                 -2.1139070000      3.2388670000      8.5942620000
$end
$rem
MAX_SCF_CYCLES=200
BASIS  =  6-311++G(d,p)
GUI  =  2
JOB_TYPE  =  SP
METHOD  =  B3LYP
SOLVENT_METHOD = COSMO
$end
$solvent
dielectric 37.219
opticaldielectric 1.43
$end

--------------------------------------------------------------

             Standard Nuclear Orientation (Angstroms)
    I     Atom           X                Y                Z
 ----------------------------------------------------------------
    1      C      -0.6276083424    -1.4900786189    -0.0187966217
    2      C      -2.0724303936    -1.3377197505    -0.0123439832
    3      C      -2.7229762802    -0.1268718581     0.0028615438
    4      C      -2.0384232770     1.1500222678     0.0135746115
    5      C      -0.6305271849     1.0278603134     0.0052282659
    6      C       0.0879127199    -0.2137911037    -0.0020893546
    7      O      -0.1081124012    -2.6506884335    -0.0442609028
    8      O      -2.6932042096     2.2713129636     0.0298375913
    9      H      -2.6358877375    -2.2708805526    -0.0247176224
   10      H      -3.8142653658    -0.0914650698     0.0081726325
   11      H      -0.0612765137     1.9496726705     0.0188966759
   12      C       1.5367789898    -0.2070290894     0.0155838022
   13      O       2.3357214693    -1.1295112844     0.1137679417
   14      O       2.0743268700     1.1063592086    -0.1098908873
   15      C       3.4794098437     1.1890833165    -0.0028773861
   16      H       3.7409530889     2.2401112203    -0.1618827546
   17      H       3.9869889580     0.5690865427    -0.7498756045
   18      H       3.8408172906     0.8748426926     0.9869314639
 ----------------------------------------------------------------

   15    -609.4942216854      3.16e-06  Convergence criterion met
 Total energy in the final basis set =     -609.4942216854
    6    -609.7991861188      4.37e-06  Convergence criterion met
 Total energy in the final basis set =     -609.7991861188

                    Orbital Energies (a.u.)
 --------------------------------------------------------------

 Alpha MOs
 -- Occupied --
-19.1353 -19.0881 -19.0377 -19.0249 -10.2744 -10.2014 -10.1972 -10.1784
-10.1460 -10.1429 -10.1366 -10.1270  -1.0704  -0.9897  -0.9586  -0.9366
 -0.7926  -0.7381  -0.6844  -0.6589  -0.5988  -0.5566  -0.5231  -0.4784
 -0.4572  -0.4555  -0.4362  -0.4286  -0.4175  -0.3878  -0.3813  -0.3726
 -0.3570  -0.3494  -0.3410  -0.3274  -0.3226  -0.2853  -0.2680  -0.2409
 -0.2303  -0.2085  -0.2041  -0.1351

          Ground-State Mulliken Net Atomic Charges

     Atom                 Charge (a.u.)
  ----------------------------------------
      1 C                    -0.789584
      2 C                    -0.074312
      3 C                    -0.017893
      4 C                    -0.424129
      5 C                    -0.308679
      6 C                     0.943073
      7 O                    -0.668274
      8 O                    -0.786566
      9 H                     0.167305
     10 H                     0.172917
     11 H                     0.171422
     12 C                     0.008603
     13 O                    -0.418778
     14 O                    -0.216283
     15 C                    -0.254307
     16 H                     0.152914
     17 H                     0.168838
     18 H                     0.173734
  ----------------------------------------
  Sum of atomic charges =    -2.000000

                    Cartesian Multipole Moments
 -----------------------------------------------------------------
    Charge (ESU x 10^10)
                -9.6064
    Dipole Moment (Debye)
         X       8.5272      Y       1.6698      Z      -0.0093
       Tot       8.6892
    Quadrupole Moments (Debye-Ang)
        XX    -108.7144     XY      32.6731     YY    -127.5662
        XZ       0.0301     YZ       0.0732     ZZ     -76.9622

 Total job time:  27.47s(wall), 202.08s(cpu)
        *  Thank you very much for using Q-Chem.  Have a nice day.  *
