 Gaussian 16, Revision A.03,
 Gaussian 16:  ES64L-G16RevA.03 25-Dec-2016

 --------------------------------------
 #P UB3LYP/6-311++G(d,p) nosym opt freq
 --------------------------------------

 -------
 Radical
 -------
 Symbolic Z-matrix:
 Charge = -1 Multiplicity = 2

 SCF Done:  E(UB3LYP) =  -764.249204140     A.U. after   23 cycles
 SCF Done:  E(UB3LYP) =  -764.276715616     A.U. after   17 cycles
 SCF Done:  E(UB3LYP) =  -764.283233435     A.U. after   19 cycles
 SCF Done:  E(UB3LYP) =  -764.285405824     A.U. after   17 cycles
 SCF Done:  E(UB3LYP) =  -764.285768455     A.U. after   16 cycles
 SCF Done:  E(UB3LYP) =  -764.285958877     A.U. after   15 cycles
 SCF Done:  E(UB3LYP) =  -764.285983374     A.U. after   14 cycles
 SCF Done:  E(UB3LYP) =  -764.285957537     A.U. after   14 cycles
 SCF Done:  E(UB3LYP) =  -764.285984507     A.U. after   12 cycles
 SCF Done:  E(UB3LYP) =  -764.285988344     A.U. after   13 cycles
 Optimization completed.
    -- Stationary point found.
 Normal termination of Gaussian 16 at Thu Dec 21 06:22:32 2023.

 ----------------------------------------------------------------------
 #P Geom=AllCheck Guess=TCheck SCRF=Check GenChk UB3LYP/6-311++G(d,p) F
 req
 ----------------------------------------------------------------------

 Structure from the checkpoint file:  "177-rad.chk"
 -------
 Radical
 -------
 Charge = -1 Multiplicity = 2

                          Input orientation:
 ---------------------------------------------------------------------
 Center     Atomic      Atomic             Coordinates (Angstroms)
 Number     Number       Type             X           Y           Z
 ---------------------------------------------------------------------
      1          8           0        2.533607    2.531858   -0.214163
      2          6           0        2.457346    1.205284    0.017888
      3          6           0        3.622396    0.487102    0.258760
      4          6           0        3.557861   -0.894954    0.501821
      5          6           0        2.345643   -1.560860    0.506005
      6          6           0        1.146854   -0.860923    0.265144
      7          6           0       -0.123870   -1.594118    0.275648
      8          8           0       -0.175276   -2.827630    0.493170
      9          6           0       -1.333540   -0.807052    0.017911
     10          6           0       -2.589618   -1.450041    0.013319
     11          6           0       -3.753370   -0.745936   -0.224995
     12          6           0       -3.697880    0.644316   -0.470060
     13          6           0       -2.481823    1.296426   -0.471039
     14          6           0       -1.278412    0.594909   -0.229370
     15          6           0       -0.014435    1.309160   -0.237085
     16          8           0        0.031996    2.570748   -0.460152
     17          6           0        1.188171    0.543722    0.015882
     18          1           0        1.576983    2.823872   -0.358261
     19          1           0        4.568079    1.017647    0.253449
     20          1           0        4.477108   -1.442898    0.688530
     21          1           0        2.280047   -2.625576    0.691749
     22          1           0       -2.602233   -2.516965    0.204220
     23          1           0       -4.710745   -1.258396   -0.224462
     24          1           0       -4.612805    1.198466   -0.657544
     25          1           0       -2.412082    2.361838   -0.656364
 ---------------------------------------------------------------------

 SCF Done:  E(UB3LYP) =  -764.285988344     A.U. after    1 cycles

 Alpha  occ. eigenvalues --  -19.00656 -18.96554 -18.95241 -10.11477 -10.10907
 Alpha  occ. eigenvalues --  -10.10286 -10.06435 -10.06374 -10.05980 -10.05845
 Alpha  occ. eigenvalues --  -10.05748 -10.05729 -10.05595 -10.05491 -10.05438
 Alpha  occ. eigenvalues --  -10.04848 -10.04402  -0.93068  -0.88069  -0.87825
 Alpha  occ. eigenvalues --   -0.74540  -0.73005  -0.67023  -0.63790  -0.62561
 Alpha  occ. eigenvalues --   -0.62000  -0.55179  -0.52293  -0.51010  -0.47133
 Alpha  occ. eigenvalues --   -0.45069  -0.42093  -0.41049  -0.38653  -0.35852
 Alpha  occ. eigenvalues --   -0.35348  -0.34411  -0.32928  -0.31168  -0.31016
 Alpha  occ. eigenvalues --   -0.30044  -0.29598  -0.28553  -0.27548  -0.27105
 Alpha  occ. eigenvalues --   -0.25756  -0.25525  -0.23936  -0.23418  -0.23200
 Alpha  occ. eigenvalues --   -0.21907  -0.20751  -0.15140  -0.14262  -0.13326
 Alpha  occ. eigenvalues --   -0.13270  -0.11485  -0.10726  -0.02274
 Alpha virt. eigenvalues --    0.06657   0.08008   0.08754   0.09251   0.09941
 Alpha virt. eigenvalues --    0.10874   0.11343   0.11947   0.13017   0.13244
 Alpha virt. eigenvalues --    0.15057   0.15171   0.15565   0.16298   0.16529

  Beta  occ. eigenvalues --  -19.00635 -18.96027 -18.94664 -10.11466 -10.10673
  Beta  occ. eigenvalues --  -10.10178 -10.06397 -10.06304 -10.05918 -10.05833
  Beta  occ. eigenvalues --  -10.05753 -10.05680 -10.05485 -10.05482 -10.05336
  Beta  occ. eigenvalues --  -10.04776 -10.04396  -0.92942  -0.87188  -0.86843
  Beta  occ. eigenvalues --   -0.74288  -0.72860  -0.66621  -0.63576  -0.62362
  Beta  occ. eigenvalues --   -0.61804  -0.54460  -0.52124  -0.50770  -0.47046
  Beta  occ. eigenvalues --   -0.44880  -0.41839  -0.40928  -0.38524  -0.35552
  Beta  occ. eigenvalues --   -0.35238  -0.34292  -0.32826  -0.31134  -0.30093
  Beta  occ. eigenvalues --   -0.29857  -0.29306  -0.28164  -0.26907  -0.26895
  Beta  occ. eigenvalues --   -0.25432  -0.23854  -0.23807  -0.23092  -0.22413
  Beta  occ. eigenvalues --   -0.21719  -0.19891  -0.13635  -0.13020  -0.12828
  Beta  occ. eigenvalues --   -0.12747  -0.10959  -0.09962
  Beta virt. eigenvalues --    0.03505   0.07583   0.08000   0.08747   0.09934
  Beta virt. eigenvalues --    0.10293   0.10872   0.11345   0.12266   0.13013
  Beta virt. eigenvalues --    0.13233   0.15104   0.15159   0.15591   0.16503

 Mulliken charges and spin densities:
               1          2
     1  O   -0.352093   0.007655
     2  C   -0.238000   0.029028
     3  C   -0.136064   0.050351
     4  C   -0.298938   0.049363
     5  C   -0.114155   0.029235
     6  C    0.498149   0.072475
     7  C   -0.536040   0.055529
     8  O   -0.360895   0.216045
     9  C    0.025158   0.061066
    10  C    0.035856   0.003418
    11  C   -0.386587   0.058726
    12  C   -0.423711   0.026673
    13  C    0.081737   0.038857
    14  C    0.242759   0.016595
    15  C   -0.382028   0.132119
    16  O   -0.428547   0.192994
    17  C    0.443176  -0.016789
    18  H    0.346366  -0.004059
    19  H    0.139651  -0.004581
    20  H    0.131919  -0.003886
    21  H    0.146884  -0.001987
    22  H    0.156830  -0.000492
    23  H    0.125524  -0.004600
    24  H    0.124042  -0.002570
    25  H    0.159009  -0.001167
 Sum of Mulliken charges =  -1.00000   1.00000

 Dipole moment (field-independent basis, Debye):
    X=             -1.7315    Y=             -0.2320    Z=             -0.1246  Tot=              1.7514
 Quadrupole moment (field-independent basis, Debye-Ang):
   XX=           -116.2558   YY=           -132.4830   ZZ=           -105.9280
   XY=             -7.0323   XZ=              0.2086   YZ=              4.2500

  Exact polarizability: 318.358   3.324 215.654  20.935 -21.723  99.284
 Approx polarizability: 479.941   4.430 416.278  30.963 -47.918 159.679

                      1                      2                      3
                      A                      A                      A
 Frequencies --     58.2153                96.1688               140.7478
 Red. masses --      6.6248                 6.0523                 5.6744
 Frc consts  --      0.0132                 0.0330                 0.0662
 IR Inten    --      4.2625                 0.3775                 0.5010

                      4                      5                      6
                      A                      A                      A
 Frequencies --    171.3882               215.1858               221.3376
 Red. masses --      7.9319                 4.7094                 5.3299
 Frc consts  --      0.1373                 0.1285                 0.1538
 IR Inten    --      1.1334                 0.0155                 1.8987

                      7                      8                      9
                      A                      A                      A
 Frequencies --    269.4508               323.3629               356.6747
 Red. masses --      5.6204                 7.3607                 6.9929
 Frc consts  --      0.2404                 0.4535                 0.5241
 IR Inten    --      0.0277                 1.0885                 1.9304

                     10                     11                     12
                      A                      A                      A
 Frequencies --    393.1348               415.3444               427.0723
 Red. masses --      8.4443                 6.2491                11.9886
 Frc consts  --      0.7690                 0.6352                 1.2883
 IR Inten    --      6.8910                 0.0194                18.7240

                     13                     14                     15
                      A                      A                      A
 Frequencies --    438.1504               468.4347               493.7165
 Red. masses --      3.3869                 7.9612                 4.1527
 Frc consts  --      0.3831                 1.0293                 0.5964
 IR Inten    --      0.6676                 8.7318                 0.5412

                     16                     17                     18
                      A                      A                      A
 Frequencies --    515.0539               560.6578               565.3227
 Red. masses --      8.0828                 7.6714                 4.3456
 Frc consts  --      1.2633                 1.4208                 0.8183
 IR Inten    --      4.4123                 4.9551                 7.8217

                     19                     20                     21
                      A                      A                      A
 Frequencies --    613.9151               642.7873               666.6226
 Red. masses --      6.2684                 4.3192                 6.6253
 Frc consts  --      1.3919                 1.0514                 1.7347
 IR Inten    --     11.7176                 4.8950                10.1147

                     22                     23                     24
                      A                      A                      A
 Frequencies --    699.6739               708.5916               727.4775
 Red. masses --      6.9977                 2.4215                 2.6485
 Frc consts  --      2.0183                 0.7164                 0.8258
 IR Inten    --      5.0058                64.6267                 0.4739

                     25                     26                     27
                      A                      A                      A
 Frequencies --    771.9173               779.7213               798.0422
 Red. masses --      1.9293                 2.0552                 6.4618
 Frc consts  --      0.6773                 0.7362                 2.4247
 IR Inten    --     19.5451                31.0212                 4.2765

                     28                     29                     30
                      A                      A                      A
 Frequencies --    807.1077               867.5225               872.5335
 Red. masses --      3.2320                 1.4722                 1.4662
 Frc consts  --      1.2405                 0.6528                 0.6577
 IR Inten    --     23.6893                 0.0041                 0.4539

                     31                     32                     33
                      A                      A                      A
 Frequencies --    887.8695               937.5668               957.3667
 Red. masses --      7.5402                 6.4605                 1.0544
 Frc consts  --      3.5021                 3.3460                 0.5694
 IR Inten    --     37.9028                 2.3835                71.4493

                     34                     35                     36
                      A                      A                      A
 Frequencies --    961.6181               979.8926               984.1708
 Red. masses --      1.2745                 1.3217                 1.2993
 Frc consts  --      0.6944                 0.7477                 0.7415
 IR Inten    --      1.3037                 0.6146                 1.2262

                     37                     38                     39
                      A                      A                      A
 Frequencies --   1024.7313              1044.3099              1072.3324
 Red. masses --      3.8467                 2.2475                 1.8480
 Frc consts  --      2.3799                 1.4441                 1.2520
 IR Inten    --     25.1222                19.7651                20.3754

                     40                     41                     42
                      A                      A                      A
 Frequencies --   1109.8445              1147.9985              1173.5229
 Red. masses --      2.1971                 1.3493                 1.1533
 Frc consts  --      1.5945                 1.0477                 0.9358
 IR Inten    --     18.7571                17.5885                 5.1326

                     43                     44                     45
                      A                      A                      A
 Frequencies --   1187.0892              1202.5854              1243.6740
 Red. masses --      2.7295                 2.1592                 3.1759
 Frc consts  --      2.2662                 1.8399                 2.8942
 IR Inten    --     26.1714                 4.2421                28.4158

                     46                     47                     48
                      A                      A                      A
 Frequencies --   1250.9929              1295.1443              1313.6540
 Red. masses --      1.9632                 3.4427                 3.2561
 Frc consts  --      1.8102                 3.4024                 3.3106
 IR Inten    --      7.2599                54.3678               160.0768

                     49                     50                     51
                      A                      A                      A
 Frequencies --   1359.0272              1369.5053              1402.0696
 Red. masses --      8.9588                 5.8228                 3.1732
 Frc consts  --      9.7490                 6.4344                 3.6752
 IR Inten    --      4.2382                16.7294               253.8575

                     52                     53                     54
                      A                      A                      A
 Frequencies --   1424.7654              1477.0431              1484.4768
 Red. masses --      2.9767                 2.7440                 3.5429
 Frc consts  --      3.5602                 3.5271                 4.5999
 IR Inten    --     89.7019                28.1222                11.5644

                     55                     56                     57
                      A                      A                      A
 Frequencies --   1497.5894              1539.3430              1560.7072
 Red. masses --      2.9712                 6.1327                 5.0293
 Frc consts  --      3.9261                 8.5619                 7.2177
 IR Inten    --    158.5258               441.0169               196.9106

                     58                     59                     60
                      A                      A                      A
 Frequencies --   1574.0961              1612.3714              1626.9439
 Red. masses --      2.6725                 6.5845                 5.5627
 Frc consts  --      3.9015                10.0856                 8.6753
 IR Inten    --     45.8466                69.1839                 2.5342

                     61                     62                     63
                      A                      A                      A
 Frequencies --   1657.3133              2901.3628              3136.3128
 Red. masses --      2.7044                 1.0749                 1.0848
 Frc consts  --      4.3766                 5.3310                 6.2868
 IR Inten    --     53.4938               450.8551                18.5609

                     64                     65                     66
                      A                      A                      A
 Frequencies --   3139.4387              3155.1613              3173.3613
 Red. masses --      1.0866                 1.0911                 1.0916
 Frc consts  --      6.3100                 6.3999                 6.4770
 IR Inten    --     30.7001                47.5817                32.9416

                     67                     68                     69
                      A                      A                      A
 Frequencies --   3183.7868              3187.4883              3193.8068
 Red. masses --      1.0917                 1.0927                 1.0918
 Frc consts  --      6.5198                 6.5410                 6.5619
 IR Inten    --     13.5462                25.3810                14.4190

 - Thermochemistry -
 -------------------
 Temperature   298.150 Kelvin.  Pressure   1.00000 Atm.
 Atom     1 has atomic number  8 and mass  15.99491

 Molecular mass:   224.04734 amu.
 Principal axes and moments of inertia in atomic units:
                           1         2         3
     Eigenvalues --  2022.545024409.810556432.35551
           X            0.98883  -0.11588  -0.09377
           Y            0.13107   0.97551   0.17663
           Z            0.07101  -0.18695   0.97980
 This molecule is an asymmetric top.
 Rotational symmetry number  1.
 Warning -- assumption of classical behavior for rotation
           may cause significant error
 Rotational temperatures (Kelvin)      0.04282     0.01964     0.01347
 Rotational constants (GHZ):           0.89231     0.40926     0.28057
 Zero-point vibrational energy     475609.3 (Joules/Mol)
                                  113.67335 (Kcal/Mol)
 Warning -- explicit consideration of  19 degrees of freedom as
           vibrations may cause significant error
 Vibrational temperatures:     83.76   138.37   202.50   246.59   309.60
          (Kelvin)            318.46   387.68   465.25   513.18   565.63
                              597.59   614.46   630.40   673.97   710.35
                              741.05   806.66   813.37   883.29   924.83
                              959.12  1006.67  1019.51  1046.68  1110.62
                             1121.85  1148.20  1161.25  1248.17  1255.38
                             1277.45  1348.95  1377.44  1383.55  1409.85
                             1416.00  1474.36  1502.53  1542.85  1596.82
                             1651.71  1688.44  1707.96  1730.25  1789.37
                             1799.90  1863.42  1890.06  1955.34  1970.41
                             2017.27  2049.92  2125.14  2135.83  2154.70
                             2214.77  2245.51  2264.77  2319.84  2340.81
                             2384.50  4174.41  4512.45  4516.95  4539.57
                             4565.76  4580.76  4586.08  4595.18

 Zero-point correction=                           0.181150 (Hartree/Particle)
 Thermal correction to Energy=                    0.193066
 Thermal correction to Enthalpy=                  0.194010
 Thermal correction to Gibbs Free Energy=         0.142465
 Sum of electronic and zero-point Energies=           -764.104838
 Sum of electronic and thermal Energies=              -764.092922
 Sum of electronic and thermal Enthalpies=            -764.091978
 Sum of electronic and thermal Free Energies=         -764.143523

                     E (Thermal)             CV                S
                      KCal/Mol        Cal/Mol-Kelvin    Cal/Mol-Kelvin
 Total                  121.151             49.382            108.485
 Electronic               0.000              0.000              1.377
 Translational            0.889              2.981             42.123
 Rotational               0.889              2.981             32.417
 Vibrational            119.373             43.421             32.568
 Vibration     1          0.596              1.974              4.517
 Vibration     2          0.603              1.952              3.531
 Vibration     3          0.615              1.913              2.794
 Vibration     4          0.626              1.878              2.420
 Vibration     5          0.645              1.818              1.999
 Vibration     6          0.648              1.809              1.948
 Vibration     7          0.674              1.729              1.600
 Vibration     8          0.708              1.629              1.293
 Vibration     9          0.732              1.562              1.137
 Vibration    10          0.760              1.485              0.988
 Vibration    11          0.779              1.437              0.908
 Vibration    12          0.789              1.411              0.868
 Vibration    13          0.798              1.387              0.832
 Vibration    14          0.826              1.320              0.742
 Vibration    15          0.849              1.264              0.674
 Vibration    16          0.870              1.217              0.622
 Vibration    17          0.916              1.116              0.523
 Vibration    18          0.921              1.106              0.513
 Vibration    19          0.973              1.002              0.426

 Optimization completed.
    -- Stationary point found.
 Normal termination of Gaussian 16 at Thu Dec 21 07:03:56 2023.
