 Q-Chem 5.4, Q-Chem, Inc., Pleasanton, CA (2021)
 Q-Chem 5.4.0 for Intel X86 EM64T Linux

User input:
--------------------------------------------------------------
$molecule
-2 1
C                 -5.0155420000     -1.0223970000     -0.0275940000
O                 -3.6124060000     -1.0874580000      0.0166110000
C                 -2.8912520000      0.0822510000      0.0053450000
C                 -3.5332710000      1.3122140000     -0.0293240000
C                 -2.7758440000      2.5092120000     -0.0420670000
C                 -1.4041360000      2.4512650000     -0.0334380000
C                 -0.7128190000      1.2155760000     -0.0055920000
C                  0.7527840000      1.2988190000     -0.0072190000
O                  1.3237020000      2.4313170000     -0.0436370000
C                  1.4556500000      0.0244680000      0.0402030000
C                  2.8912600000     -0.0825330000      0.0317700000
O                  3.6126190000      1.0842240000     -0.0504860000
C                  5.0160090000      1.0161660000     -0.0793690000
C                  3.5331830000     -1.3108610000      0.1047370000
C                  2.7755300000     -2.5049180000      0.1875150000
C                  1.4038070000     -2.4468400000      0.1821400000
C                  0.7126410000     -1.2133910000      0.1014820000
C                 -0.7529550000     -1.2968890000      0.0969540000
O                 -1.3239340000     -2.4285930000      0.1520500000
C                 -1.4557480000     -0.0232580000      0.0323410000
H                 -5.3644880000     -2.0576850000     -0.0484040000
H                 -5.4432330000     -0.5220330000      0.8545810000
H                 -5.3881860000     -0.5067610000     -0.9262530000
H                 -4.6139850000      1.3704520000     -0.0368930000
H                 -3.2930530000      3.4660610000     -0.0654910000
H                 -0.7903890000      3.3441650000     -0.0499890000
H                  5.3653190000      2.0461840000     -0.1845510000
H                  5.3947550000      0.4271250000     -0.9290290000
H                  5.4374900000      0.5917140000      0.8445940000
H                  4.6139100000     -1.3692100000      0.1091110000
H                  3.2926070000     -3.4602080000      0.2480410000
H                  0.7899730000     -3.3381800000      0.2365370000
$end
$rem
MAX_SCF_CYCLES=200
BASIS  =  6-311++G(d,p)
GUI  =  2
JOB_TYPE  =  SP
METHOD  =  B3LYP
SOLVENT_METHOD = PCM
$end
$pcm
theory = CPCM
$end
$solvent
dielectric 37.219
opticaldielectric 1.43
$end

--------------------------------------------------------------

             Standard Nuclear Orientation (Angstroms)
    I     Atom           X                Y                Z
 ----------------------------------------------------------------
    1      C      -5.0155420000    -1.0223970000    -0.0275940000
    2      O      -3.6124060000    -1.0874580000     0.0166110000
    3      C      -2.8912520000     0.0822510000     0.0053450000
    4      C      -3.5332710000     1.3122140000    -0.0293240000
    5      C      -2.7758440000     2.5092120000    -0.0420670000
    6      C      -1.4041360000     2.4512650000    -0.0334380000
    7      C      -0.7128190000     1.2155760000    -0.0055920000
    8      C       0.7527840000     1.2988190000    -0.0072190000
    9      O       1.3237020000     2.4313170000    -0.0436370000
   10      C       1.4556500000     0.0244680000     0.0402030000
   11      C       2.8912600000    -0.0825330000     0.0317700000
   12      O       3.6126190000     1.0842240000    -0.0504860000
   13      C       5.0160090000     1.0161660000    -0.0793690000
   14      C       3.5331830000    -1.3108610000     0.1047370000
   15      C       2.7755300000    -2.5049180000     0.1875150000
   16      C       1.4038070000    -2.4468400000     0.1821400000
   17      C       0.7126410000    -1.2133910000     0.1014820000
   18      C      -0.7529550000    -1.2968890000     0.0969540000
   19      O      -1.3239340000    -2.4285930000     0.1520500000
   20      C      -1.4557480000    -0.0232580000     0.0323410000
   21      H      -5.3644880000    -2.0576850000    -0.0484040000
   22      H      -5.4432330000    -0.5220330000     0.8545810000
   23      H      -5.3881860000    -0.5067610000    -0.9262530000
   24      H      -4.6139850000     1.3704520000    -0.0368930000
   25      H      -3.2930530000     3.4660610000    -0.0654910000
   26      H      -0.7903890000     3.3441650000    -0.0499890000
   27      H       5.3653190000     2.0461840000    -0.1845510000
   28      H       5.3947550000     0.4271250000    -0.9290290000
   29      H       5.4374900000     0.5917140000     0.8445940000
   30      H       4.6139100000    -1.3692100000     0.1091110000
   31      H       3.2926070000    -3.4602080000     0.2480410000
   32      H       0.7899730000    -3.3381800000     0.2365370000
 ----------------------------------------------------------------

    9    -918.2860978898      5.29e-06  Convergence criterion met
 Total energy in the final basis set =     -918.2860978898

                    Orbital Energies (a.u.)
 --------------------------------------------------------------

 Alpha MOs
 -- Occupied --
-19.1336 -19.1335 -19.0147 -19.0147 -10.2131 -10.2131 -10.2047 -10.2046
-10.1760 -10.1760 -10.1456 -10.1456 -10.1412 -10.1412 -10.1407 -10.1407
-10.1350 -10.1350 -10.1332 -10.1332  -1.0508  -1.0507  -0.9447  -0.9419
 -0.8248  -0.8180  -0.7494  -0.7342  -0.7333  -0.7090  -0.6773  -0.6732
 -0.6312  -0.5991  -0.5912  -0.5539  -0.5349  -0.5168  -0.5068  -0.4720
 -0.4606  -0.4566  -0.4532  -0.4527  -0.4405  -0.4403  -0.4226  -0.4094
 -0.3967  -0.3827  -0.3822  -0.3714  -0.3665  -0.3546  -0.3518  -0.3353
 -0.3301  -0.3296  -0.3234  -0.3141  -0.3139  -0.3080  -0.2935  -0.2916
 -0.2252  -0.2177  -0.2066  -0.2044  -0.1945  -0.1865  -0.0989

          Ground-State Mulliken Net Atomic Charges

     Atom                 Charge (a.u.)
  ----------------------------------------
      1 C                    -0.308005
      2 O                    -0.167200
      3 C                     0.012733
      4 C                    -0.142750
      5 C                    -0.579551
      6 C                    -0.103158
      7 C                     0.374412
      8 C                    -0.321689
      9 O                    -0.677604
     10 C                    -0.077865
     11 C                     0.011805
     12 O                    -0.166086
     13 C                    -0.308057
     14 C                    -0.142412
     15 C                    -0.580949
     16 C                    -0.103706
     17 C                     0.373581
     18 C                    -0.321871
     19 O                    -0.677560
     20 C                    -0.079716
     21 H                     0.191904
     22 H                     0.157211
     23 H                     0.153255
     24 H                     0.178413
     25 H                     0.178214
     26 H                     0.133632
     27 H                     0.191935
     28 H                     0.153347
     29 H                     0.157158
     30 H                     0.178410
     31 H                     0.178288
     32 H                     0.133881
  ----------------------------------------
  Sum of atomic charges =    -2.000000

                    Cartesian Multipole Moments
 -----------------------------------------------------------------
    Charge (ESU x 10^10)
                -9.6064
    Dipole Moment (Debye)
         X       0.0021      Y      -0.0100      Z      -0.5577
       Tot       0.5578
    Quadrupole Moments (Debye-Ang)
        XX    -123.8401     XY     -15.5401     YY    -174.5885
        XZ       0.6689     YZ       1.8576     ZZ    -129.3450

 Total job time:  113.39s(wall), 469.86s(cpu)
        *  Thank you very much for using Q-Chem.  Have a nice day.  *
