 Gaussian 16, Revision A.03,
 Gaussian 16:  ES64L-G16RevA.03 25-Dec-2016

 --------------------------------------
 #P UB3LYP/6-311++G(d,p) nosym opt freq
 --------------------------------------

 -------
 Reduced
 -------
 Symbolic Z-matrix:
 Charge = -2 Multiplicity = 1

 SCF Done:  E(UB3LYP) =  -649.774203790     A.U. after  114 cycles
 SCF Done:  E(UB3LYP) =  -649.788803728     A.U. after   33 cycles
 SCF Done:  E(UB3LYP) =  -649.791380918     A.U. after   32 cycles
 SCF Done:  E(UB3LYP) =  -649.791317356     A.U. after   30 cycles
 SCF Done:  E(UB3LYP) =  -649.791579120     A.U. after   28 cycles
 SCF Done:  E(UB3LYP) =  -649.791623269     A.U. after   29 cycles
 SCF Done:  E(UB3LYP) =  -649.791667660     A.U. after   27 cycles
 SCF Done:  E(UB3LYP) =  -649.791674363     A.U. after   28 cycles
 SCF Done:  E(UB3LYP) =  -649.791676785     A.U. after   27 cycles
 SCF Done:  E(UB3LYP) =  -649.791677816     A.U. after   26 cycles
 SCF Done:  E(UB3LYP) =  -649.791679115     A.U. after   25 cycles
 SCF Done:  E(UB3LYP) =  -649.791680137     A.U. after   26 cycles
 SCF Done:  E(UB3LYP) =  -649.791680386     A.U. after   25 cycles
 Optimization completed.
    -- Stationary point found.
 Normal termination of Gaussian 16 at Thu Dec 28 21:00:08 2023.

 ----------------------------------------------------------------------
 #P Geom=AllCheck Guess=TCheck SCRF=Check GenChk UB3LYP/6-311++G(d,p) F
 req
 ----------------------------------------------------------------------

 Structure from the checkpoint file:  "308-an.chk"
 -------
 Reduced
 -------
 Charge = -2 Multiplicity = 1

                          Input orientation:
 ---------------------------------------------------------------------
 Center     Atomic      Atomic             Coordinates (Angstroms)
 Number     Number       Type             X           Y           Z
 ---------------------------------------------------------------------
      1          6           0       -4.073393    3.579365    1.540460
      2          6           0       -4.564661    3.806335    0.274067
      3          6           0       -3.964173    3.158850   -0.828002
      4          6           0       -2.880714    2.306556   -0.643099
      5          6           0       -2.351416    2.019192    0.651356
      6          6           0       -2.979497    2.710345    1.766566
      7          6           0       -2.519881    2.544375    3.144243
      8          6           0       -1.418197    1.658257    3.293173
      9          6           0       -0.804511    0.976921    2.241733
     10          6           0       -1.234196    1.093194    0.872902
     11          8           0       -3.068137    3.159200    4.135054
     12          8           0       -0.654708    0.417201   -0.046475
     13          1           0       -4.502966    4.051674    2.417425
     14          1           0       -4.351323    3.315201   -1.836113
     15          8           0       -2.321834    1.720996   -1.763968
     16          6           0        0.357778    0.054458    2.503985
     17          1           0       -5.407669    4.474658    0.109803
     18          1           0       -1.047221    1.519169    4.309927
     19          1           0       -2.742016    2.144456   -2.523238
     20          1           0        0.651179    0.083406    3.560845
     21          1           0        1.223834    0.322430    1.883188
     22          1           0        0.119662   -0.984767    2.233789
 ---------------------------------------------------------------------

 SCF Done:  E(UB3LYP) =  -649.791680386     A.U. after    5 cycles

 Alpha  occ. eigenvalues --  -18.90184 -18.77675 -18.77610  -9.98356  -9.93828
 Alpha  occ. eigenvalues --   -9.93441  -9.92354  -9.92262  -9.91805  -9.90921
 Alpha  occ. eigenvalues --   -9.90696  -9.90291  -9.89800  -9.88777  -0.81094
 Alpha  occ. eigenvalues --   -0.69495  -0.68937  -0.58892  -0.54051  -0.49562
 Alpha  occ. eigenvalues --   -0.48247  -0.44192  -0.39466  -0.36656  -0.33629
 Alpha  occ. eigenvalues --   -0.30865  -0.26055  -0.24809  -0.21707  -0.20115
 Alpha  occ. eigenvalues --   -0.19160  -0.17255  -0.16934  -0.15832  -0.14643
 Alpha  occ. eigenvalues --   -0.13161  -0.12625  -0.11125  -0.11013  -0.10574
 Alpha  occ. eigenvalues --   -0.08368  -0.07604  -0.07280  -0.06347   0.01715
 Alpha  occ. eigenvalues --    0.02174   0.02882   0.04774   0.05422   0.13742
 Alpha virt. eigenvalues --    0.15441   0.17133   0.17291   0.19847   0.19975
 Alpha virt. eigenvalues --    0.21183   0.21685   0.22468   0.23491   0.24223
 Alpha virt. eigenvalues --    0.26066   0.26511   0.27234   0.27349   0.28260

  Beta  occ. eigenvalues --  -18.90184 -18.77675 -18.77610  -9.98356  -9.93828
  Beta  occ. eigenvalues --   -9.93441  -9.92354  -9.92262  -9.91805  -9.90921
  Beta  occ. eigenvalues --   -9.90696  -9.90291  -9.89800  -9.88777  -0.81094
  Beta  occ. eigenvalues --   -0.69495  -0.68937  -0.58892  -0.54051  -0.49562
  Beta  occ. eigenvalues --   -0.48247  -0.44192  -0.39466  -0.36656  -0.33629
  Beta  occ. eigenvalues --   -0.30865  -0.26055  -0.24809  -0.21707  -0.20115
  Beta  occ. eigenvalues --   -0.19160  -0.17255  -0.16934  -0.15832  -0.14643
  Beta  occ. eigenvalues --   -0.13161  -0.12625  -0.11125  -0.11013  -0.10574
  Beta  occ. eigenvalues --   -0.08368  -0.07604  -0.07280  -0.06347   0.01715
  Beta  occ. eigenvalues --    0.02174   0.02882   0.04774   0.05422   0.13742
  Beta virt. eigenvalues --    0.15441   0.17133   0.17291   0.19847   0.19975
  Beta virt. eigenvalues --    0.21183   0.21685   0.22468   0.23491   0.24223
  Beta virt. eigenvalues --    0.26066   0.26511   0.27234   0.27349   0.28260

 Mulliken charges and spin densities:
               1          2
     1  C   -0.987231   0.000000
     2  C    0.625144  -0.000000
     3  C   -0.324379   0.000000
     4  C    0.670913  -0.000000
     5  C    0.696222  -0.000000
     6  C    0.691203   0.000000
     7  C   -1.082903   0.000000
     8  C   -0.328373   0.000000
     9  C    1.068988  -0.000000
    10  C   -0.399924  -0.000000
    11  O   -0.522629  -0.000000
    12  O   -0.472045  -0.000000
    13  H    0.142408   0.000000
    14  H   -1.324787   0.000000
    15  O   -0.247582   0.000000
    16  C   -0.390015  -0.000000
    17  H   -0.148219   0.000000
    18  H    0.036366   0.000000
    19  H   -0.029378   0.000000
    20  H    0.096335  -0.000000
    21  H    0.119238   0.000000
    22  H    0.110648  -0.000000
 Sum of Mulliken charges =  -2.00000  -0.00000

 Dipole moment (field-independent basis, Debye):
    X=             23.7094    Y=            -21.0331    Z=            -10.0024  Tot=             33.2351
 Quadrupole moment (field-independent basis, Debye-Ang):
   XX=           -185.1630   YY=           -164.4998   ZZ=           -172.4469
   XY=             75.2589   XZ=             20.0401   YZ=            -26.1237

  Exact polarizability: 873.886-474.854 467.087 239.474-119.9371197.772
 Approx polarizability:1474.405-853.433 764.9461674.227********3742.965

                      1                      2                      3
                      A                      A                      A
 Frequencies --     65.9755                77.3590               111.5365
 Red. masses --      4.3370                 4.7622                 1.1554
 Frc consts  --      0.0111                 0.0168                 0.0085
 IR Inten    --      2.2418                 2.8733                 1.7233

                      4                      5                      6
                      A                      A                      A
 Frequencies --    169.6654               214.3702               233.3883
 Red. masses --      5.3516                 3.8927                 4.7602
 Frc consts  --      0.0908                 0.1054                 0.1528
 IR Inten    --      8.9127                 8.9955                 5.5171

                      7                      8                      9
                      A                      A                      A
 Frequencies --    265.5737               304.8963               350.8272
 Red. masses --      3.5210                 3.9121                 5.1663
 Frc consts  --      0.1463                 0.2143                 0.3746
 IR Inten    --      6.0846                 3.0755                 9.0583

                     10                     11                     12
                      A                      A                      A
 Frequencies --    351.8477               377.4817               383.5338
 Red. masses --      8.0834                 9.7654                 1.2654
 Frc consts  --      0.5896                 0.8198                 0.1097
 IR Inten    --     10.6588                 0.8268                33.4957

                     13                     14                     15
                      A                      A                      A
 Frequencies --    409.0686               470.9706               483.8160
 Red. masses --      6.3016                 6.6246                 3.9180
 Frc consts  --      0.6213                 0.8658                 0.5404
 IR Inten    --    259.8775               488.9147                25.1039

                     16                     17                     18
                      A                      A                      A
 Frequencies --    526.1593               564.0470               572.9773
 Red. masses --      7.5937                 4.3929                 5.4696
 Frc consts  --      1.2386                 0.8234                 1.0580
 IR Inten    --      6.1960                19.3722                45.2039

                     19                     20                     21
                      A                      A                      A
 Frequencies --    663.4473               676.4520               687.7119
 Red. masses --      4.3380                 3.7961                 2.7435
 Frc consts  --      1.1250                 1.0234                 0.7645
 IR Inten    --     10.9865                15.3865                 1.2602

                     22                     23                     24
                      A                      A                      A
 Frequencies --    704.9240               766.4933               791.8961
 Red. masses --      6.6254                 1.5934                 5.5287
 Frc consts  --      1.9397                 0.5516                 2.0427
 IR Inten    --      7.7794                24.7671                 6.5503

                     25                     26                     27
                      A                      A                      A
 Frequencies --    797.9364               839.4208               846.7419
 Red. masses --      4.7132                 1.7607                 1.4183
 Frc consts  --      1.7681                 0.7310                 0.5991
 IR Inten    --    121.5843                33.0651               295.7669

                     28                     29                     30
                      A                      A                      A
 Frequencies --    897.8154               938.1558               979.5646
 Red. masses --      5.3952                 1.2487                 5.4868
 Frc consts  --      2.5623                 0.6475                 3.1019
 IR Inten    --    108.8431                13.2918                19.5055

                     31                     32                     33
                      A                      A                      A
 Frequencies --   1008.3118              1036.0890              1069.6056
 Red. masses --      1.5411                 1.4601                 2.2742
 Frc consts  --      0.9231                 0.9235                 1.5329
 IR Inten    --    253.4860                 4.0125               171.4972

                     34                     35                     36
                      A                      A                      A
 Frequencies --   1133.4982              1147.0896              1166.6764
 Red. masses --      1.6414                 2.5730                 2.0060
 Frc consts  --      1.2425                 1.9947                 1.6087
 IR Inten    --     28.8124                49.4778                77.4497

                     37                     38                     39
                      A                      A                      A
 Frequencies --   1198.8892              1222.9301              1250.1602
 Red. masses --      2.4697                 1.9455                 2.8762
 Frc consts  --      2.0915                 1.7143                 2.6485
 IR Inten    --    232.9204               121.6973                56.5295

                     40                     41                     42
                      A                      A                      A
 Frequencies --   1286.8492              1322.0515              1370.5186
 Red. masses --      2.2321                 4.5391                 1.3881
 Frc consts  --      2.1778                 4.6743                 1.5362
 IR Inten    --    391.1056               581.8181                52.4563

                     43                     44                     45
                      A                      A                      A
 Frequencies --   1406.0006              1414.2161              1431.8771
 Red. masses --      3.2111                 8.6889                 4.1248
 Frc consts  --      3.7400                10.2387                 4.9827
 IR Inten    --    335.2155               941.8518               784.8164

                     46                     47                     48
                      A                      A                      A
 Frequencies --   1448.6568              1458.7278              1471.6101
 Red. masses --      1.0576                 2.8095                 1.3953
 Frc consts  --      1.3077                 3.5224                 1.7804
 IR Inten    --      2.9406                82.3065               781.1816

                     49                     50                     51
                      A                      A                      A
 Frequencies --   1507.0082              1529.1590              1571.3113
 Red. masses --      2.7116                 3.9713                 5.5082
 Frc consts  --      3.6283                 5.4713                 8.0128
 IR Inten    --    303.2815                90.0115              2803.0987

                     52                     53                     54
                      A                      A                      A
 Frequencies --   1591.8953              2957.4948              2977.2866
 Red. masses --      5.3303                 1.0422                 1.0889
 Frc consts  --      7.9585                 5.3711                 5.6868
 IR Inten    --     95.6071               889.1801               402.2401

                     55                     56                     57
                      A                      A                      A
 Frequencies --   3029.4614              3081.8018              3082.1052
 Red. masses --      1.1004                 1.0864                 1.0864
 Frc consts  --      5.9501                 6.0795                 6.0803
 IR Inten    --     25.6795               413.3290                34.5643

                     58                     59                     60
                      A                      A                      A
 Frequencies --   3113.6008              3166.3798              3745.7371
 Red. masses --      1.0898                 1.0909                 1.0651
 Frc consts  --      6.2250                 6.4442                 8.8050
 IR Inten    --    137.6336                26.4817               698.2094

 - Thermochemistry -
 -------------------
 Temperature   298.150 Kelvin.  Pressure   1.00000 Atm.
 Atom     1 has atomic number  6 and mass  12.00000

 Molecular mass:   188.04734 amu.
 Principal axes and moments of inertia in atomic units:
                           1         2         3
     Eigenvalues --  1922.586902444.211764354.45061
           X            0.63800  -0.43000   0.63879
           Y           -0.44306   0.47350   0.76125
           Z            0.62980   0.76870  -0.11157
 This molecule is an asymmetric top.
 Rotational symmetry number  1.
 Warning -- assumption of classical behavior for rotation
           may cause significant error
 Rotational temperatures (Kelvin)      0.04505     0.03544     0.01989
 Rotational constants (GHZ):           0.93870     0.73837     0.41446
 Zero-point vibrational energy     417024.5 (Joules/Mol)
                                   99.67125 (Kcal/Mol)
 Warning -- explicit consideration of  18 degrees of freedom as
           vibrations may cause significant error
 Vibrational temperatures:     94.92   111.30   160.48   244.11   308.43
          (Kelvin)            335.79   382.10   438.68   504.76   506.23
                              543.11   551.82   588.56   677.62   696.10
                              757.03   811.54   824.39   954.55   973.26
                              989.46  1014.23  1102.81  1139.36  1148.05
                             1207.74  1218.27  1291.76  1349.80  1409.38
                             1450.74  1490.70  1538.92  1630.85  1650.41
                             1678.59  1724.93  1759.52  1798.70  1851.49
                             1902.14  1971.87  2022.92  2034.74  2060.15
                             2084.29  2098.78  2117.32  2168.25  2200.12
                             2260.77  2290.38  4255.18  4283.65  4358.72
                             4434.03  4434.46  4479.78  4555.71  5389.28

 Zero-point correction=                           0.158836 (Hartree/Particle)
 Thermal correction to Energy=                    0.170513
 Thermal correction to Enthalpy=                  0.171457
 Thermal correction to Gibbs Free Energy=         0.121313
 Sum of electronic and zero-point Energies=           -649.632844
 Sum of electronic and thermal Energies=              -649.621168
 Sum of electronic and thermal Enthalpies=            -649.620223
 Sum of electronic and thermal Free Energies=         -649.670368

                     E (Thermal)             CV                S
                      KCal/Mol        Cal/Mol-Kelvin    Cal/Mol-Kelvin
 Total                  106.998             45.857            105.538
 Electronic               0.000              0.000              0.000
 Translational            0.889              2.981             41.600
 Rotational               0.889              2.981             31.393
 Vibrational            105.221             39.895             32.544
 Vibration     1          0.597              1.971              4.270
 Vibration     2          0.599              1.964              3.957
 Vibration     3          0.607              1.940              3.242
 Vibration     4          0.625              1.880              2.439
 Vibration     5          0.644              1.819              2.006
 Vibration     6          0.654              1.790              1.853
 Vibration     7          0.671              1.736              1.625
 Vibration     8          0.696              1.664              1.390
 Vibration     9          0.728              1.574              1.162
 Vibration    10          0.728              1.571              1.158
 Vibration    11          0.748              1.518              1.049
 Vibration    12          0.753              1.505              1.025
 Vibration    13          0.773              1.451              0.930
 Vibration    14          0.828              1.314              0.735
 Vibration    15          0.840              1.286              0.700
 Vibration    16          0.881              1.192              0.596
 Vibration    17          0.920              1.109              0.516
 Vibration    18          0.929              1.090              0.499

 Optimization completed.
    -- Stationary point found.
 Normal termination of Gaussian 16 at Thu Dec 28 21:24:45 2023.
