 Gaussian 16, Revision A.03,
 Gaussian 16:  ES64L-G16RevA.03 25-Dec-2016

 ----------------------------------------------------------------------
 #P UB3LYP/6-311++G(d,p) nosym opt freq SCRF=(PCM,Solvent=n,n-DiMethylF
 ormamide)
 ----------------------------------------------------------------------

 --------
 Oxidized
 --------
 Symbolic Z-matrix:
 Charge =  0 Multiplicity = 1

 SCF Done:  E(UB3LYP) =  -883.129045336     A.U. after   15 cycles
 SCF Done:  E(UB3LYP) =  -883.129206796     A.U. after   13 cycles
 SCF Done:  E(UB3LYP) =  -883.129513964     A.U. after   12 cycles
 SCF Done:  E(UB3LYP) =  -883.129531789     A.U. after   12 cycles
 SCF Done:  E(UB3LYP) =  -883.129577555     A.U. after   11 cycles
 SCF Done:  E(UB3LYP) =  -883.129580394     A.U. after   10 cycles
 SCF Done:  E(UB3LYP) =  -883.129581148     A.U. after   10 cycles
 SCF Done:  E(UB3LYP) =  -883.129581349     A.U. after    9 cycles
 SCF Done:  E(UB3LYP) =  -883.129581432     A.U. after    9 cycles
 SCF Done:  E(UB3LYP) =  -883.129581484     A.U. after    9 cycles
 SCF Done:  E(UB3LYP) =  -883.129581498     A.U. after    9 cycles
 Optimization completed.
    -- Stationary point found.
 Normal termination of Gaussian 16 at Sat Feb 10 12:00:46 2024.

 ----------------------------------------------------------------------
 #P Geom=AllCheck Guess=TCheck SCRF=Check GenChk UB3LYP/6-311++G(d,p) F
 req
 ----------------------------------------------------------------------

 Structure from the checkpoint file:  "113.chk"
 --------
 Oxidized
 --------
 Charge =  0 Multiplicity = 1

                          Input orientation:
 ---------------------------------------------------------------------
 Center     Atomic      Atomic             Coordinates (Angstroms)
 Number     Number       Type             X           Y           Z
 ---------------------------------------------------------------------
      1          8           0        1.179320    1.704317    1.816466
      2          6           0        0.640651    0.859721    1.085859
      3          6           0       -0.767984    0.622435    1.130941
      4          6           0       -1.459338   -0.112124    0.185988
      5          7           0       -2.803854   -0.241393    0.211468
      6          6           0       -3.540215    0.224540    1.404182
      7          6           0       -4.956845   -0.344499    1.431850
      8          6           0       -5.784386    0.115980    0.217063
      9          6           0       -4.878340    0.291100   -1.019218
     10          6           0       -3.639206   -0.605906   -0.959776
     11          6           0       -0.640661   -0.859614   -0.861238
     12          8           0       -1.179343   -1.704211   -1.591835
     13          6           0        0.767979   -0.622351   -0.906303
     14          6           0        1.459336    0.112194    0.038657
     15          7           0        2.803857    0.241420    0.013162
     16          6           0        3.540159   -0.224517   -1.179585
     17          6           0        4.956796    0.344504   -1.207317
     18          6           0        5.784390   -0.116001    0.007424
     19          6           0        4.878391   -0.291182    1.243728
     20          6           0        3.639268    0.605849    1.184395
     21          1           0       -1.289276    1.196086    1.884056
     22          1           0       -3.568861    1.322503    1.423780
     23          1           0       -2.987756   -0.101025    2.287987
     24          1           0       -5.431884   -0.039949    2.367398
     25          1           0       -4.893031   -1.436655    1.456068
     26          1           0       -6.569185   -0.617836    0.014283
     27          1           0       -6.287781    1.060910    0.439803
     28          1           0       -5.423149    0.060534   -1.938334
     29          1           0       -4.548021    1.331183   -1.104939
     30          1           0       -3.045785   -0.494663   -1.859793
     31          1           0       -3.928309   -1.659678   -0.894049
     32          1           0        1.289271   -1.196011   -1.659410
     33          1           0        3.568786   -1.322481   -1.199193
     34          1           0        2.987665    0.101062   -2.063362
     35          1           0        5.431785    0.039961   -2.142892
     36          1           0        4.892992    1.436661   -1.231517
     37          1           0        6.569180    0.617825    0.210202
     38          1           0        6.287798   -1.060913   -0.215367
     39          1           0        5.423243   -0.060683    2.162836
     40          1           0        4.548060   -1.331266    1.329399
     41          1           0        3.045891    0.494561    2.084433
     42          1           0        3.928389    1.659618    1.118718
 ---------------------------------------------------------------------

 SCF Done:  E(UB3LYP) =  -883.129581498     A.U. after    1 cycles

 Alpha  occ. eigenvalues --  -19.10684 -19.10684 -14.36411 -14.36410 -10.26451
 Alpha  occ. eigenvalues --  -10.26451 -10.24269 -10.24268 -10.21196 -10.21196
 Alpha  occ. eigenvalues --  -10.20698 -10.20697 -10.17457 -10.17457 -10.17196
 Alpha  occ. eigenvalues --  -10.17195 -10.16925 -10.16925 -10.16674 -10.16674
 Alpha  occ. eigenvalues --   -1.04063  -1.03771  -0.97163  -0.97147  -0.84166
 Alpha  occ. eigenvalues --   -0.82022  -0.79565  -0.77090  -0.76936  -0.74794
 Alpha  occ. eigenvalues --   -0.70620  -0.68690  -0.65797  -0.65080  -0.63790
 Alpha  occ. eigenvalues --   -0.60388  -0.58627  -0.55535  -0.54520  -0.53350
 Alpha  occ. eigenvalues --   -0.52267  -0.52248  -0.50765  -0.50210  -0.46084
 Alpha  occ. eigenvalues --   -0.45816  -0.45137  -0.45073  -0.44305  -0.43153
 Alpha  occ. eigenvalues --   -0.43031  -0.42934  -0.42672  -0.41796  -0.41508
 Alpha  occ. eigenvalues --   -0.41282  -0.39984  -0.38929  -0.38773  -0.38433
 Alpha  occ. eigenvalues --   -0.37789  -0.37582  -0.35025  -0.34799  -0.33583
 Alpha  occ. eigenvalues --   -0.33579  -0.32727  -0.32661  -0.31189  -0.30988
 Alpha  occ. eigenvalues --   -0.26449  -0.26150  -0.23178  -0.21468
 Alpha virt. eigenvalues --   -0.10266  -0.01134  -0.00614   0.00109   0.00375
 Alpha virt. eigenvalues --    0.01023   0.01082   0.01229   0.01585   0.02072
 Alpha virt. eigenvalues --    0.02316   0.03092   0.03516   0.03554   0.04169

  Beta  occ. eigenvalues --  -19.10684 -19.10684 -14.36411 -14.36410 -10.26451
  Beta  occ. eigenvalues --  -10.26451 -10.24269 -10.24268 -10.21196 -10.21196
  Beta  occ. eigenvalues --  -10.20698 -10.20697 -10.17457 -10.17457 -10.17196
  Beta  occ. eigenvalues --  -10.17195 -10.16925 -10.16925 -10.16674 -10.16674
  Beta  occ. eigenvalues --   -1.04063  -1.03771  -0.97163  -0.97147  -0.84166
  Beta  occ. eigenvalues --   -0.82022  -0.79565  -0.77090  -0.76936  -0.74794
  Beta  occ. eigenvalues --   -0.70620  -0.68690  -0.65797  -0.65080  -0.63790
  Beta  occ. eigenvalues --   -0.60388  -0.58627  -0.55535  -0.54520  -0.53350
  Beta  occ. eigenvalues --   -0.52267  -0.52248  -0.50765  -0.50210  -0.46084
  Beta  occ. eigenvalues --   -0.45816  -0.45137  -0.45073  -0.44305  -0.43153
  Beta  occ. eigenvalues --   -0.43031  -0.42934  -0.42672  -0.41796  -0.41508
  Beta  occ. eigenvalues --   -0.41282  -0.39984  -0.38929  -0.38773  -0.38433
  Beta  occ. eigenvalues --   -0.37789  -0.37582  -0.35025  -0.34799  -0.33583
  Beta  occ. eigenvalues --   -0.33579  -0.32727  -0.32661  -0.31189  -0.30988
  Beta  occ. eigenvalues --   -0.26449  -0.26150  -0.23178  -0.21468
  Beta virt. eigenvalues --   -0.10266  -0.01134  -0.00614   0.00109   0.00375
  Beta virt. eigenvalues --    0.01023   0.01082   0.01229   0.01585   0.02072
  Beta virt. eigenvalues --    0.02316   0.03092   0.03516   0.03554   0.04169

 Mulliken charges and spin densities:
               1          2
     1  O   -0.349323  -0.000000
     2  C   -0.075218  -0.000000
     3  C    0.003037   0.000000
     4  C   -0.320183  -0.000000
     5  N    0.312186  -0.000000
     6  C   -0.127427   0.000000
     7  C   -0.480050  -0.000000
     8  C   -0.517291   0.000000
     9  C   -0.271453  -0.000000
    10  C   -0.254699   0.000000
    11  C   -0.075261  -0.000000
    12  O   -0.349301   0.000000
    13  C    0.002995   0.000000
    14  C   -0.320328  -0.000000
    15  N    0.312201   0.000000
    16  C   -0.127415  -0.000000
    17  C   -0.480058   0.000000
    18  C   -0.517297  -0.000000
    19  C   -0.271475   0.000000
    20  C   -0.254690  -0.000000
    21  H    0.239012   0.000000
    22  H    0.190477   0.000000
    23  H    0.198993  -0.000000
    24  H    0.185365   0.000000
    25  H    0.187176  -0.000000
    26  H    0.160469  -0.000000
    27  H    0.160834  -0.000000
    28  H    0.184725   0.000000
    29  H    0.172889   0.000000
    30  H    0.206545  -0.000000
    31  H    0.194036   0.000000
    32  H    0.239015   0.000000
    33  H    0.190476  -0.000000
    34  H    0.198994   0.000000
    35  H    0.185364  -0.000000
    36  H    0.187177   0.000000
    37  H    0.160469   0.000000
    38  H    0.160835   0.000000
    39  H    0.184729   0.000000
    40  H    0.172890  -0.000000
    41  H    0.206542   0.000000
    42  H    0.194039  -0.000000
 Sum of Mulliken charges =  -0.00000   0.00000

 Dipole moment (field-independent basis, Debye):
    X=              0.0000    Y=             -0.0003    Z=             -0.0001  Tot=              0.0003
 Quadrupole moment (field-independent basis, Debye-Ang):
   XX=            -74.8969   YY=           -133.0263   ZZ=           -125.6287
   XY=             -7.3266   XZ=             -9.6794   YZ=            -10.0484

  Exact polarizability: 453.298  54.028 240.327  40.048  45.620 261.617
 Approx polarizability: 469.941  87.309 291.550  71.106  66.768 299.977

                      1                      2                      3
                      A                      A                      A
 Frequencies --     17.9815                49.5811                54.8937
 Red. masses --      4.7386                 3.1468                 3.4468
 Frc consts  --      0.0009                 0.0046                 0.0061
 IR Inten    --      5.5437                 0.0000                 5.8088

                      4                      5                      6
                      A                      A                      A
 Frequencies --     61.1207                75.4394               125.5749
 Red. masses --      2.7815                 3.9044                 2.8048
 Frc consts  --      0.0061                 0.0131                 0.0261
 IR Inten    --      2.8988                 0.0000                 4.9150

                      7                      8                      9
                      A                      A                      A
 Frequencies --    133.2677               140.0047               170.6837
 Red. masses --      2.6590                 5.9552                 3.2283
 Frc consts  --      0.0278                 0.0688                 0.0554
 IR Inten    --      0.0000                 8.2011                 0.0000

                     10                     11                     12
                      A                      A                      A
 Frequencies --    180.9767               204.9211               224.0207
 Red. masses --      2.9519                 4.4398                 5.2351
 Frc consts  --      0.0570                 0.1098                 0.1548
 IR Inten    --      4.0495                 0.0000                 0.0000

                     13                     14                     15
                      A                      A                      A
 Frequencies --    284.6964               286.5168               311.1037
 Red. masses --      1.8339                 1.8750                 2.4041
 Frc consts  --      0.0876                 0.0907                 0.1371
 IR Inten    --      0.5784                 0.0000                 0.0073

                     16                     17                     18
                      A                      A                      A
 Frequencies --    311.2965               327.1827               344.5743
 Red. masses --      2.7450                 5.0549                 5.3865
 Frc consts  --      0.1567                 0.3188                 0.3768
 IR Inten    --     28.9402                20.6302                 0.0000

                     19                     20                     21
                      A                      A                      A
 Frequencies --    375.2939               439.8106               458.4653
 Red. masses --      4.7072                 8.0350                 5.9874
 Frc consts  --      0.3906                 0.9157                 0.7415
 IR Inten    --      3.6856                 0.0000                54.9027

                     22                     23                     24
                      A                      A                      A
 Frequencies --    465.1096               470.6626               493.6512
 Red. masses --      2.7776                 2.9623                 3.0104
 Frc consts  --      0.3540                 0.3866                 0.4322
 IR Inten    --      0.0468                 0.0000                 5.9512

                     25                     26                     27
                      A                      A                      A
 Frequencies --    516.2567               542.8133               565.3449
 Red. masses --      4.9099                 6.9818                 1.9682
 Frc consts  --      0.7710                 1.2120                 0.3706
 IR Inten    --      0.0000                 0.0000                 2.4843

                     28                     29                     30
                      A                      A                      A
 Frequencies --    578.8523               646.7982               655.2625
 Red. masses --      2.0968                 3.9692                 3.3072
 Frc consts  --      0.4139                 0.9784                 0.8366
 IR Inten    --      0.0000                 0.0000                 4.3164

                     31                     32                     33
                      A                      A                      A
 Frequencies --    700.0686               746.3180               762.1400
 Red. masses --      4.5046                 1.7190                 5.9803
 Frc consts  --      1.3007                 0.5641                 2.0466
 IR Inten    --      0.0000                 0.0000                52.6456

                     34                     35                     36
                      A                      A                      A
 Frequencies --    776.0566               777.8942               812.2082
 Red. masses --      1.3421                 1.3340                 4.4453
 Frc consts  --      0.4763                 0.4756                 1.7278
 IR Inten    --      7.3255                 0.0000                 0.0000

                     37                     38                     39
                      A                      A                      A
 Frequencies --    824.8968               828.5513               837.4286
 Red. masses --      4.7979                 1.6700                 2.8983
 Frc consts  --      1.9235                 0.6755                 1.1975
 IR Inten    --     10.4635               184.2070                 0.0000

                     40                     41                     42
                      A                      A                      A
 Frequencies --    853.1385               874.6214               883.3105
 Red. masses --      2.8654                 3.1992                 1.5472
 Frc consts  --      1.2288                 1.4419                 0.7112
 IR Inten    --     21.7455                 0.0000                 6.1616

                     43                     44                     45
                      A                      A                      A
 Frequencies --    884.4724               919.9272               922.4481
 Red. masses --      1.4765                 2.4783                 2.3054
 Frc consts  --      0.6805                 1.2357                 1.1558
 IR Inten    --      0.0000                12.5539                 0.0000

                     46                     47                     48
                      A                      A                      A
 Frequencies --    941.4476               988.6910               988.8845
 Red. masses --      2.6207                 1.4936                 1.4806
 Frc consts  --      1.3686                 0.8602                 0.8531
 IR Inten    --     96.9878                10.9208                 0.0000

                     49                     50                     51
                      A                      A                      A
 Frequencies --   1019.1612              1022.0325              1040.1626
 Red. masses --      2.1870                 2.2334                 2.0332
 Frc consts  --      1.3384                 1.3745                 1.2961
 IR Inten    --      0.0000               100.5971                 0.0000

                     52                     53                     54
                      A                      A                      A
 Frequencies --   1046.3244              1095.2890              1096.4513
 Red. masses --      1.9977                 1.6837                 1.7028
 Frc consts  --      1.2886                 1.1901                 1.2061
 IR Inten    --      9.6392                 1.7944                 0.0000

                     55                     56                     57
                      A                      A                      A
 Frequencies --   1118.5134              1123.7912              1136.6403
 Red. masses --      4.8166                 3.9911                 2.0357
 Frc consts  --      3.5503                 2.9697                 1.5495
 IR Inten    --     31.5546                 0.0000                 0.0002

                     58                     59                     60
                      A                      A                      A
 Frequencies --   1136.8723              1192.0438              1194.6915
 Red. masses --      2.0260                 1.2410                 1.1947
 Frc consts  --      1.5428                 1.0389                 1.0047
 IR Inten    --     20.9331               294.2749                 0.0000

                     61                     62                     63
                      A                      A                      A
 Frequencies --   1227.4384              1242.1234              1256.0595
 Red. masses --      1.9712                 1.4642                 1.7565
 Frc consts  --      1.7498                 1.3310                 1.6327
 IR Inten    --    384.6267                 0.0000                 0.0002

                     64                     65                     66
                      A                      A                      A
 Frequencies --   1258.0967              1268.6247              1272.6412
 Red. masses --      1.4242                 1.3436                 1.2539
 Frc consts  --      1.3281                 1.2740                 1.1965
 IR Inten    --    339.6090                 0.0001               175.4382

                     67                     68                     69
                      A                      A                      A
 Frequencies --   1277.2454              1291.8032              1295.8069
 Red. masses --      1.2718                 1.2207                 1.1617
 Frc consts  --      1.2224                 1.2002                 1.1492
 IR Inten    --      0.0000               157.3999                 0.0000

                     70                     71                     72
                      A                      A                      A
 Frequencies --   1312.6173              1352.2139              1354.6878
 Red. masses --      2.0266                 1.6588                 1.2860
 Frc consts  --      2.0573                 1.7870                 1.3905
 IR Inten    --    167.0182               148.4983                 0.0000

                     73                     74                     75
                      A                      A                      A
 Frequencies --   1356.9490              1366.6532              1367.6051
 Red. masses --      1.3206                 1.3225                 1.3271
 Frc consts  --      1.4327                 1.4553                 1.4625
 IR Inten    --     93.6576                 0.0000                 9.7334

                     76                     77                     78
                      A                      A                      A
 Frequencies --   1375.5124              1378.9780              1379.0810
 Red. masses --      1.7666                 1.4056                 1.5974
 Frc consts  --      1.9693                 1.5748                 1.7899
 IR Inten    --      0.0000                35.1932                 0.0050

                     79                     80                     81
                      A                      A                      A
 Frequencies --   1388.5124              1388.5140              1397.7822
 Red. masses --      1.4258                 1.4303                 1.4516
 Frc consts  --      1.6196                 1.6248                 1.6710
 IR Inten    --      0.2112                 6.0674                60.5555

                     82                     83                     84
                      A                      A                      A
 Frequencies --   1406.8754              1430.0016              1444.5304
 Red. masses --      2.0092                 4.4068                 5.2265
 Frc consts  --      2.3431                 5.3094                 6.4256
 IR Inten    --      0.0000                 0.0000               297.7692

                     85                     86                     87
                      A                      A                      A
 Frequencies --   1479.6443              1479.8940              1486.1919
 Red. masses --      1.0872                 1.0819                 1.0881
 Frc consts  --      1.4024                 1.3960                 1.4160
 IR Inten    --     51.3759                 0.0000                82.1987

                     88                     89                     90
                      A                      A                      A
 Frequencies --   1486.4293              1492.3642              1494.0285
 Red. masses --      1.0839                 1.1427                 1.1064
 Frc consts  --      1.4109                 1.4995                 1.4551
 IR Inten    --      0.0002               524.2081                 0.0001

                     91                     92                     93
                      A                      A                      A
 Frequencies --   1502.1447              1502.4526              1504.7359
 Red. masses --      1.1025                 1.0847                 1.1351
 Frc consts  --      1.4658                 1.4427                 1.5143
 IR Inten    --     72.9861                 0.0013               302.2606

                     94                     95                     96
                      A                      A                      A
 Frequencies --   1506.9630              1547.7309              1579.6948
 Red. masses --      1.1126                 3.4967                 6.3376
 Frc consts  --      1.4886                 4.9351                 9.3180
 IR Inten    --      0.0000              2870.9640                 0.0000

                     97                     98                     99
                      A                      A                      A
 Frequencies --   1615.5579              1636.9905              2988.2747
 Red. masses --      7.3594                12.1332                 1.0706
 Frc consts  --     11.3172                19.1566                 5.6326
 IR Inten    --      0.0000               528.9558                 0.0107

                    100                    101                    102
                      A                      A                      A
 Frequencies --   2988.3416              3024.4313              3024.4327
 Red. masses --      1.0706                 1.0711                 1.0711
 Frc consts  --      5.6330                 5.7724                 5.7724
 IR Inten    --     80.9383                31.3569                23.2431

                    103                    104                    105
                      A                      A                      A
 Frequencies --   3030.5463              3030.5544              3037.0922
 Red. masses --      1.0618                 1.0618                 1.0672
 Frc consts  --      5.7453                 5.7454                 5.8000
 IR Inten    --      0.0270                82.0929                 0.0547

                    106                    107                    108
                      A                      A                      A
 Frequencies --   3037.1095              3040.1921              3040.2740
 Red. masses --      1.0673                 1.0657                 1.0657
 Frc consts  --      5.8002                 5.8033                 5.8040
 IR Inten    --    157.3800                90.6953                 0.0000

                    109                    110                    111
                      A                      A                      A
 Frequencies --   3061.1310              3061.1321              3072.6392
 Red. masses --      1.0992                 1.0992                 1.0938
 Frc consts  --      6.0686                 6.0686                 6.0841
 IR Inten    --      0.0242                50.0477                 0.0000

                    112                    113                    114
                      A                      A                      A
 Frequencies --   3072.7630              3077.2336              3077.2651
 Red. masses --      1.0938                 1.0984                 1.0984
 Frc consts  --      6.0849                 6.1284                 6.1285
 IR Inten    --     68.9960               111.7400                 0.0050

                    115                    116                    117
                      A                      A                      A
 Frequencies --   3085.5840              3085.5935              3166.2103
 Red. masses --      1.1041                 1.1041                 1.0914
 Frc consts  --      6.1937                 6.1937                 6.4462
 IR Inten    --      0.0048               222.8295                 1.6910

                    118                    119                    120
                      A                      A                      A
 Frequencies --   3166.2306              3208.9698              3210.6365
 Red. masses --      1.0913                 1.0889                 1.0891
 Frc consts  --      6.4461                 6.6066                 6.6148
 IR Inten    --     19.9632                11.3401                 0.0000

 - Thermochemistry -
 -------------------
 Temperature   298.150 Kelvin.  Pressure   1.00000 Atm.
 Atom     1 has atomic number  8 and mass  15.99491

 Molecular mass:   274.16813 amu.
 Principal axes and moments of inertia in atomic units:
                           1         2         3
     Eigenvalues --  1758.56843********************
           X            0.99937  -0.01252  -0.03307
           Y            0.03504   0.47619   0.87864
           Z           -0.00475   0.87925  -0.47634
 This molecule is an asymmetric top.
 Rotational symmetry number  1.
 Warning -- assumption of classical behavior for rotation
           may cause significant error
 Rotational temperatures (Kelvin)      0.04925     0.00697     0.00637
 Rotational constants (GHZ):           1.02626     0.14521     0.13267
 Zero-point vibrational energy     951321.0 (Joules/Mol)
                                  227.37117 (Kcal/Mol)
 Warning -- explicit consideration of  28 degrees of freedom as
           vibrations may cause significant error
 Vibrational temperatures:     25.87    71.34    78.98    87.94   108.54
          (Kelvin)            180.67   191.74   201.44   245.58   260.39
                              294.84   322.32   409.61   412.23   447.61
                              447.89   470.74   495.77   539.96   632.79
                              659.63   669.19   677.18   710.25   742.78
                              780.99   813.41   832.84   930.60   942.78
                             1007.24  1073.79  1096.55  1116.57  1119.22
                             1168.59  1186.84  1192.10  1204.87  1227.48
                             1258.39  1270.89  1272.56  1323.57  1327.20
                             1354.53  1422.51  1422.78  1466.35  1470.48
                             1496.56  1505.43  1575.88  1577.55  1609.29
                             1616.88  1635.37  1635.71  1715.09  1718.89
                             1766.01  1787.14  1807.19  1810.12  1825.27
                             1831.05  1837.67  1858.62  1864.38  1888.56
                             1945.53  1949.09  1952.35  1966.31  1967.68
                             1979.06  1984.04  1984.19  1997.76  1997.76
                             2011.10  2024.18  2057.45  2078.36  2128.88
                             2129.24  2138.30  2138.64  2147.18  2149.57
                             2161.25  2161.69  2164.98  2168.18  2226.84
                             2272.83  2324.43  2355.26  4299.46  4299.56
                             4351.48  4351.48  4360.28  4360.29  4369.70
                             4369.72  4374.16  4374.28  4404.28  4404.29
                             4420.84  4421.02  4427.45  4427.50  4439.47
                             4439.48  4555.47  4555.50  4616.99  4619.39

 Zero-point correction=                           0.362339 (Hartree/Particle)
 Thermal correction to Energy=                    0.380510
 Thermal correction to Enthalpy=                  0.381454
 Thermal correction to Gibbs Free Energy=         0.315128
 Sum of electronic and zero-point Energies=           -882.767242
 Sum of electronic and thermal Energies=              -882.749071
 Sum of electronic and thermal Enthalpies=            -882.748127
 Sum of electronic and thermal Free Energies=         -882.814454

                     E (Thermal)             CV                S
                      KCal/Mol        Cal/Mol-Kelvin    Cal/Mol-Kelvin
 Total                  238.774             71.447            139.596
 Electronic               0.000              0.000              0.000
 Translational            0.889              2.981             42.724
 Rotational               0.889              2.981             34.052
 Vibrational            236.996             65.486             62.820
 Vibration     1          0.593              1.986              6.845
 Vibration     2          0.595              1.978              4.834
 Vibration     3          0.596              1.976              4.633
 Vibration     4          0.597              1.973              4.421
 Vibration     5          0.599              1.965              4.006
 Vibration     6          0.611              1.927              3.013
 Vibration     7          0.613              1.920              2.898
 Vibration     8          0.615              1.913              2.804
 Vibration     9          0.626              1.879              2.428
 Vibration    10          0.630              1.866              2.318
 Vibration    11          0.640              1.833              2.088
 Vibration    12          0.649              1.804              1.926
 Vibration    13          0.683              1.702              1.505
 Vibration    14          0.684              1.699              1.494
 Vibration    15          0.700              1.653              1.356
 Vibration    16          0.700              1.652              1.355
 Vibration    17          0.711              1.621              1.274
 Vibration    18          0.723              1.586              1.191
 Vibration    19          0.746              1.523              1.058
 Vibration    20          0.800              1.383              0.827
 Vibration    21          0.816              1.342              0.771
 Vibration    22          0.823              1.327              0.751
 Vibration    23          0.828              1.315              0.736
 Vibration    24          0.849              1.264              0.674
 Vibration    25          0.871              1.214              0.619
 Vibration    26          0.898              1.155              0.559
 Vibration    27          0.921              1.106              0.513
 Vibration    28          0.935              1.077              0.487

 Optimization completed.
    -- Stationary point found.
 Normal termination of Gaussian 16 at Sat Feb 10 13:45:50 2024.
