 Gaussian 16, Revision A.03,
 Gaussian 16:  ES64L-G16RevA.03 25-Dec-2016

 ----------------------------------------------------------------------
 #P UB3LYP/6-311++G(d,p) nosym opt freq SCRF=(PCM,Solvent=n,n-DiMethylF
 ormamide)
 ----------------------------------------------------------------------

 -------
 Radical
 -------
 Symbolic Z-matrix:
 Charge = -1 Multiplicity = 2

 SCF Done:  E(UB3LYP) =  -5757.91559588     A.U. after   18 cycles
 SCF Done:  E(UB3LYP) =  -5757.91600318     A.U. after   16 cycles
 SCF Done:  E(UB3LYP) =  -5757.91624187     A.U. after   14 cycles
 SCF Done:  E(UB3LYP) =  -5757.91628285     A.U. after   14 cycles
 SCF Done:  E(UB3LYP) =  -5757.91628880     A.U. after   13 cycles
 SCF Done:  E(UB3LYP) =  -5757.91629183     A.U. after   11 cycles
 SCF Done:  E(UB3LYP) =  -5757.91629379     A.U. after   11 cycles
 SCF Done:  E(UB3LYP) =  -5757.91629447     A.U. after   11 cycles
 SCF Done:  E(UB3LYP) =  -5757.91629462     A.U. after   10 cycles
 SCF Done:  E(UB3LYP) =  -5757.91629473     A.U. after    9 cycles
 SCF Done:  E(UB3LYP) =  -5757.91629477     A.U. after    9 cycles
 Optimization completed.
    -- Stationary point found.
 Normal termination of Gaussian 16 at Sat Feb 10 10:41:51 2024.

 ----------------------------------------------------------------------
 #P Geom=AllCheck Guess=TCheck SCRF=Check GenChk UB3LYP/6-311++G(d,p) F
 req
 ----------------------------------------------------------------------

 Structure from the checkpoint file:  "023-rad.chk"
 -------
 Radical
 -------
 Charge = -1 Multiplicity = 2

                          Input orientation:
 ---------------------------------------------------------------------
 Center     Atomic      Atomic             Coordinates (Angstroms)
 Number     Number       Type             X           Y           Z
 ---------------------------------------------------------------------
      1          6           0       -2.829574   -1.582766    0.086780
      2          8           0       -2.231306   -0.705656   -0.888484
      3          6           0       -1.199623    0.067736   -0.437437
      4          6           0       -1.333880    1.431309   -0.352697
      5         35           0       -3.012883    2.246008   -0.796361
      6          6           0       -0.266594    2.328730    0.060577
      7          8           0       -0.410450    3.570932    0.141859
      8          6           0        0.982110    1.650835    0.371543
      9          6           0        1.157511    0.291733    0.290038
     10          8           0        2.341078   -0.280068    0.661412
     11          6           0        3.110703   -0.879012   -0.400185
     12          6           0        0.066215   -0.583194   -0.121149
     13          8           0        0.209921   -1.832946   -0.199180
     14         35           0        2.445723    2.760695    0.924647
     15          1           0       -3.285056   -0.995521    0.889667
     16          1           0       -3.602918   -2.137377   -0.442728
     17          1           0       -2.087906   -2.270538    0.492893
     18          1           0        3.995607   -1.302180    0.073039
     19          1           0        2.539142   -1.664370   -0.894603
     20          1           0        3.412181   -0.114349   -1.122213
 ---------------------------------------------------------------------

 SCF Done:  E(UB3LYP) =  -5757.91629477     A.U. after    1 cycles

 Alpha  occ. eigenvalues -- -482.82829-482.82824 -62.48099 -62.48094 -56.30132
 Alpha  occ. eigenvalues --  -56.30126 -56.29763 -56.29758 -56.29728 -56.29722
 Alpha  occ. eigenvalues --  -19.14744 -19.14743 -19.09297 -19.09088 -10.24863
 Alpha  occ. eigenvalues --  -10.23908 -10.23901 -10.23817 -10.22389 -10.22388
 Alpha  occ. eigenvalues --  -10.21423 -10.21418  -8.69063  -8.69057  -6.52189
 Alpha  occ. eigenvalues --   -6.52183  -6.50959  -6.50953  -6.50854  -6.50847
 Alpha  occ. eigenvalues --   -2.63286  -2.63280  -2.62951  -2.62946  -2.62872
 Alpha  occ. eigenvalues --   -2.62866  -2.61892  -2.61891  -2.61886  -2.61885
 Alpha  occ. eigenvalues --   -1.06830  -1.06165  -1.01941  -1.00860  -0.85490
 Alpha  occ. eigenvalues --   -0.82062  -0.77824  -0.74149  -0.71618  -0.67526
 Alpha  occ. eigenvalues --   -0.67447  -0.58870  -0.58366  -0.53076  -0.51800
 Alpha  occ. eigenvalues --   -0.48869  -0.47576  -0.46190  -0.45565  -0.44241
 Alpha  occ. eigenvalues --   -0.43344  -0.42661  -0.41834  -0.39581  -0.38902
 Alpha  occ. eigenvalues --   -0.38730  -0.36767  -0.35811  -0.32943  -0.31721
 Alpha  occ. eigenvalues --   -0.30389  -0.30164  -0.28815  -0.28545  -0.27286
 Alpha  occ. eigenvalues --   -0.25701  -0.24929  -0.23795  -0.17474
 Alpha virt. eigenvalues --   -0.02942  -0.01817  -0.00050   0.00150   0.00769
 Alpha virt. eigenvalues --    0.01765   0.01791   0.02605   0.03274   0.03623
 Alpha virt. eigenvalues --    0.04039   0.04389   0.04920   0.06161   0.06219

  Beta  occ. eigenvalues -- -482.82829-482.82823 -62.48099 -62.48093 -56.30133
  Beta  occ. eigenvalues --  -56.30128 -56.29759 -56.29754 -56.29728 -56.29722
  Beta  occ. eigenvalues --  -19.14724 -19.14723 -19.08565 -19.08458 -10.24735
  Beta  occ. eigenvalues --  -10.23783 -10.23779 -10.23657 -10.22295 -10.22293
  Beta  occ. eigenvalues --  -10.21413 -10.21409  -8.69062  -8.69056  -6.52192
  Beta  occ. eigenvalues --   -6.52186  -6.50951  -6.50946  -6.50853  -6.50847
  Beta  occ. eigenvalues --   -2.63287  -2.63281  -2.62948  -2.62942  -2.62873
  Beta  occ. eigenvalues --   -2.62867  -2.61888  -2.61887  -2.61882  -2.61881
  Beta  occ. eigenvalues --   -1.06642  -1.06089  -1.00860  -0.99654  -0.85019
  Beta  occ. eigenvalues --   -0.81951  -0.77579  -0.74019  -0.71290  -0.67339
  Beta  occ. eigenvalues --   -0.66743  -0.58538  -0.57995  -0.52876  -0.51628
  Beta  occ. eigenvalues --   -0.48761  -0.47027  -0.46026  -0.45210  -0.44099
  Beta  occ. eigenvalues --   -0.43173  -0.41959  -0.40500  -0.39199  -0.38624
  Beta  occ. eigenvalues --   -0.36646  -0.36619  -0.34993  -0.32717  -0.30479
  Beta  occ. eigenvalues --   -0.30290  -0.29815  -0.28789  -0.28422  -0.25273
  Beta  occ. eigenvalues --   -0.25011  -0.24399  -0.23247
  Beta virt. eigenvalues --   -0.10400  -0.02812  -0.00667   0.00004   0.00421
  Beta virt. eigenvalues --    0.01072   0.01827   0.02618   0.03356   0.03630
  Beta virt. eigenvalues --    0.03724   0.04229   0.04420   0.05078   0.06193

 Mulliken charges and spin densities:
               1          2
     1  C   -0.287744   0.004080
     2  O   -0.177349  -0.000442
     3  C   -0.391043   0.095016
     4  C    0.907053   0.068387
     5  Br  -0.081380   0.004537
     6  C   -0.605254   0.075112
     7  O   -0.391645   0.228241
     8  C    0.907417   0.067685
     9  C   -0.387675   0.095474
    10  O   -0.177733  -0.000406
    11  C   -0.286909   0.004166
    12  C   -0.453312   0.086098
    13  O   -0.451372   0.268237
    14  Br  -0.081712   0.004520
    15  H    0.136882  -0.000444
    16  H    0.166251   0.000842
    17  H    0.176220  -0.000744
    18  H    0.166211   0.000833
    19  H    0.176413  -0.000769
    20  H    0.136680  -0.000421
 Sum of Mulliken charges =  -1.00000   1.00000

 Dipole moment (field-independent basis, Debye):
    X=              0.9267    Y=             -8.0678    Z=             -0.0913  Tot=              8.1213
 Quadrupole moment (field-independent basis, Debye-Ang):
   XX=           -111.9987   YY=           -152.7647   ZZ=           -112.9738
   XY=              5.3945   XZ=            -10.5334   YZ=             -3.0838

  Exact polarizability: 262.578  -7.656 311.546  29.538  13.893 141.963
 Approx polarizability: 262.311 -13.601 362.247  29.568  15.976 160.820

                      1                      2                      3
                      A                      A                      A
 Frequencies --     51.1230                60.1816                65.2931
 Red. masses --      4.4457                 2.9188                 7.8186
 Frc consts  --      0.0068                 0.0062                 0.0196
 IR Inten    --      4.0933                 1.1815                10.7438

                      4                      5                      6
                      A                      A                      A
 Frequencies --     74.0282                96.8286               129.2508
 Red. masses --      2.6986                 6.6274                 2.6967
 Frc consts  --      0.0087                 0.0366                 0.0265
 IR Inten    --     13.0834                 2.9164                 1.4114

                      7                      8                      9
                      A                      A                      A
 Frequencies --    133.4523               143.5790               167.1561
 Red. masses --      1.7792                 1.2021                 9.5365
 Frc consts  --      0.0187                 0.0146                 0.1570
 IR Inten    --      3.9058                 2.6330                 7.5638

                     10                     11                     12
                      A                      A                      A
 Frequencies --    199.0758               214.4406               239.8888
 Red. masses --      4.1022                 6.7521                17.2287
 Frc consts  --      0.0958                 0.1829                 0.5841
 IR Inten    --      5.1987                 5.4768                 3.4301

                     13                     14                     15
                      A                      A                      A
 Frequencies --    242.4621               306.6579               343.6438
 Red. masses --     12.9301                 6.6491                10.1233
 Frc consts  --      0.4479                 0.3684                 0.7043
 IR Inten    --      0.5333                16.9168                10.0991

                     16                     17                     18
                      A                      A                      A
 Frequencies --    358.1085               381.5135               394.0119
 Red. masses --     11.5877                11.5728                 7.4393
 Frc consts  --      0.8755                 0.9924                 0.6805
 IR Inten    --      1.0100                 7.4695                 0.3567

                     19                     20                     21
                      A                      A                      A
 Frequencies --    469.3848               474.8009               557.0959
 Red. masses --      7.3685                11.9904                 9.7388
 Frc consts  --      0.9565                 1.5926                 1.7808
 IR Inten    --      4.0692                 0.4514                 5.7564

                     22                     23                     24
                      A                      A                      A
 Frequencies --    663.0691               672.9160               715.0473
 Red. masses --     11.8506                 7.4264                11.9944
 Frc consts  --      3.0698                 1.9813                 3.6133
 IR Inten    --    167.2830                 5.9812                13.7944

                     25                     26                     27
                      A                      A                      A
 Frequencies --    754.8430               776.8654               896.4606
 Red. masses --     12.0678                 9.8745                12.4410
 Frc consts  --      4.0513                 3.5112                 5.8907
 IR Inten    --     10.9903                42.9026               242.4432

                     28                     29                     30
                      A                      A                      A
 Frequencies --    930.4950               972.6050              1075.3934
 Red. masses --      6.6495                 8.8733                 9.1873
 Frc consts  --      3.3921                 4.9455                 6.2600
 IR Inten    --     64.1122                82.2342               226.3961

                     31                     32                     33
                      A                      A                      A
 Frequencies --   1106.4465              1156.7958              1157.4582
 Red. masses --     11.9347                 1.2626                 1.2696
 Frc consts  --      8.6084                 0.9955                 1.0021
 IR Inten    --      7.9662                39.0937                 6.0731

                     34                     35                     36
                      A                      A                      A
 Frequencies --   1172.6043              1190.5182              1217.3985
 Red. masses --      4.6482                 1.5542                 1.7544
 Frc consts  --      3.7656                 1.2979                 1.5319
 IR Inten    --    163.4460                98.1425               121.0882

                     37                     38                     39
                      A                      A                      A
 Frequencies --   1259.8661              1345.5020              1448.2037
 Red. masses --      4.9136                 9.0353                 1.4277
 Frc consts  --      4.5952                 9.6375                 1.7642
 IR Inten    --    521.5820                 2.8603                13.2723

                     40                     41                     42
                      A                      A                      A
 Frequencies --   1455.5441              1475.5273              1476.2400
 Red. masses --      1.2227                 1.0769                 1.0907
 Frc consts  --      1.5262                 1.3814                 1.4005
 IR Inten    --    108.8054                 8.1076                56.5577

                     43                     44                     45
                      A                      A                      A
 Frequencies --   1496.0160              1497.7760              1507.0411
 Red. masses --      1.0476                 1.0485                 3.8361
 Frc consts  --      1.3814                 1.3858                 5.1333
 IR Inten    --     15.6680                13.0942                46.9385

                     46                     47                     48
                      A                      A                      A
 Frequencies --   1510.8507              1533.5376              1603.9983
 Red. masses --      7.7843                10.9574                10.3609
 Frc consts  --     10.4692                15.1826                15.7057
 IR Inten    --   1182.6823                27.9485                51.2494

                     49                     50                     51
                      A                      A                      A
 Frequencies --   3024.8337              3025.2927              3106.4636
 Red. masses --      1.0353                 1.0355                 1.0986
 Frc consts  --      5.5811                 5.5838                 6.2461
 IR Inten    --    154.8807                28.7659                19.6335

                     52                     53                     54
                      A                      A                      A
 Frequencies --   3106.7144              3139.6673              3139.9443
 Red. masses --      1.0983                 1.1067                 1.1066
 Frc consts  --      6.2459                 6.4273                 6.4281
 IR Inten    --     63.0338                34.5811                16.7774

 - Thermochemistry -
 -------------------
 Temperature   298.150 Kelvin.  Pressure   1.00000 Atm.
 Atom     1 has atomic number  6 and mass  12.00000

 Molecular mass:   323.86328 amu.
 Principal axes and moments of inertia in atomic units:
                           1         2         3
     Eigenvalues --  3252.863856592.310889568.11532
           X            0.96431  -0.11219  -0.23982
           Y            0.09409   0.99187  -0.08566
           Z            0.24748   0.06003   0.96703
 This molecule is an asymmetric top.
 Rotational symmetry number  1.
 Warning -- assumption of classical behavior for rotation
           may cause significant error
 Rotational temperatures (Kelvin)      0.02663     0.01314     0.00905
 Rotational constants (GHZ):           0.55482     0.27376     0.18862
 Zero-point vibrational energy     333243.2 (Joules/Mol)
                                   79.64704 (Kcal/Mol)
 Warning -- explicit consideration of  21 degrees of freedom as
           vibrations may cause significant error
 Vibrational temperatures:     73.55    86.59    93.94   106.51   139.31
          (Kelvin)            185.96   192.01   206.58   240.50   286.43
                              308.53   345.15   348.85   441.21   494.43
                              515.24   548.91   566.90   675.34   683.13
                              801.54   954.01   968.18  1028.79  1086.05
                             1117.74  1289.81  1338.77  1399.36  1547.25
                             1591.93  1664.37  1665.32  1687.12  1712.89
                             1751.56  1812.67  1935.88  2083.64  2094.20
                             2122.95  2123.98  2152.43  2154.97  2168.30
                             2173.78  2206.42  2307.80  4352.06  4352.72
                             4469.51  4469.87  4517.28  4517.68

 Zero-point correction=                           0.126926 (Hartree/Particle)
 Thermal correction to Energy=                    0.141802
 Thermal correction to Enthalpy=                  0.142746
 Thermal correction to Gibbs Free Energy=         0.081815
 Sum of electronic and zero-point Energies=          -5757.789369
 Sum of electronic and thermal Energies=             -5757.774493
 Sum of electronic and thermal Enthalpies=           -5757.773548
 Sum of electronic and thermal Free Energies=        -5757.834480

                     E (Thermal)             CV                S
                      KCal/Mol        Cal/Mol-Kelvin    Cal/Mol-Kelvin
 Total                   88.982             50.301            128.241
 Electronic               0.000              0.000              1.377
 Translational            0.889              2.981             43.221
 Rotational               0.889              2.981             33.683
 Vibrational             87.205             44.339             49.960
 Vibration     1          0.595              1.977              4.773
 Vibration     2          0.597              1.973              4.451
 Vibration     3          0.597              1.971              4.290
 Vibration     4          0.599              1.966              4.043
 Vibration     5          0.603              1.951              3.517
 Vibration     6          0.612              1.924              2.957
 Vibration     7          0.613              1.920              2.896
 Vibration     8          0.616              1.910              2.756
 Vibration     9          0.624              1.883              2.467
 Vibration    10          0.637              1.841              2.142
 Vibration    11          0.644              1.819              2.006
 Vibration    12          0.657              1.779              1.804
 Vibration    13          0.659              1.775              1.785
 Vibration    14          0.697              1.661              1.380
 Vibration    15          0.722              1.588              1.195
 Vibration    16          0.733              1.559              1.130
 Vibration    17          0.751              1.510              1.033
 Vibration    18          0.761              1.483              0.985
 Vibration    19          0.826              1.318              0.739
 Vibration    20          0.832              1.306              0.724
 Vibration    21          0.913              1.124              0.530

 Optimization completed.
    -- Stationary point found.
 Normal termination of Gaussian 16 at Sat Feb 10 11:07:49 2024.
