 Gaussian 16, Revision A.03,
 Gaussian 16:  ES64L-G16RevA.03 25-Dec-2016

 ----------------------------------------------------------------
 #P UB3LYP/6-311++G(d,p) SCRF=(PCM,Solvent=n,n-DiMethylFormamide)
 ----------------------------------------------------------------

 ------------------
 Radical PCM in DMF
 ------------------
 Symbolic Z-matrix:
 Charge = -1 Multiplicity = 2

                         Standard orientation:
 ---------------------------------------------------------------------
 Center     Atomic      Atomic             Coordinates (Angstroms)
 Number     Number       Type             X           Y           Z
 ---------------------------------------------------------------------
      1          6           0        2.943110   -1.468263    0.000115
      2          6           0        1.646910   -0.695280    0.000010
      3          6           0        1.646875    0.695406   -0.000009
      4          6           0        2.943075    1.468340   -0.000079
      5          6           0        0.423186    1.470351   -0.000021
      6          8           0        0.417345    2.733775   -0.000062
      7          6           0       -0.835224    0.709165    0.000021
      8          6           0       -2.067055    1.393797    0.000130
      9          6           0       -3.266746    0.704504    0.000117
     10          6           0       -3.266696   -0.704641   -0.000074
     11          6           0       -2.066979   -1.393886   -0.000134
     12          6           0       -0.835165   -0.709207   -0.000048
     13          6           0        0.423290   -1.470311    0.000004
     14          8           0        0.417603   -2.733742    0.000004
     15          1           0        3.556678   -1.232904   -0.878910
     16          1           0        3.555093   -1.235127    0.880856
     17          1           0        2.725517   -2.536548   -0.001314
     18          1           0        2.725634    2.536653    0.000913
     19          1           0        3.555325    1.234818   -0.880541
     20          1           0        3.556402    1.233253    0.879199
     21          1           0       -2.035234    2.477424    0.000264
     22          1           0       -4.207700    1.247527    0.000245
     23          1           0       -4.207631   -1.247702   -0.000146
     24          1           0       -2.035150   -2.477511   -0.000292
 ---------------------------------------------------------------------

 SCF Done:  E(UB3LYP) =  -614.062324438     A.U. after   17 cycles

 The electronic state is 2-A.
 Alpha  occ. eigenvalues --  -19.07053 -19.07052 -10.21518 -10.21516 -10.17070
 Alpha  occ. eigenvalues --  -10.17022 -10.16856 -10.16811 -10.16691 -10.16690
 Alpha  occ. eigenvalues --  -10.16461 -10.16406 -10.15092 -10.15091  -0.99553
 Alpha  occ. eigenvalues --   -0.99298  -0.85441  -0.81289  -0.75460  -0.74668
 Alpha  occ. eigenvalues --   -0.72094  -0.67076  -0.65004  -0.59694  -0.58351
 Alpha  occ. eigenvalues --   -0.54871  -0.50998  -0.48612  -0.46170  -0.44604
 Alpha  occ. eigenvalues --   -0.43300  -0.42225  -0.41432  -0.40888  -0.39413
 Alpha  occ. eigenvalues --   -0.39357  -0.38225  -0.38131  -0.37470  -0.36440
 Alpha  occ. eigenvalues --   -0.35497  -0.34502  -0.33554  -0.33194  -0.26457
 Alpha  occ. eigenvalues --   -0.25388  -0.24247  -0.23748  -0.23064  -0.14710
 Alpha virt. eigenvalues --   -0.02970  -0.01131  -0.00463   0.00476   0.01406
 Alpha virt. eigenvalues --    0.02607   0.02774   0.03198   0.04190   0.05103
 Alpha virt. eigenvalues --    0.05441   0.05467   0.05929   0.06003   0.06745

  Beta  occ. eigenvalues --  -19.06439 -19.06438 -10.21344 -10.21343 -10.17035
  Beta  occ. eigenvalues --  -10.16987 -10.16802 -10.16759 -10.16685 -10.16682
  Beta  occ. eigenvalues --  -10.16330 -10.16274 -10.15103 -10.15102  -0.98481
  Beta  occ. eigenvalues --   -0.98198  -0.85235  -0.80867  -0.75259  -0.74489
  Beta  occ. eigenvalues --   -0.71770  -0.66886  -0.64332  -0.59606  -0.57987
  Beta  occ. eigenvalues --   -0.54594  -0.50783  -0.48370  -0.45904  -0.44495
  Beta  occ. eigenvalues --   -0.42597  -0.42180  -0.41166  -0.40296  -0.38844
  Beta  occ. eigenvalues --   -0.38623  -0.38120  -0.38002  -0.37317  -0.35405
  Beta  occ. eigenvalues --   -0.34182  -0.33384  -0.33325  -0.33014  -0.24736
  Beta  occ. eigenvalues --   -0.24281  -0.23679  -0.22697  -0.22510
  Beta virt. eigenvalues --   -0.08113  -0.02271  -0.00440  -0.00025   0.00478
  Beta virt. eigenvalues --    0.01419   0.02608   0.02789   0.03264   0.04216
  Beta virt. eigenvalues --    0.05117   0.05474   0.05626   0.06009   0.06749

 Mulliken charges and spin densities:
               1          2
     1  C   -0.461046   0.000333
     2  C    0.887566   0.115742
     3  C    0.888100   0.115792
     4  C   -0.461359   0.000328
     5  C   -1.236085   0.089691
     6  O   -0.485307   0.224488
     7  C    0.568498   0.016076
     8  C   -0.119509   0.024667
     9  C   -0.479811   0.025380
    10  C   -0.479898   0.025373
    11  C   -0.119523   0.024682
    12  C    0.567258   0.016010
    13  C   -1.235773   0.089736
    14  O   -0.485314   0.224493
    15  H    0.149589   0.004577
    16  H    0.149798   0.004599
    17  H    0.182279  -0.001308
    18  H    0.182259  -0.001307
    19  H    0.149774   0.004597
    20  H    0.149628   0.004581
    21  H    0.164810  -0.002020
    22  H    0.179629  -0.002244
    23  H    0.179619  -0.002243
    24  H    0.164818  -0.002020
 Sum of Mulliken charges =  -1.00000   1.00000

 Dipole moment (field-independent basis, Debye):
    X=             -0.9494    Y=              0.0000    Z=              0.0002  Tot=              0.9494
 Quadrupole moment (field-independent basis, Debye-Ang):
   XX=            -82.2835   YY=           -123.3786   ZZ=            -88.1258
   XY=              0.0017   XZ=             -0.0000   YZ=              0.0012

 Normal termination of Gaussian 16 at Sun Jan 21 08:19:13 2024.
