 Q-Chem 5.4, Q-Chem, Inc., Pleasanton, CA (2021)
 Q-Chem 5.4.0 for Intel X86 EM64T Linux

User input:
--------------------------------------------------------------
$molecule
-2 1
Cl                 3.1136260000      0.4024530000     -0.2431850000
C                  1.3505850000      0.1604930000      0.0939580000
C                  0.8003310000     -1.1300790000     -0.0323270000
Cl                 1.8693370000     -2.5590770000      0.2385070000
C                 -0.5900800000     -1.4123070000     -0.1841700000
O                 -1.0775780000     -2.5664710000     -0.2469190000
C                 -1.5241230000     -0.1982200000     -0.1206120000
O                 -2.7665560000     -0.3710970000     -0.1320750000
C                 -0.8858450000      1.0616790000      0.0821970000
C                  0.5076000000      1.2562480000      0.1511900000
Cl                 1.1783250000      2.9179980000     -0.1120290000
Cl                -1.9756230000      2.4387790000      0.4994670000
$end

$rem
BASIS  =  6-311++G(d,p)
GUI  =  2
JOB_TYPE  =  SP
METHOD  =  B3LYP
SCF_CONVERGENCE  = 8
SOLVENT_METHOD = sm12
$end

$smx
solvent dimethylformamide
charges CM5
$end

--------------------------------------------------------------

             Standard Nuclear Orientation (Angstroms)
    I     Atom           X                Y                Z
 ----------------------------------------------------------------
    1      Cl      3.1136260000     0.4024530000    -0.2431850000
    2      C       1.3505850000     0.1604930000     0.0939580000
    3      C       0.8003310000    -1.1300790000    -0.0323270000
    4      Cl      1.8693370000    -2.5590770000     0.2385070000
    5      C      -0.5900800000    -1.4123070000    -0.1841700000
    6      O      -1.0775780000    -2.5664710000    -0.2469190000
    7      C      -1.5241230000    -0.1982200000    -0.1206120000
    8      O      -2.7665560000    -0.3710970000    -0.1320750000
    9      C      -0.8858450000     1.0616790000     0.0821970000
   10      C       0.5076000000     1.2562480000     0.1511900000
   11      Cl      1.1783250000     2.9179980000    -0.1120290000
   12      Cl     -1.9756230000     2.4387790000     0.4994670000
 ----------------------------------------------------------------

   17   -2220.0592031878      1.99e-09  Convergence criterion met
 Total energy in the final basis set =    -2220.3173465809

                    Orbital Energies (a.u.)
 --------------------------------------------------------------

 Alpha MOs
 -- Occupied --
********-101.5325-101.5199-101.5198 -19.0287 -19.0287 -10.2058 -10.2052
-10.1916 -10.1914 -10.1824 -10.1824  -9.4456  -9.4456  -9.4330  -9.4329
 -7.2101  -7.2100  -7.2008  -7.2008  -7.2004  -7.2002  -7.1973  -7.1972
 -7.1884  -7.1883  -7.1877  -7.1876  -0.9675  -0.9400  -0.8750  -0.8354
 -0.8144  -0.8020  -0.7593  -0.6646  -0.6542  -0.5412  -0.5409  -0.4732
 -0.4477  -0.4110  -0.4004  -0.3902  -0.3777  -0.3607  -0.3565  -0.3456
 -0.3400  -0.3112  -0.3068  -0.2983  -0.2937  -0.2802  -0.2796  -0.2677
 -0.2553  -0.2148  -0.1867  -0.1836  -0.1360

          Ground-State Mulliken Net Atomic Charges

     Atom                 Charge (a.u.)
  ----------------------------------------
      1 Cl                    1.005367
      2 C                     0.473850
      3 C                     0.046676
      4 Cl                    0.510888
      5 C                    -2.639409
      6 O                    -0.403511
      7 C                    -2.637165
      8 O                    -0.403201
      9 C                     0.053545
     10 C                     0.479197
     11 Cl                    1.002880
     12 Cl                    0.510883
  ----------------------------------------
  Sum of atomic charges =    -2.000000

                    Cartesian Multipole Moments
 -----------------------------------------------------------------
    Charge (ESU x 10^10)
                -9.6064
    Dipole Moment (Debye)
         X       5.1205      Y       3.9257      Z       0.3174
       Tot       6.4600
    Quadrupole Moments (Debye-Ang)
        XX    -150.2714     XY      -3.8113     YY    -148.0511
        XZ      -0.6906     YZ      -2.6422     ZZ    -104.9411

 Total job time:  106.99s(wall), 761.78s(cpu)
        *  Thank you very much for using Q-Chem.  Have a nice day.  *
