 Gaussian 16, Revision A.03,
 Gaussian 16:  ES64L-G16RevA.03 25-Dec-2016

 ----------------------------------------------------------------
 #P UB3LYP/6-311++G(d,p) SCRF=(PCM,Solvent=n,n-DiMethylFormamide)
 ----------------------------------------------------------------

 ------------------
 Radical PCM in DMF
 ------------------
 Symbolic Z-matrix:
 Charge = -1 Multiplicity = 2

                         Standard orientation:
 ---------------------------------------------------------------------
 Center     Atomic      Atomic             Coordinates (Angstroms)
 Number     Number       Type             X           Y           Z
 ---------------------------------------------------------------------
      1          6           0       -0.422033   -1.285296   -0.535458
      2          6           0       -1.334792   -0.119034   -0.516643
      3          6           0       -0.889294    1.085819   -0.016149
      4          6           0        0.421979    1.285486    0.535312
      5          6           0        1.334750    0.119200    0.516532
      6          6           0        0.889253   -1.085639    0.016010
      7          8           0        0.841977    2.376266    1.003420
      8          8           0       -0.842013   -2.376068   -1.003601
      9         35           0        1.969221   -2.689431    0.113015
     10         35           0       -1.969284    2.689588   -0.113228
     11          7           0        2.580369    0.393415    1.085339
     12          7           0       -2.580469   -0.393178   -1.085422
     13          6           0       -3.839338   -0.170665   -0.360380
     14          6           0       -5.010745   -0.491325   -1.298627
     15          6           0       -6.368347   -0.293845   -0.607952
     16          6           0       -6.468964   -1.099642    0.695540
     17          6           0       -5.297216   -0.783185    1.635916
     18          6           0       -3.944997   -0.994250    0.939235
     19          6           0        3.839397    0.170568    0.360710
     20          6           0        5.010554    0.492137    1.298958
     21          6           0        3.945176    0.993212   -0.939496
     22          6           0        5.297576    0.781872   -1.635742
     23          6           0        6.368332    0.294378    0.608706
     24          6           0        6.469074    1.099230   -0.695360
     25          1           0        2.521400    1.360962    1.408748
     26          1           0       -2.521493   -1.360672   -1.408984
     27          1           0       -3.897071    0.888007   -0.099202
     28          1           0       -4.921241   -1.533735   -1.636115
     29          1           0       -4.934894    0.136535   -2.191519
     30          1           0       -7.180591   -0.571440   -1.289819
     31          1           0       -6.503860    0.772016   -0.381372
     32          1           0       -6.459077   -2.171892    0.457552
     33          1           0       -7.425073   -0.898163    1.193167
     34          1           0       -5.357465   -1.401434    2.538883
     35          1           0       -5.374381    0.260456    1.968738
     36          1           0       -3.813845   -2.056774    0.695935
     37          1           0       -3.122519   -0.722300    1.607111
     38          1           0        3.897382   -0.888283    0.100315
     39          1           0        4.934641   -0.135070    2.192306
     40          1           0        4.920803    1.534783    1.635651
     41          1           0        3.813786    2.055890   -0.696999
     42          1           0        3.122885    0.720614   -1.607337
     43          1           0        5.357900    1.399467   -2.539151
     44          1           0        5.374989   -0.261999   -1.967782
     45          1           0        6.504074   -0.771627    0.382941
     46          1           0        7.180385    0.572616    1.290535
     47          1           0        7.425320    0.897550   -1.192640
     48          1           0        6.458951    2.171652   -0.458165
 ---------------------------------------------------------------------

 SCF Done:  E(UB3LYP) =  -6109.03086603     A.U. after   18 cycles

 The electronic state is 2-A.
 Alpha  occ. eigenvalues -- -482.82217-482.82217 -62.47495 -62.47495 -56.29518
 Alpha  occ. eigenvalues --  -56.29518 -56.29159 -56.29158 -56.29131 -56.29131
 Alpha  occ. eigenvalues --  -19.08464 -19.08464 -14.31458 -14.31457 -10.23540
 Alpha  occ. eigenvalues --  -10.23539 -10.21684 -10.21683 -10.21016 -10.21015
 Alpha  occ. eigenvalues --  -10.19664 -10.19664 -10.16165 -10.16165 -10.16116
 Alpha  occ. eigenvalues --  -10.16116 -10.16111 -10.16111 -10.15988 -10.15988
 Alpha  occ. eigenvalues --  -10.15881 -10.15881  -8.68464  -8.68464  -6.51556
 Alpha  occ. eigenvalues --   -6.51556  -6.50363  -6.50363  -6.50287  -6.50287
 Alpha  occ. eigenvalues --   -2.62657  -2.62657  -2.62328  -2.62328  -2.62272
 Alpha  occ. eigenvalues --   -2.62271  -2.61324  -2.61324  -2.61322  -2.61322
 Alpha  occ. eigenvalues --   -1.01782  -1.01418  -0.92794  -0.92781  -0.84186
 Alpha  occ. eigenvalues --   -0.82536  -0.81576  -0.80365  -0.76950  -0.74542
 Alpha  occ. eigenvalues --   -0.73973  -0.73867  -0.72618  -0.69071  -0.67255
 Alpha  occ. eigenvalues --   -0.62053  -0.60954  -0.60934  -0.60433  -0.58484
 Alpha  occ. eigenvalues --   -0.56179  -0.56115  -0.55073  -0.51885  -0.49191
 Alpha  occ. eigenvalues --   -0.49176  -0.48332  -0.47288  -0.44832  -0.44642
 Alpha  occ. eigenvalues --   -0.44141  -0.43919  -0.43235  -0.43189  -0.42462
 Alpha  occ. eigenvalues --   -0.41537  -0.41465  -0.40457  -0.40164  -0.39429
 Alpha  occ. eigenvalues --   -0.39350  -0.38254  -0.38033  -0.37708  -0.37698
 Alpha  occ. eigenvalues --   -0.36497  -0.34906  -0.34835  -0.34293  -0.34259
 Alpha  occ. eigenvalues --   -0.33522  -0.32158  -0.32061  -0.31919  -0.31496
 Alpha  occ. eigenvalues --   -0.31422  -0.30558  -0.30522  -0.28712  -0.28178
 Alpha  occ. eigenvalues --   -0.27900  -0.27867  -0.26078  -0.25139  -0.23987
 Alpha  occ. eigenvalues --   -0.20828  -0.15709
 Alpha virt. eigenvalues --   -0.01528  -0.01276  -0.00558  -0.00111   0.00295
 Alpha virt. eigenvalues --    0.00907   0.00972   0.01285   0.01340   0.01652
 Alpha virt. eigenvalues --    0.02294   0.02523   0.03100   0.03174   0.03718

  Beta  occ. eigenvalues -- -482.82217-482.82217 -62.47496 -62.47495 -56.29518
  Beta  occ. eigenvalues --  -56.29518 -56.29159 -56.29159 -56.29131 -56.29131
  Beta  occ. eigenvalues --  -19.07907 -19.07906 -14.31341 -14.31340 -10.23345
  Beta  occ. eigenvalues --  -10.23344 -10.21460 -10.21459 -10.21065 -10.21064
  Beta  occ. eigenvalues --  -10.19647 -10.19646 -10.16165 -10.16165 -10.16117
  Beta  occ. eigenvalues --  -10.16116 -10.16110 -10.16110 -10.15988 -10.15988
  Beta  occ. eigenvalues --  -10.15872 -10.15872  -8.68465  -8.68464  -6.51556
  Beta  occ. eigenvalues --   -6.51556  -6.50364  -6.50363  -6.50288  -6.50288
  Beta  occ. eigenvalues --   -2.62658  -2.62658  -2.62329  -2.62329  -2.62272
  Beta  occ. eigenvalues --   -2.62272  -2.61324  -2.61324  -2.61323  -2.61322
  Beta  occ. eigenvalues --   -1.00853  -1.00453  -0.92494  -0.92443  -0.83901
  Beta  occ. eigenvalues --   -0.82492  -0.81519  -0.80314  -0.76750  -0.74381
  Beta  occ. eigenvalues --   -0.73964  -0.73827  -0.72550  -0.68954  -0.66397
  Beta  occ. eigenvalues --   -0.61939  -0.60938  -0.60906  -0.60344  -0.58147
  Beta  occ. eigenvalues --   -0.56074  -0.55975  -0.54938  -0.51708  -0.49004
  Beta  occ. eigenvalues --   -0.48906  -0.48270  -0.47197  -0.44792  -0.44307
  Beta  occ. eigenvalues --   -0.43989  -0.43854  -0.43063  -0.42776  -0.41959
  Beta  occ. eigenvalues --   -0.41310  -0.40912  -0.40177  -0.40019  -0.39305
  Beta  occ. eigenvalues --   -0.38788  -0.37773  -0.37700  -0.37650  -0.36744
  Beta  occ. eigenvalues --   -0.36161  -0.34805  -0.34769  -0.34238  -0.34238
  Beta  occ. eigenvalues --   -0.33185  -0.32138  -0.32046  -0.31487  -0.31455
  Beta  occ. eigenvalues --   -0.30760  -0.30411  -0.30300  -0.28199  -0.28120
  Beta  occ. eigenvalues --   -0.27418  -0.27303  -0.25572  -0.24640  -0.22608
  Beta  occ. eigenvalues --   -0.20195
  Beta virt. eigenvalues --   -0.09047  -0.01497  -0.01174  -0.00183  -0.00098
  Beta virt. eigenvalues --    0.00875   0.00991   0.01074   0.01342   0.01452
  Beta virt. eigenvalues --    0.01660   0.02553   0.03107   0.03169   0.03734

 Mulliken charges and spin densities:
               1          2
     1  C   -0.542972   0.105190
     2  C   -0.128679   0.178189
     3  C    0.577291  -0.041024
     4  C   -0.543254   0.105207
     5  C   -0.128052   0.178116
     6  C    0.577466  -0.041009
     7  O   -0.409010   0.204635
     8  O   -0.409030   0.204631
     9  Br  -0.089499   0.000903
    10  Br  -0.089494   0.000906
    11  N    0.253846   0.050643
    12  N    0.253998   0.050621
    13  C   -0.464945  -0.003399
    14  C   -0.171500   0.003351
    15  C   -0.363153  -0.000229
    16  C   -0.416622  -0.000160
    17  C   -0.444905   0.001585
    18  C   -0.202119   0.002213
    19  C   -0.464692  -0.003403
    20  C   -0.171537   0.003343
    21  C   -0.202132   0.002221
    22  C   -0.444885   0.001584
    23  C   -0.363342  -0.000228
    24  C   -0.416580  -0.000159
    25  H    0.304226  -0.001089
    26  H    0.304195  -0.001086
    27  H    0.025351  -0.002416
    28  H    0.128833  -0.000663
    29  H    0.178830   0.001809
    30  H    0.179842  -0.000197
    31  H    0.140413   0.000291
    32  H    0.125289   0.000247
    33  H    0.170878  -0.000069
    34  H    0.170934   0.000571
    35  H    0.142564   0.000091
    36  H    0.165388   0.000244
    37  H    0.169321  -0.000682
    38  H    0.025399  -0.002412
    39  H    0.178834   0.001809
    40  H    0.128842  -0.000663
    41  H    0.165403   0.000246
    42  H    0.169330  -0.000684
    43  H    0.170936   0.000571
    44  H    0.142559   0.000090
    45  H    0.140425   0.000290
    46  H    0.179848  -0.000197
    47  H    0.170877  -0.000069
    48  H    0.125288   0.000246
 Sum of Mulliken charges =  -1.00000   1.00000

 Dipole moment (field-independent basis, Debye):
    X=              0.0012    Y=             -0.0007    Z=              0.0011  Tot=              0.0018
 Quadrupole moment (field-independent basis, Debye-Ang):
   XX=           -165.5103   YY=           -210.7120   ZZ=           -183.7659
   XY=              3.4211   XZ=             -6.7952   YZ=             -8.3632

 Normal termination of Gaussian 16 at Sun Jan 21 07:35:21 2024.
