 Q-Chem 5.4, Q-Chem, Inc., Pleasanton, CA (2021)
 Q-Chem 5.4.0 for Intel X86 EM64T Linux

User input:
--------------------------------------------------------------
$molecule
-2 1
Cl                 2.3135120000     -2.0483560000      0.0546180000
C                  0.9415240000     -0.8886630000      0.0233380000
C                  1.1931240000      0.5019370000      0.0003960000
Cl                 2.8854490000      1.1079280000      0.0026180000
C                  0.1716920000      1.5075400000     -0.0254740000
O                  0.3778530000      2.7826350000     -0.0469680000
C                 -1.1329560000      0.9121360000     -0.0251590000
C                 -1.3810040000     -0.4569800000     -0.0025720000
C                 -0.3681100000     -1.4719520000      0.0236930000
O                 -0.6223910000     -2.7383180000      0.0441220000
H                 -1.9692810000      1.6114630000     -0.0443580000
H                 -2.4094130000     -0.8193690000     -0.0042540000
$end
$rem
MAX_SCF_CYCLES=200
BASIS  =  6-311++G(d,p)
GUI  =  2
JOB_TYPE  =  SP
METHOD  =  B3LYP
SOLVENT_METHOD = COSMO
$end
$solvent
dielectric 37.219
opticaldielectric 1.43
$end

--------------------------------------------------------------

             Standard Nuclear Orientation (Angstroms)
    I     Atom           X                Y                Z
 ----------------------------------------------------------------
    1      Cl     -1.6033317551    -1.7346260023    -0.0000533133
    2      C      -0.7069017872    -0.1775034459     0.0000943101
    3      C       0.7064618067    -0.1767244124     0.0000874183
    4      Cl      1.6047741960    -1.7337179185    -0.0000036563
    5      C       1.5138052697     1.0079386233     0.0001607685
    6      O       2.8053985762     1.0328035602    -0.0001122512
    7      C       0.6950897448     2.1853583772    -0.0000363499
    8      C      -0.6964979862     2.1849210708    -0.0000275181
    9      C      -1.5145895620     1.0069828758     0.0001927666
   10      O      -2.8061702183     1.0310319274    -0.0000686600
   11      H       1.2340641701     3.1331837290    -0.0002137529
   12      H      -1.2366174427     3.1321404916    -0.0001988472
 ----------------------------------------------------------------

   11   -1300.8028127940      2.87e-06  Convergence criterion met
 Total energy in the final basis set =    -1300.8028127940
    6   -1301.0987334501      5.68e-06  Convergence criterion met
 Total energy in the final basis set =    -1301.0987334501

                    Orbital Energies (a.u.)
 --------------------------------------------------------------

 Alpha MOs
 -- Occupied --
********-101.5332 -19.0326 -19.0326 -10.2006 -10.2001 -10.1929 -10.1929
-10.1394 -10.1389  -9.4476  -9.4475  -7.2116  -7.2116  -7.2030  -7.2029
 -7.2021  -7.2021  -0.9505  -0.9465  -0.8575  -0.8181  -0.7818  -0.6906
 -0.6636  -0.5657  -0.5449  -0.4599  -0.4452  -0.4232  -0.3924  -0.3916
 -0.3792  -0.3572  -0.3449  -0.3427  -0.3255  -0.3078  -0.3060  -0.2846
 -0.2418  -0.2198  -0.2154  -0.2148  -0.1380

          Ground-State Mulliken Net Atomic Charges

     Atom                 Charge (a.u.)
  ----------------------------------------
      1 Cl                    0.182885
      2 C                     0.492856
      3 C                     0.493364
      4 Cl                    0.182496
      5 C                    -0.959921
      6 O                    -0.705972
      7 C                    -0.181867
      8 C                    -0.181475
      9 C                    -0.958799
     10 O                    -0.705975
     11 H                     0.171210
     12 H                     0.171197
  ----------------------------------------
  Sum of atomic charges =    -2.000000

                    Cartesian Multipole Moments
 -----------------------------------------------------------------
    Charge (ESU x 10^10)
                -9.6064
    Dipole Moment (Debye)
         X      -0.0022      Y      -4.4476      Z      -0.0000
       Tot       4.4476
    Quadrupole Moments (Debye-Ang)
        XX    -144.6645     XY      -0.0092     YY     -91.3714
        XZ      -0.0035     YZ       0.0002     ZZ     -79.3102

 Total job time:  14.06s(wall), 96.84s(cpu)
        *  Thank you very much for using Q-Chem.  Have a nice day.  *
