 Q-Chem 5.4, Q-Chem, Inc., Pleasanton, CA (2021)
 Q-Chem 5.4.0 for Intel X86 EM64T Linux

User input:
--------------------------------------------------------------
$molecule
-2 1
C                  5.7661030000     -5.2179980000      1.1162420000
C                  6.5328580000     -5.2666440000     -0.0358560000
C                  6.2869560000     -4.3363450000     -1.0777040000
C                  4.7376840000     -4.2683890000      1.2921590000
C                  4.4887470000     -3.3219390000      0.2350180000
C                  5.2881720000     -3.3928610000     -0.9334540000
C                  3.9769360000     -4.2711790000      2.5454700000
C                  2.9718240000     -3.2587340000      2.5842160000
C                  2.6770530000     -2.3504400000      1.5498280000
C                  3.4429530000     -2.3328630000      0.3344390000
O                  4.2247900000     -5.0941340000      3.4869110000
O                  3.1891050000     -1.4651700000     -0.5921970000
H                  5.9282130000     -5.9127910000      1.9344260000
H                  7.3180440000     -6.0127370000     -0.1420280000
H                  5.0773280000     -2.6680570000     -1.7134660000
Cl                 2.0749860000     -3.1242600000      4.1338180000
H                  6.8844080000     -4.3656600000     -1.9873910000
N                  1.6841950000     -1.3382410000      1.6292580000
C                  0.2767390000     -1.7597800000      1.6559200000
C                 -0.6547900000     -0.5478390000      1.7308130000
C                 -2.1403080000     -0.9231850000      1.7566940000
H                  1.8451280000     -0.8012780000      0.7714450000
H                  0.1155820000     -2.3987200000      2.5258850000
H                  0.0180020000     -2.3584200000      0.7622100000
H                 -0.4591950000      0.1080530000      0.8720990000
H                 -0.3981110000      0.0317740000      2.6246690000
H                 -2.4261020000     -1.4880110000      0.8623230000
H                 -2.7876380000     -0.0382920000      1.8029630000
H                 -2.3770010000     -1.5468370000      2.6263400000
$end
$rem
MAX_SCF_CYCLES=200
BASIS  =  6-311++G(d,p)
GUI  =  2
JOB_TYPE  =  SP
METHOD  =  B3LYP
SOLVENT_METHOD = PCM
$end
$pcm
theory = CPCM
$end
$solvent
dielectric 37.219
opticaldielectric 1.43
$end

--------------------------------------------------------------

             Standard Nuclear Orientation (Angstroms)
    I     Atom           X                Y                Z
 ----------------------------------------------------------------
    1      C       5.7661030000    -5.2179980000     1.1162420000
    2      C       6.5328580000    -5.2666440000    -0.0358560000
    3      C       6.2869560000    -4.3363450000    -1.0777040000
    4      C       4.7376840000    -4.2683890000     1.2921590000
    5      C       4.4887470000    -3.3219390000     0.2350180000
    6      C       5.2881720000    -3.3928610000    -0.9334540000
    7      C       3.9769360000    -4.2711790000     2.5454700000
    8      C       2.9718240000    -3.2587340000     2.5842160000
    9      C       2.6770530000    -2.3504400000     1.5498280000
   10      C       3.4429530000    -2.3328630000     0.3344390000
   11      O       4.2247900000    -5.0941340000     3.4869110000
   12      O       3.1891050000    -1.4651700000    -0.5921970000
   13      H       5.9282130000    -5.9127910000     1.9344260000
   14      H       7.3180440000    -6.0127370000    -0.1420280000
   15      H       5.0773280000    -2.6680570000    -1.7134660000
   16      Cl      2.0749860000    -3.1242600000     4.1338180000
   17      H       6.8844080000    -4.3656600000    -1.9873910000
   18      N       1.6841950000    -1.3382410000     1.6292580000
   19      C       0.2767390000    -1.7597800000     1.6559200000
   20      C      -0.6547900000    -0.5478390000     1.7308130000
   21      C      -2.1403080000    -0.9231850000     1.7566940000
   22      H       1.8451280000    -0.8012780000     0.7714450000
   23      H       0.1155820000    -2.3987200000     2.5258850000
   24      H       0.0180020000    -2.3584200000     0.7622100000
   25      H      -0.4591950000     0.1080530000     0.8720990000
   26      H      -0.3981110000     0.0317740000     2.6246690000
   27      H      -2.4261020000    -1.4880110000     0.8623230000
   28      H      -2.7876380000    -0.0382920000     1.8029630000
   29      H      -2.3770010000    -1.5468370000     2.6263400000
 ----------------------------------------------------------------

    9   -1168.4878296625      4.40e-06  Convergence criterion met
 Total energy in the final basis set =    -1168.4878296625

                    Orbital Energies (a.u.)
 --------------------------------------------------------------

 Alpha MOs
 -- Occupied --
******** -19.0274 -19.0255 -14.2844 -10.1860 -10.1815 -10.1756 -10.1729
-10.1657 -10.1548 -10.1516 -10.1504 -10.1496 -10.1486 -10.1476 -10.1425
-10.1419  -9.4401  -7.2039  -7.1955  -7.1949  -0.9528  -0.9465  -0.8902
 -0.8318  -0.8254  -0.7696  -0.7518  -0.7259  -0.6966  -0.6597  -0.6330
 -0.5850  -0.5813  -0.5674  -0.5335  -0.4969  -0.4765  -0.4595  -0.4464
 -0.4384  -0.4263  -0.4094  -0.4032  -0.3929  -0.3884  -0.3865  -0.3749
 -0.3737  -0.3578  -0.3502  -0.3438  -0.3367  -0.3287  -0.3250  -0.3193
 -0.3109  -0.3034  -0.2860  -0.2552  -0.2327  -0.2288  -0.2133  -0.2064
 -0.1946  -0.1156

          Ground-State Mulliken Net Atomic Charges

     Atom                 Charge (a.u.)
  ----------------------------------------
      1 C                     0.068665
      2 C                    -0.480679
      3 C                    -0.446238
      4 C                     0.167177
      5 C                     0.128833
      6 C                    -0.019549
      7 C                    -0.668267
      8 C                     0.921442
      9 C                    -0.499405
     10 C                    -0.794827
     11 O                    -0.647826
     12 O                    -0.699935
     13 H                     0.153823
     14 H                     0.171447
     15 H                     0.154579
     16 Cl                    0.240806
     17 H                     0.172767
     18 N                     0.002629
     19 C                    -0.474911
     20 C                    -0.031195
     21 C                    -0.638739
     22 H                     0.268410
     23 H                     0.101205
     24 H                     0.149531
     25 H                     0.133396
     26 H                     0.130264
     27 H                     0.139376
     28 H                     0.150677
     29 H                     0.146542
  ----------------------------------------
  Sum of atomic charges =    -2.000001

                    Cartesian Multipole Moments
 -----------------------------------------------------------------
    Charge (ESU x 10^10)
                -9.6064
    Dipole Moment (Debye)
         X     -35.9483      Y      31.5610      Z     -16.5686
       Tot      50.6251
    Quadrupole Moments (Debye-Ang)
        XX    -258.0104     XY     125.8862     YY    -247.9823
        XZ     -60.3708     YZ      74.6503     ZZ    -184.9614

 Total job time:  51.76s(wall), 351.85s(cpu)
        *  Thank you very much for using Q-Chem.  Have a nice day.  *
