 Gaussian 16, Revision A.03,
 Gaussian 16:  ES64L-G16RevA.03 25-Dec-2016

 ----------------------------------------------------------------
 #P UB3LYP/6-311++G(d,p) SCRF=(PCM,Solvent=n,n-DiMethylFormamide)
 ----------------------------------------------------------------

 -------
 Reduced
 -------
 Symbolic Z-matrix:
 Charge = -2 Multiplicity = 1

                         Standard orientation:
 ---------------------------------------------------------------------
 Center     Atomic      Atomic             Coordinates (Angstroms)
 Number     Number       Type             X           Y           Z
 ---------------------------------------------------------------------
      1          6           0        0.332966    1.583609   -0.019243
      2          6           0       -1.042489    2.004998    0.164889
      3          6           0       -2.113356    1.142276    0.181444
      4          6           0       -1.991891   -0.286944    0.037087
      5          6           0       -0.657073   -0.750103   -0.112896
      6          6           0        0.489551    0.131161   -0.109555
      7          8           0        1.272241    2.447052   -0.024078
      8          8           0       -3.042678   -1.058680    0.009361
      9          6           0        1.844285   -0.414036   -0.065206
     10          6           0        2.113914   -1.613985    0.877604
     11          8           0        2.846266    0.041382   -0.636333
     12          1           0       -1.192348    3.080262    0.268292
     13          1           0       -3.128381    1.529247    0.291538
     14          1           0        1.243804   -1.926640    1.454497
     15          1           0        2.906976   -1.290383    1.562221
     16          1           0        2.502142   -2.473652    0.313832
     17          6           0       -0.535154   -2.217836   -0.458729
     18          1           0       -1.425349   -2.508381   -1.029615
     19          1           0       -0.522604   -2.888137    0.420641
     20          1           0        0.364610   -2.435183   -1.045381
 ---------------------------------------------------------------------

 SCF Done:  E(UB3LYP) =  -573.843532871     A.U. after   18 cycles

 The electronic state is 1-A.
 Alpha  occ. eigenvalues --  -19.07611 -19.02386 -19.01258 -10.22670 -10.18478
 Alpha  occ. eigenvalues --  -10.16484 -10.14754 -10.13658 -10.13283 -10.13073
 Alpha  occ. eigenvalues --  -10.12990 -10.12683  -1.00148  -0.94305  -0.92238
 Alpha  occ. eigenvalues --   -0.78581  -0.73740  -0.70466  -0.67394  -0.62879
 Alpha  occ. eigenvalues --   -0.58105  -0.52428  -0.48813  -0.44913  -0.43628
 Alpha  occ. eigenvalues --   -0.42108  -0.41631  -0.39512  -0.39124  -0.38105
 Alpha  occ. eigenvalues --   -0.36605  -0.35885  -0.35568  -0.34703  -0.33049
 Alpha  occ. eigenvalues --   -0.32016  -0.31126  -0.30693  -0.23415  -0.22709
 Alpha  occ. eigenvalues --   -0.21004  -0.19569  -0.18858  -0.12157
 Alpha virt. eigenvalues --   -0.02251   0.00095   0.01367   0.01844   0.02709
 Alpha virt. eigenvalues --    0.03689   0.04114   0.04371   0.05076   0.05781
 Alpha virt. eigenvalues --    0.06146   0.07046   0.07551   0.08090   0.08569

  Beta  occ. eigenvalues --  -19.07611 -19.02386 -19.01258 -10.22670 -10.18478
  Beta  occ. eigenvalues --  -10.16484 -10.14754 -10.13658 -10.13283 -10.13073
  Beta  occ. eigenvalues --  -10.12990 -10.12683  -1.00148  -0.94305  -0.92238
  Beta  occ. eigenvalues --   -0.78581  -0.73740  -0.70466  -0.67394  -0.62879
  Beta  occ. eigenvalues --   -0.58105  -0.52428  -0.48813  -0.44913  -0.43628
  Beta  occ. eigenvalues --   -0.42108  -0.41631  -0.39512  -0.39124  -0.38105
  Beta  occ. eigenvalues --   -0.36605  -0.35885  -0.35568  -0.34703  -0.33049
  Beta  occ. eigenvalues --   -0.32016  -0.31126  -0.30693  -0.23415  -0.22709
  Beta  occ. eigenvalues --   -0.21004  -0.19569  -0.18858  -0.12157
  Beta virt. eigenvalues --   -0.02251   0.00095   0.01367   0.01844   0.02709
  Beta virt. eigenvalues --    0.03689   0.04114   0.04371   0.05076   0.05781
  Beta virt. eigenvalues --    0.06146   0.07046   0.07551   0.08090   0.08569

 Mulliken charges and spin densities:
               1          2
     1  C   -0.923860  -0.000000
     2  C    0.040658   0.000000
     3  C    0.037982  -0.000000
     4  C   -0.631880  -0.000000
     5  C    0.542639   0.000000
     6  C    0.629301  -0.000000
     7  O   -0.636435   0.000000
     8  O   -0.719887   0.000000
     9  C    0.153377   0.000000
    10  C   -0.614672  -0.000000
    11  O   -0.415555   0.000000
    12  H    0.140456   0.000000
    13  H    0.143803   0.000000
    14  H    0.149673   0.000000
    15  H    0.173591   0.000000
    16  H    0.165379  -0.000000
    17  C   -0.676816   0.000000
    18  H    0.160398   0.000000
    19  H    0.142276   0.000000
    20  H    0.139572   0.000000
 Sum of Mulliken charges =  -2.00000  -0.00000

 Dipole moment (field-independent basis, Debye):
    X=              2.4791    Y=             -5.4900    Z=              1.9045  Tot=              6.3176
 Quadrupole moment (field-independent basis, Debye-Ang):
   XX=           -140.0249   YY=           -105.0589   ZZ=            -80.3464
   XY=            -25.5787   XZ=              6.0667   YZ=              0.5472

 Normal termination of Gaussian 16 at Sun Jan 21 07:47:16 2024.
