 Q-Chem 5.4, Q-Chem, Inc., Pleasanton, CA (2021)
 Q-Chem 5.4.0 for Intel X86 EM64T Linux

User input:
--------------------------------------------------------------
$molecule
-1 2
O                 -2.7379070000      2.5093970000     -0.4540640000
C                 -2.6604000000      1.1802000000     -0.2206510000
C                 -3.8349910000      0.4503250000     -0.0988750000
C                 -3.7833140000     -0.9313060000      0.1435360000
C                 -2.5695940000     -1.5848170000      0.2644710000
C                 -1.3631960000     -0.8717880000      0.1458620000
C                 -0.0904020000     -1.6099090000      0.2819490000
O                 -0.1055760000     -2.8361240000      0.4966770000
C                  1.1496270000     -0.8287620000      0.1513730000
C                  2.4290540000     -1.4327790000      0.2638970000
O                  2.5397930000     -2.7832160000      0.5013000000
C                  3.5830800000     -0.6708850000      0.1362170000
C                  3.5283070000      0.7065770000     -0.1056460000
C                  2.3046390000      1.3423970000     -0.2234610000
O                  2.2912790000      2.6762790000     -0.4575600000
C                  1.0933320000      0.5898070000     -0.0976630000
C                 -0.1687310000      1.2739680000     -0.2240830000
O                 -0.2110580000      2.5597610000     -0.4497380000
C                 -1.3919970000      0.5268380000     -0.0994620000
H                 -1.7897700000      2.8239650000     -0.5042480000
H                 -4.7798500000      0.9735020000     -0.1955280000
H                 -4.7108580000     -1.4886040000      0.2363200000
H                 -2.5093550000     -2.6492850000      0.4513030000
H                  3.4806090000     -2.9851710000      0.5414970000
H                  4.5509010000     -1.1600810000      0.2269690000
H                  4.4336280000      1.2942460000     -0.2040830000
H                  1.3227500000      2.9254630000     -0.5063100000
$end
$rem
MAX_SCF_CYCLES=200
BASIS  =  6-311++G(d,p)
GUI  =  2
JOB_TYPE  =  SP
METHOD  =  B3LYP
SOLVENT_METHOD = PCM
$end
$pcm
theory = CPCM
$end
$solvent
dielectric 37.219
opticaldielectric 1.43
$end

--------------------------------------------------------------

             Standard Nuclear Orientation (Angstroms)
    I     Atom           X                Y                Z
 ----------------------------------------------------------------
    1      O      -2.7379070000     2.5093970000    -0.4540640000
    2      C      -2.6604000000     1.1802000000    -0.2206510000
    3      C      -3.8349910000     0.4503250000    -0.0988750000
    4      C      -3.7833140000    -0.9313060000     0.1435360000
    5      C      -2.5695940000    -1.5848170000     0.2644710000
    6      C      -1.3631960000    -0.8717880000     0.1458620000
    7      C      -0.0904020000    -1.6099090000     0.2819490000
    8      O      -0.1055760000    -2.8361240000     0.4966770000
    9      C       1.1496270000    -0.8287620000     0.1513730000
   10      C       2.4290540000    -1.4327790000     0.2638970000
   11      O       2.5397930000    -2.7832160000     0.5013000000
   12      C       3.5830800000    -0.6708850000     0.1362170000
   13      C       3.5283070000     0.7065770000    -0.1056460000
   14      C       2.3046390000     1.3423970000    -0.2234610000
   15      O       2.2912790000     2.6762790000    -0.4575600000
   16      C       1.0933320000     0.5898070000    -0.0976630000
   17      C      -0.1687310000     1.2739680000    -0.2240830000
   18      O      -0.2110580000     2.5597610000    -0.4497380000
   19      C      -1.3919970000     0.5268380000    -0.0994620000
   20      H      -1.7897700000     2.8239650000    -0.5042480000
   21      H      -4.7798500000     0.9735020000    -0.1955280000
   22      H      -4.7108580000    -1.4886040000     0.2363200000
   23      H      -2.5093550000    -2.6492850000     0.4513030000
   24      H       3.4806090000    -2.9851710000     0.5414970000
   25      H       4.5509010000    -1.1600810000     0.2269690000
   26      H       4.4336280000     1.2942460000    -0.2040830000
   27      H       1.3227500000     2.9254630000    -0.5063100000
 ----------------------------------------------------------------

    8    -914.8645900140      8.84e-06  Convergence criterion met
 Total energy in the final basis set =     -914.8645900140

                    Orbital Energies (a.u.)
 --------------------------------------------------------------

 Alpha MOs
 -- Occupied --
-19.1493 -19.1366 -19.1328 -19.1034 -19.0784 -10.2404 -10.2390 -10.2370
-10.2357 -10.2345 -10.1848 -10.1836 -10.1808 -10.1778 -10.1757 -10.1753
-10.1710 -10.1673 -10.1644  -1.0633  -1.0613  -1.0531  -1.0112  -1.0077
 -0.8641  -0.8480  -0.7922  -0.7504  -0.7482  -0.7369  -0.6771  -0.6485
 -0.6413  -0.5944  -0.5893  -0.5608  -0.5394  -0.5286  -0.5116  -0.4906
 -0.4780  -0.4719  -0.4514  -0.4452  -0.4419  -0.4290  -0.4249  -0.4177
 -0.4141  -0.4046  -0.3966  -0.3875  -0.3853  -0.3735  -0.3720  -0.3641
 -0.3583  -0.3482  -0.3331  -0.3133  -0.2767  -0.2685  -0.2552  -0.2390
 -0.2350  -0.2181  -0.1460

 Beta MOs
 -- Occupied --
-19.1490 -19.1363 -19.1322 -19.0992 -19.0740 -10.2386 -10.2373 -10.2368
-10.2345 -10.2338 -10.1849 -10.1830 -10.1810 -10.1767 -10.1750 -10.1741
-10.1702 -10.1668 -10.1642  -1.0615  -1.0605  -1.0521  -1.0036  -1.0008
 -0.8615  -0.8465  -0.7883  -0.7484  -0.7451  -0.7351  -0.6706  -0.6463
 -0.6393  -0.5931  -0.5875  -0.5594  -0.5373  -0.5274  -0.5104  -0.4884
 -0.4762  -0.4705  -0.4504  -0.4407  -0.4367  -0.4264  -0.4234  -0.4139
 -0.4109  -0.3973  -0.3954  -0.3867  -0.3751  -0.3711  -0.3632  -0.3572
 -0.3570  -0.3470  -0.3261  -0.3065  -0.2655  -0.2608  -0.2507  -0.2350
 -0.2260  -0.2096

          Ground-State Mulliken Net Atomic Charges

     Atom                 Charge (a.u.)    Spin (a.u.)
  --------------------------------------------------------
      1 O                    -0.411224       0.009956
      2 C                     0.001055       0.045682
      3 C                    -0.282171       0.031797
      4 C                    -0.383033       0.057391
      5 C                    -0.201781       0.030580
      6 C                     0.297899       0.069230
      7 C                    -0.288472       0.061442
      8 O                    -0.455682       0.171923
      9 C                     0.159448       0.034469
     10 C                    -0.317622       0.026514
     11 O                    -0.274183       0.007185
     12 C                    -0.183119       0.088878
     13 C                    -0.141509       0.050545
     14 C                    -0.271118       0.061120
     15 O                    -0.426130       0.017035
     16 C                     0.585638      -0.036872
     17 C                    -0.359007       0.186000
     18 O                    -0.587916       0.147925
     19 C                     0.428305      -0.033718
     20 H                     0.406192      -0.002161
     21 H                     0.200786      -0.003437
     22 H                     0.207853      -0.004033
     23 H                     0.163978      -0.001858
     24 H                     0.312690      -0.000642
     25 H                     0.199252      -0.007485
     26 H                     0.211728      -0.004969
     27 H                     0.408142      -0.002498
  --------------------------------------------------------
  Sum of atomic charges =    -1.000000

                    Cartesian Multipole Moments
 -----------------------------------------------------------------
    Charge (ESU x 10^10)
                -4.8032
    Dipole Moment (Debye)
         X       2.9285      Y      -0.9513      Z       0.1840
       Tot       3.0846
    Quadrupole Moments (Debye-Ang)
        XX    -106.6166     XY      -4.5360     YY    -150.5770
        XZ       0.8437     YZ       6.1076     ZZ    -116.6388

 Total job time:  87.55s(wall), 433.44s(cpu)
        *  Thank you very much for using Q-Chem.  Have a nice day.  *
