 Q-Chem 5.4, Q-Chem, Inc., Pleasanton, CA (2021)
 Q-Chem 5.4.0 for Intel X86 EM64T Linux

User input:
--------------------------------------------------------------
$molecule
-1 2
C                 -3.3667910000      3.6844270000      0.0365830000
C                 -4.5752810000      3.0176410000      0.0577410000
C                 -4.5999090000      1.6056520000      0.0817270000
C                 -2.1421270000      2.9808910000      0.0383840000
C                 -2.1667060000      1.5556330000      0.0626140000
C                 -3.4157320000      0.8963450000      0.0839670000
C                 -0.8867690000      3.7356340000      0.0153540000
C                  0.3371190000      2.9336950000      0.0189100000
C                  0.3145350000      1.5110480000      0.0430850000
C                 -0.9386070000      0.7572050000      0.0659940000
C                  1.5859230000      3.5908670000     -0.0023550000
C                  2.7501920000      2.8624830000      0.0004510000
C                  2.7729080000      1.4443810000      0.0242290000
C                  1.5400810000      0.8134090000      0.0449140000
O                 -0.8603650000      4.9903300000     -0.0059080000
O                 -0.9591050000     -0.4988660000      0.0874840000
Br                 4.4333740000      3.8406280000     -0.0301770000
C                  4.0514280000      0.6473870000      0.0270470000
H                 -3.3175340000      4.7671310000      0.0179350000
H                 -5.5063820000      3.5765600000      0.0559650000
H                 -5.5500780000      1.0799900000      0.0983730000
H                 -3.4047620000     -0.1874340000      0.1021170000
H                  1.5865210000      4.6730260000     -0.0206230000
H                  1.4872120000     -0.2699940000      0.0636870000
H                  4.6749440000      0.8863800000      0.8949550000
H                  4.6577470000      0.8527320000     -0.8614900000
H                  3.8272040000     -0.4209310000      0.0495970000
$end
$rem
MAX_SCF_CYCLES=200
BASIS  =  6-311++G(d,p)
GUI  =  2
JOB_TYPE  =  SP
METHOD  =  B3LYP
SOLVENT_METHOD = COSMO
$end
$solvent
dielectric 37.219
opticaldielectric 1.43
$end

--------------------------------------------------------------

             Standard Nuclear Orientation (Angstroms)
    I     Atom           X                Y                Z
 ----------------------------------------------------------------
    1      C       3.7522102397    -1.6857892532     0.0000111882
    2      C       5.0393040982    -1.1869017811    -0.0000105805
    3      C       5.2531629811     0.2092211277    -0.0000766553
    4      C       2.6329494538    -0.8243814799    -0.0000214929
    5      C       2.8485403493     0.5848992410    -0.0000672966
    6      C       4.1747997260     1.0709225231    -0.0001000588
    7      C       1.2876072284    -1.4041619394    -0.0000014313
    8      C       0.1823195406    -0.4453294380     0.0000523738
    9      C       0.3955830939     0.9616309771     0.0000120429
   10      C       1.7386075683     1.5408150691    -0.0000956164
   11      C      -1.1434353939    -0.9292845134     0.0001355638
   12      C      -2.1995090942    -0.0513427352     0.0001925474
   13      C      -2.0317476839     1.3571851493     0.0002037160
   14      C      -0.7253415902     1.8173145400     0.0001141824
   15      O       1.0930938671    -2.6441521921     0.0001463583
   16      O       1.9274551336     2.7829635832     0.0000097896
   17      Br     -3.9988082617    -0.7952041337    -0.0001010512
   18      C      -3.1918419894     2.3184353492     0.0000514022
   19      H       3.5581251393    -2.7522567508     0.0000554048
   20      H       5.8870441755    -1.8656354813     0.0000133909
   21      H       6.2653222315     0.6028610736    -0.0001068677
   22      H       4.3093431407     2.1465268878    -0.0001661975
   23      H      -1.2892260000    -2.0017337092     0.0001512767
   24      H      -0.5275822970     2.8839920346     0.0001535036
   25      H      -3.8327036310     2.1788474229     0.8769583071
   26      H      -3.8294122520     2.1824173593    -0.8798864171
   27      H      -2.8262645191     3.3472376953     0.0027158970
 ----------------------------------------------------------------

   11   -3301.8931378495      4.30e-06  Convergence criterion met
 Total energy in the final basis set =    -3301.8931378495
    4   -3301.9709687543      8.91e-06  Convergence criterion met
 Total energy in the final basis set =    -3301.9709687543

                    Orbital Energies (a.u.)
 --------------------------------------------------------------

 Alpha MOs
 -- Occupied --
******** -62.4832 -56.3036 -56.2999 -56.2997 -19.0833 -19.0824 -10.2307
-10.2306 -10.2295 -10.1961 -10.1823 -10.1798 -10.1780 -10.1763 -10.1758
-10.1752 -10.1741 -10.1737 -10.1715 -10.1714 -10.1656  -8.6918  -6.5228
 -6.5107  -6.5102  -2.6339  -2.6303  -2.6300  -2.6204  -2.6204  -1.0110
 -1.0082  -0.8786  -0.8584  -0.8133  -0.7869  -0.7641  -0.7530  -0.7354
 -0.7001  -0.6633  -0.6329  -0.6090  -0.5952  -0.5607  -0.5266  -0.5236
 -0.4829  -0.4702  -0.4542  -0.4472  -0.4334  -0.4323  -0.4249  -0.4211
 -0.4185  -0.4181  -0.4047  -0.3878  -0.3856  -0.3732  -0.3698  -0.3532
 -0.3491  -0.3480  -0.3376  -0.3123  -0.2946  -0.2686  -0.2604  -0.2584
 -0.2542  -0.2454  -0.2440  -0.1469

 Beta MOs
 -- Occupied --
******** -62.4832 -56.3036 -56.2999 -56.2997 -19.0779 -19.0769 -10.2302
-10.2289 -10.2277 -10.1955 -10.1823 -10.1790 -10.1771 -10.1755 -10.1752
-10.1751 -10.1737 -10.1732 -10.1715 -10.1713 -10.1657  -8.6918  -6.5228
 -6.5107  -6.5102  -2.6339  -2.6302  -2.6300  -2.6204  -2.6204  -1.0015
 -0.9984  -0.8769  -0.8565  -0.8110  -0.7851  -0.7619  -0.7508  -0.7336
 -0.6981  -0.6567  -0.6316  -0.6064  -0.5945  -0.5581  -0.5241  -0.5221
 -0.4812  -0.4678  -0.4526  -0.4465  -0.4316  -0.4274  -0.4244  -0.4173
 -0.4148  -0.4091  -0.4025  -0.3852  -0.3723  -0.3681  -0.3634  -0.3525
 -0.3470  -0.3403  -0.3362  -0.3056  -0.2945  -0.2569  -0.2508  -0.2492
 -0.2489  -0.2401  -0.2390

          Ground-State Mulliken Net Atomic Charges

     Atom                 Charge (a.u.)    Spin (a.u.)
  --------------------------------------------------------
      1 C                     0.138235       0.029380
      2 C                    -0.546138       0.037431
      3 C                    -0.526992       0.035242
      4 C                     0.057406       0.026296
      5 C                     0.263580       0.027454
      6 C                     0.035343       0.029363
      7 C                    -0.702333       0.101446
      8 C                     0.371465       0.043179
      9 C                     0.252487       0.056185
     10 C                    -0.452453       0.107314
     11 C                    -0.031431       0.020016
     12 C                    -0.251498       0.034274
     13 C                     0.385724       0.043900
     14 C                    -0.186721       0.019405
     15 O                    -0.480083       0.197433
     16 O                    -0.482922       0.201507
     17 Br                   -0.298540       0.001189
     18 C                    -0.209666      -0.004159
     19 H                     0.179601      -0.001276
     20 H                     0.204418      -0.003071
     21 H                     0.206138      -0.002938
     22 H                     0.175890      -0.001449
     23 H                     0.212137      -0.001421
     24 H                     0.143713      -0.001584
     25 H                     0.178102       0.002353
     26 H                     0.178588       0.002368
     27 H                     0.185949       0.000160
  --------------------------------------------------------
  Sum of atomic charges =    -1.000000

                    Cartesian Multipole Moments
 -----------------------------------------------------------------
    Charge (ESU x 10^10)
                -4.8032
    Dipole Moment (Debye)
         X      -4.9798      Y       0.9718      Z      -0.0003
       Tot       5.0737
    Quadrupole Moments (Debye-Ang)
        XX    -130.2549     XY     -11.5366     YY    -150.6225
        XZ      -0.0030     YZ       0.0015     ZZ    -123.5399

 Total job time:  117.72s(wall), 782.90s(cpu)
        *  Thank you very much for using Q-Chem.  Have a nice day.  *
