 Gaussian 16, Revision A.03,
 Gaussian 16:  ES64L-G16RevA.03 25-Dec-2016

 ----------------------------------------------------------------
 #P UB3LYP/6-311++G(d,p) SCRF=(PCM,Solvent=n,n-DiMethylFormamide)
 ----------------------------------------------------------------

 ------------------
 Quinone PCM in DMF
 ------------------
 Symbolic Z-matrix:
 Charge =  0 Multiplicity = 1

                         Standard orientation:
 ---------------------------------------------------------------------
 Center     Atomic      Atomic             Coordinates (Angstroms)
 Number     Number       Type             X           Y           Z
 ---------------------------------------------------------------------
      1          6           0       -0.105723    1.273543   -0.112113
      2          6           0        1.326038    1.670416   -0.057855
      3          6           0        2.312996    0.770738    0.031671
      4          6           0        2.012074   -0.679130    0.081258
      5          6           0        0.583469   -1.079499    0.031961
      6          6           0       -0.422165   -0.187610   -0.038754
      7          8           0       -0.969027    2.126197   -0.237459
      8          8           0        2.896838   -1.514377    0.160013
      9          6           0       -1.849408   -0.716649   -0.048679
     10          6           0       -2.957197    0.126381    0.528477
     11          8           0       -2.049496   -1.829695   -0.486761
     12          1           0        1.509435    2.738101   -0.107664
     13          1           0        3.360667    1.048015    0.066124
     14          1           0        0.378154   -2.144157    0.060680
     15          1           0       -3.158750    0.974285   -0.129762
     16          1           0       -2.668401    0.548953    1.494764
     17          1           0       -3.848126   -0.491324    0.633709
 ---------------------------------------------------------------------

 SCF Done:  E(UB3LYP) =  -534.257235957     A.U. after   14 cycles

 The electronic state is 1-A.
 Alpha  occ. eigenvalues --  -19.15390 -19.15321 -19.14006 -10.30135 -10.29778
 Alpha  occ. eigenvalues --  -10.29291 -10.23169 -10.22800 -10.22084 -10.21947
 Alpha  occ. eigenvalues --  -10.17957  -1.08574  -1.08290  -1.07581  -0.87703
 Alpha  occ. eigenvalues --   -0.81331  -0.76171  -0.72079  -0.66176  -0.63093
 Alpha  occ. eigenvalues --   -0.56624  -0.53653  -0.51902  -0.49905  -0.48521
 Alpha  occ. eigenvalues --   -0.47208  -0.46076  -0.45622  -0.45019  -0.44004
 Alpha  occ. eigenvalues --   -0.43070  -0.41966  -0.40540  -0.38426  -0.32341
 Alpha  occ. eigenvalues --   -0.31401  -0.30166  -0.29918  -0.27821
 Alpha virt. eigenvalues --   -0.15021  -0.07498  -0.02270  -0.00481   0.00241
 Alpha virt. eigenvalues --    0.00762   0.01314   0.02955   0.03233   0.03687
 Alpha virt. eigenvalues --    0.04724   0.05622   0.06042   0.07099   0.07170

  Beta  occ. eigenvalues --  -19.15390 -19.15321 -19.14006 -10.30135 -10.29778
  Beta  occ. eigenvalues --  -10.29291 -10.23169 -10.22800 -10.22084 -10.21947
  Beta  occ. eigenvalues --  -10.17957  -1.08574  -1.08290  -1.07581  -0.87703
  Beta  occ. eigenvalues --   -0.81331  -0.76171  -0.72079  -0.66176  -0.63093
  Beta  occ. eigenvalues --   -0.56624  -0.53653  -0.51902  -0.49905  -0.48521
  Beta  occ. eigenvalues --   -0.47208  -0.46076  -0.45622  -0.45019  -0.44004
  Beta  occ. eigenvalues --   -0.43070  -0.41966  -0.40540  -0.38426  -0.32341
  Beta  occ. eigenvalues --   -0.31401  -0.30166  -0.29918  -0.27821
  Beta virt. eigenvalues --   -0.15021  -0.07498  -0.02270  -0.00481   0.00241
  Beta virt. eigenvalues --    0.00762   0.01314   0.02955   0.03233   0.03687
  Beta virt. eigenvalues --    0.04724   0.05622   0.06042   0.07099   0.07170

 Mulliken charges and spin densities:
               1          2
     1  C   -1.477161   0.000000
     2  C    0.306639  -0.000000
     3  C    0.083770   0.000000
     4  C   -0.378433   0.000000
     5  C   -0.296091   0.000000
     6  C    1.643858  -0.000000
     7  O   -0.241001  -0.000000
     8  O   -0.273390  -0.000000
     9  C    0.207302  -0.000000
    10  C   -0.612588  -0.000000
    11  O   -0.289309   0.000000
    12  H    0.250239  -0.000000
    13  H    0.250203  -0.000000
    14  H    0.251587   0.000000
    15  H    0.210926   0.000000
    16  H    0.183225   0.000000
    17  H    0.180226  -0.000000
 Sum of Mulliken charges =  -0.00000   0.00000

 Dipole moment (field-independent basis, Debye):
    X=              0.6287    Y=              3.4219    Z=              1.4900  Tot=              3.7848
 Quadrupole moment (field-independent basis, Debye-Ang):
   XX=            -67.8789   YY=            -73.6886   ZZ=            -62.2836
   XY=              7.0172   XZ=             -4.2544   YZ=             -1.1665

 Normal termination of Gaussian 16 at Sun Jan 21 07:01:29 2024.
