 Gaussian 16, Revision A.03,
 Gaussian 16:  ES64L-G16RevA.03 25-Dec-2016

 ----------------------------------------------------------------------
 #P UB3LYP/6-311++G(d,p) nosym opt freq SCRF=(PCM,Solvent=n,n-DiMethylF
 ormamide)
 ----------------------------------------------------------------------

 -------
 Reduced
 -------
 Symbolic Z-matrix:
 Charge = -2 Multiplicity = 1

 SCF Done:  E(UB3LYP) =  -1530.19003440     A.U. after   17 cycles
 SCF Done:  E(UB3LYP) =  -1530.19121209     A.U. after   13 cycles
 SCF Done:  E(UB3LYP) =  -1530.19182500     A.U. after   12 cycles
 SCF Done:  E(UB3LYP) =  -1530.19197764     A.U. after   13 cycles
 SCF Done:  E(UB3LYP) =  -1530.19202856     A.U. after   12 cycles
 SCF Done:  E(UB3LYP) =  -1530.19203341     A.U. after   11 cycles
 SCF Done:  E(UB3LYP) =  -1530.19203478     A.U. after   11 cycles
 SCF Done:  E(UB3LYP) =  -1530.19203495     A.U. after    9 cycles
 SCF Done:  E(UB3LYP) =  -1530.19203501     A.U. after    9 cycles
 Optimization completed.
    -- Stationary point found.
 Normal termination of Gaussian 16 at Sat Feb 10 10:31:58 2024.

 ----------------------------------------------------------------------
 #P Geom=AllCheck Guess=TCheck SCRF=Check GenChk UB3LYP/6-311++G(d,p) F
 req
 ----------------------------------------------------------------------

 Structure from the checkpoint file:  "022-an.chk"
 -------
 Reduced
 -------
 Charge = -2 Multiplicity = 1

                          Input orientation:
 ---------------------------------------------------------------------
 Center     Atomic      Atomic             Coordinates (Angstroms)
 Number     Number       Type             X           Y           Z
 ---------------------------------------------------------------------
      1          6           0       -3.451953    0.252329    0.441642
      2          8           0       -2.707372    0.502085   -0.754269
      3          6           0       -1.352507    0.221351   -0.642652
      4          6           0       -0.438709    1.280119   -0.574776
      5         17           0       -1.081581    2.943886   -0.587279
      6          6           0        0.979009    1.142682   -0.522172
      7          8           0        1.818513    2.132504   -0.488390
      8          6           0        1.394830   -0.226774   -0.509402
      9          6           0        0.480496   -1.285750   -0.569937
     10         17           0        1.121827   -2.950382   -0.557459
     11          6           0       -0.935856   -1.147460   -0.659960
     12          8           0       -1.772281   -2.136468   -0.747339
     13          8           0        2.753907   -0.507028   -0.505633
     14          6           0        3.404503   -0.245921    0.741689
     15          1           0       -3.117457    0.913810    1.249526
     16          1           0       -4.497831    0.465573    0.213425
     17          1           0       -3.347533   -0.791243    0.748143
     18          1           0        3.282729    0.801775    1.025535
     19          1           0        3.004067   -0.896474    1.528243
     20          1           0        4.463200   -0.468614    0.596972
 ---------------------------------------------------------------------

 SCF Done:  E(UB3LYP) =  -1530.19203501     A.U. after    2 cycles

 Alpha  occ. eigenvalues -- -101.52871-101.52864 -19.11982 -19.11971 -19.02224
 Alpha  occ. eigenvalues --  -19.02211 -10.19825 -10.19747 -10.19078 -10.19037
 Alpha  occ. eigenvalues --  -10.18796 -10.18792 -10.18579 -10.18571  -9.44316
 Alpha  occ. eigenvalues --   -9.44308  -7.20721  -7.20713  -7.19853  -7.19845
 Alpha  occ. eigenvalues --   -7.19782  -7.19773  -1.03187  -1.03053  -0.93564
 Alpha  occ. eigenvalues --   -0.93328  -0.84155  -0.83271  -0.77283  -0.71569
 Alpha  occ. eigenvalues --   -0.68265  -0.65823  -0.63549  -0.55579  -0.54720
 Alpha  occ. eigenvalues --   -0.49175  -0.48133  -0.47000  -0.44675  -0.44048
 Alpha  occ. eigenvalues --   -0.42986  -0.41345  -0.40560  -0.39402  -0.37524
 Alpha  occ. eigenvalues --   -0.36659  -0.35062  -0.34694  -0.33883  -0.33423
 Alpha  occ. eigenvalues --   -0.30581  -0.30386  -0.29370  -0.29185  -0.26772
 Alpha  occ. eigenvalues --   -0.25939  -0.22764  -0.20521  -0.20497  -0.20138
 Alpha  occ. eigenvalues --   -0.12882
 Alpha virt. eigenvalues --   -0.00434   0.01187   0.01322   0.01960   0.02544
 Alpha virt. eigenvalues --    0.03414   0.04030   0.04387   0.04693   0.04726
 Alpha virt. eigenvalues --    0.05968   0.06586   0.06691   0.06840   0.07440

  Beta  occ. eigenvalues -- -101.52871-101.52864 -19.11982 -19.11971 -19.02224
  Beta  occ. eigenvalues --  -19.02211 -10.19825 -10.19747 -10.19078 -10.19037
  Beta  occ. eigenvalues --  -10.18796 -10.18792 -10.18579 -10.18571  -9.44316
  Beta  occ. eigenvalues --   -9.44308  -7.20721  -7.20713  -7.19853  -7.19845
  Beta  occ. eigenvalues --   -7.19782  -7.19773  -1.03187  -1.03053  -0.93564
  Beta  occ. eigenvalues --   -0.93328  -0.84155  -0.83271  -0.77283  -0.71569
  Beta  occ. eigenvalues --   -0.68265  -0.65823  -0.63549  -0.55579  -0.54720
  Beta  occ. eigenvalues --   -0.49175  -0.48133  -0.47000  -0.44675  -0.44048
  Beta  occ. eigenvalues --   -0.42986  -0.41345  -0.40560  -0.39402  -0.37524
  Beta  occ. eigenvalues --   -0.36659  -0.35062  -0.34694  -0.33883  -0.33423
  Beta  occ. eigenvalues --   -0.30581  -0.30386  -0.29370  -0.29185  -0.26772
  Beta  occ. eigenvalues --   -0.25939  -0.22764  -0.20521  -0.20497  -0.20138
  Beta  occ. eigenvalues --   -0.12882
  Beta virt. eigenvalues --   -0.00434   0.01187   0.01322   0.01960   0.02544
  Beta virt. eigenvalues --    0.03414   0.04030   0.04387   0.04693   0.04726
  Beta virt. eigenvalues --    0.05968   0.06586   0.06691   0.06840   0.07440

 Mulliken charges and spin densities:
               1          2
     1  C   -0.287908  -0.000000
     2  O   -0.187680  -0.000000
     3  C   -1.735382   0.000000
     4  C    1.945782  -0.000000
     5  Cl   0.148895   0.000000
     6  C   -0.678377   0.000000
     7  O   -0.668969  -0.000000
     8  C   -1.737742   0.000000
     9  C    1.964932  -0.000000
    10  Cl   0.145659   0.000000
    11  C   -0.640643   0.000000
    12  O   -0.671016  -0.000000
    13  O   -0.189304  -0.000000
    14  C   -0.283444  -0.000000
    15  H    0.117950   0.000000
    16  H    0.149354  -0.000000
    17  H    0.170341  -0.000000
    18  H    0.172202  -0.000000
    19  H    0.117371   0.000000
    20  H    0.147978   0.000000
 Sum of Mulliken charges =  -2.00000  -0.00000

 Dipole moment (field-independent basis, Debye):
    X=             -0.3088    Y=              0.0587    Z=              8.8811  Tot=              8.8866
 Quadrupole moment (field-independent basis, Debye-Ang):
   XX=           -130.2108   YY=           -156.3508   ZZ=           -107.8832
   XY=            -17.7454   XZ=             -1.6901   YZ=             -1.8042

  Exact polarizability: 256.465  -0.946 274.232   6.146   2.084 136.299
 Approx polarizability: 276.903   6.062 296.335   6.777   2.647 148.661

                      1                      2                      3
                      A                      A                      A
 Frequencies --     72.5866                77.5777                87.1534
 Red. masses --      3.9589                 4.2070                 3.6215
 Frc consts  --      0.0123                 0.0149                 0.0162
 IR Inten    --      3.0656                 6.6859                14.8093

                      4                      5                      6
                      A                      A                      A
 Frequencies --     98.9172               117.4093               165.9241
 Red. masses --      4.9348                 6.2370                 5.7085
 Frc consts  --      0.0284                 0.0507                 0.0926
 IR Inten    --     11.9011                 4.3638                14.0666

                      7                      8                      9
                      A                      A                      A
 Frequencies --    169.0011               184.2264               197.3203
 Red. masses --      1.1427                 1.1073                 8.5176
 Frc consts  --      0.0192                 0.0221                 0.1954
 IR Inten    --      2.3672                 0.2623                 3.0427

                     10                     11                     12
                      A                      A                      A
 Frequencies --    228.2860               244.2589               295.4857
 Red. masses --      7.1884                 8.5075                 7.8320
 Frc consts  --      0.2207                 0.2991                 0.4029
 IR Inten    --     16.7744                 2.0330                 0.1459

                     13                     14                     15
                      A                      A                      A
 Frequencies --    316.4996               322.5088               327.8650
 Red. masses --     10.1765                12.2023                11.6071
 Frc consts  --      0.6006                 0.7478                 0.7351
 IR Inten    --      0.0321                 0.2657                 5.0692

                     16                     17                     18
                      A                      A                      A
 Frequencies --    361.5753               366.6740               452.7064
 Red. masses --     10.5743                10.3650                 8.4265
 Frc consts  --      0.8145                 0.8211                 1.0175
 IR Inten    --      2.9500                 1.7940                 1.9277

                     19                     20                     21
                      A                      A                      A
 Frequencies --    465.0975               520.7616               522.0544
 Red. masses --      9.1796                 7.7918                11.4999
 Frc consts  --      1.1699                 1.2450                 1.8466
 IR Inten    --     13.7615                 7.2161                 1.9131

                     22                     23                     24
                      A                      A                      A
 Frequencies --    626.1992               733.6790               745.4167
 Red. masses --      9.0763                10.4081                11.5641
 Frc consts  --      2.0969                 3.3009                 3.7858
 IR Inten    --      2.4179                 7.6212               104.7038

                     25                     26                     27
                      A                      A                      A
 Frequencies --    763.5375               776.4012               861.8973
 Red. masses --     10.6987                 8.4007                10.4757
 Frc consts  --      3.6749                 2.9836                 4.5850
 IR Inten    --      3.2978               331.7471                 1.4823

                     28                     29                     30
                      A                      A                      A
 Frequencies --    935.9757               999.6503              1058.6987
 Red. masses --      8.6586                 7.8042                11.7116
 Frc consts  --      4.4692                 4.5949                 7.7341
 IR Inten    --    234.0336               106.3235               451.9046

                     31                     32                     33
                      A                      A                      A
 Frequencies --   1144.4017              1149.6519              1153.2589
 Red. masses --      8.6061                 5.4465                 1.3317
 Frc consts  --      6.6407                 4.2413                 1.0435
 IR Inten    --    585.0682                50.3054                 9.8160

                     34                     35                     36
                      A                      A                      A
 Frequencies --   1161.6053              1187.7811              1215.6068
 Red. masses --      1.2745                 2.3099                 1.6339
 Frc consts  --      1.0132                 1.9201                 1.4226
 IR Inten    --      4.3905                 3.9441                 1.7294

                     37                     38                     39
                      A                      A                      A
 Frequencies --   1230.3768              1388.0339              1389.9373
 Red. masses --      2.6858                11.5411                 5.3991
 Frc consts  --      2.3955                13.1008                 6.1455
 IR Inten    --     73.3395                 8.1167               560.5622

                     40                     41                     42
                      A                      A                      A
 Frequencies --   1416.4739              1429.6083              1456.9216
 Red. masses --      8.1256                 2.2225                 1.4436
 Frc consts  --      9.6056                 2.6762                 1.8053
 IR Inten    --   1757.8526                 0.6682                 3.9640

                     43                     44                     45
                      A                      A                      A
 Frequencies --   1464.1098              1475.9867              1476.3782
 Red. masses --      1.4773                 1.1081                 1.1655
 Frc consts  --      1.8658                 1.4223                 1.4967
 IR Inten    --      0.1393                14.9517                 0.0989

                     46                     47                     48
                      A                      A                      A
 Frequencies --   1498.2868              1499.7330              1588.5945
 Red. masses --      1.0503                 1.0516                10.8359
 Frc consts  --      1.3892                 1.3936                16.1117
 IR Inten    --     17.0204                15.5982                 2.2630

                     49                     50                     51
                      A                      A                      A
 Frequencies --   2997.8519              2998.8455              3071.5110
 Red. masses --      1.0373                 1.0367                 1.0963
 Frc consts  --      5.4926                 5.4931                 6.0936
 IR Inten    --    102.8257               143.6565                64.2553

                     52                     53                     54
                      A                      A                      A
 Frequencies --   3073.3903              3105.6187              3106.8281
 Red. masses --      1.0947                 1.1049                 1.1055
 Frc consts  --      6.0920                 6.2787                 6.2871
 IR Inten    --     60.8635                57.7154                44.0003

 - Thermochemistry -
 -------------------
 Temperature   298.150 Kelvin.  Pressure   1.00000 Atm.
 Atom     1 has atomic number  6 and mass  12.00000

 Molecular mass:   235.96431 amu.
 Principal axes and moments of inertia in atomic units:
                           1         2         3
     Eigenvalues --  2587.781943793.854346080.80828
           X            0.73311   0.67835  -0.04890
           Y           -0.67964   0.73337  -0.01578
           Z            0.02515   0.04480   0.99868
 This molecule is an asymmetric top.
 Rotational symmetry number  1.
 Warning -- assumption of classical behavior for rotation
           may cause significant error
 Rotational temperatures (Kelvin)      0.03347     0.02283     0.01424
 Rotational constants (GHZ):           0.69741     0.47570     0.29679
 Zero-point vibrational energy     333615.4 (Joules/Mol)
                                   79.73599 (Kcal/Mol)
 Warning -- explicit consideration of  21 degrees of freedom as
           vibrations may cause significant error
 Vibrational temperatures:    104.44   111.62   125.39   142.32   168.93
          (Kelvin)            238.73   243.15   265.06   283.90   328.45
                              351.43   425.14   455.37   464.02   471.72
                              520.23   527.56   651.34   669.17   749.26
                              751.12   900.96  1055.60  1072.49  1098.56
                             1117.07  1240.08  1346.66  1438.27  1523.23
                             1646.54  1654.09  1659.28  1671.29  1708.95
                             1748.99  1770.24  1997.07  1999.81  2037.99
                             2056.89  2096.19  2106.53  2123.62  2124.18
                             2155.70  2157.78  2285.63  4313.24  4314.67
                             4419.22  4421.92  4468.29  4470.03

 Zero-point correction=                           0.127067 (Hartree/Particle)
 Thermal correction to Energy=                    0.141169
 Thermal correction to Enthalpy=                  0.142113
 Thermal correction to Gibbs Free Energy=         0.085682
 Sum of electronic and zero-point Energies=          -1530.064968
 Sum of electronic and thermal Energies=             -1530.050866
 Sum of electronic and thermal Enthalpies=           -1530.049922
 Sum of electronic and thermal Free Energies=        -1530.106353

                     E (Thermal)             CV                S
                      KCal/Mol        Cal/Mol-Kelvin    Cal/Mol-Kelvin
 Total                   88.585             49.626            118.768
 Electronic               0.000              0.000              0.000
 Translational            0.889              2.981             42.277
 Rotational               0.889              2.981             32.457
 Vibrational             86.807             43.664             44.034
 Vibration     1          0.599              1.967              4.082
 Vibration     2          0.599              1.964              3.951
 Vibration     3          0.601              1.958              3.723
 Vibration     4          0.604              1.950              3.476
 Vibration     5          0.608              1.935              3.143
 Vibration     6          0.624              1.884              2.481
 Vibration     7          0.625              1.881              2.447
 Vibration     8          0.631              1.861              2.285
 Vibration     9          0.637              1.844              2.158
 Vibration    10          0.651              1.798              1.892
 Vibration    11          0.660              1.772              1.772
 Vibration    12          0.690              1.682              1.442
 Vibration    13          0.703              1.642              1.328
 Vibration    14          0.708              1.630              1.297
 Vibration    15          0.711              1.620              1.271
 Vibration    16          0.736              1.551              1.115
 Vibration    17          0.740              1.541              1.094
 Vibration    18          0.811              1.355              0.788
 Vibration    19          0.823              1.327              0.751
 Vibration    20          0.876              1.204              0.608
 Vibration    21          0.877              1.201              0.605

                           ! Non-Optimized Parameters !
 Normal termination of Gaussian 16 at Sat Feb 10 11:05:35 2024.
