 Gaussian 16, Revision A.03,
 Gaussian 16:  ES64L-G16RevA.03 25-Dec-2016

 ----------------------------------------------------------------------
 #P UB3LYP/6-311++G(d,p) nosym opt freq SCRF=(PCM,Solvent=n,n-DiMethylF
 ormamide)
 ----------------------------------------------------------------------

 -------
 Reduced
 -------
 Symbolic Z-matrix:
 Charge = -2 Multiplicity = 1

 SCF Done:  E(UB3LYP) =  -1663.81926097     A.U. after   19 cycles
 SCF Done:  E(UB3LYP) =  -1663.82003882     A.U. after   14 cycles
 SCF Done:  E(UB3LYP) =  -1663.82038316     A.U. after   14 cycles
 SCF Done:  E(UB3LYP) =  -1663.82048741     A.U. after   13 cycles
 SCF Done:  E(UB3LYP) =  -1663.82052007     A.U. after   13 cycles
 SCF Done:  E(UB3LYP) =  -1663.82053425     A.U. after   11 cycles
 SCF Done:  E(UB3LYP) =  -1663.82053803     A.U. after   11 cycles
 SCF Done:  E(UB3LYP) =  -1663.82054017     A.U. after   11 cycles
 SCF Done:  E(UB3LYP) =  -1663.82054061     A.U. after   10 cycles
 Optimization completed.
    -- Stationary point found.
 Normal termination of Gaussian 16 at Sat Feb 10 18:32:14 2024.

 ----------------------------------------------------------------------
 #P Geom=AllCheck Guess=TCheck SCRF=Check GenChk UB3LYP/6-311++G(d,p) F
 req
 ----------------------------------------------------------------------

 Structure from the checkpoint file:  "158-an.chk"
 -------
 Reduced
 -------
 Charge = -2 Multiplicity = 1

                          Input orientation:
 ---------------------------------------------------------------------
 Center     Atomic      Atomic             Coordinates (Angstroms)
 Number     Number       Type             X           Y           Z
 ---------------------------------------------------------------------
      1          7           0       -2.571993    0.455118    2.333700
      2          6           0       -2.426541    0.265422    0.961777
      3          6           0       -3.551048    0.178499    0.149683
      4          6           0       -3.427424   -0.109365   -1.228771
      5          6           0       -2.189835   -0.316496   -1.788104
      6          6           0       -0.998376   -0.217558   -1.009882
      7          6           0        0.265161   -0.430716   -1.671350
      8          8           0        0.346902   -0.732765   -2.934665
      9          6           0        1.425014   -0.281564   -0.846825
     10          6           0        2.717786   -0.474899   -1.406566
     11          6           0        3.859492   -0.332057   -0.664887
     12         17           0        5.434529   -0.592195   -1.433293
     13          6           0        3.770406    0.025230    0.713587
     14         17           0        5.230268    0.216295    1.698842
     15          6           0        2.541548    0.220998    1.286884
     16          6           0        1.334526    0.076076    0.553548
     17          6           0        0.080972    0.291744    1.215022
     18          8           0        0.047187    0.649318    2.476271
     19          6           0       -1.097792    0.105746    0.403971
     20          1           0       -1.686541    0.727508    2.775183
     21          1           0       -3.409250    0.940542    2.622865
     22          1           0       -4.533325    0.310940    0.594575
     23          1           0       -4.323352   -0.175431   -1.839674
     24          1           0       -2.080879   -0.550738   -2.839531
     25          1           0        2.777432   -0.742063   -2.454374
     26          1           0        2.465132    0.492411    2.332011
 ---------------------------------------------------------------------

 SCF Done:  E(UB3LYP) =  -1663.82054061     A.U. after    2 cycles

 Alpha  occ. eigenvalues -- -101.54906-101.54891 -19.02886 -19.01979 -14.28405
 Alpha  occ. eigenvalues --  -10.22314 -10.22203 -10.19334 -10.18464 -10.17619
 Alpha  occ. eigenvalues --  -10.16510 -10.16458 -10.14884 -10.14754 -10.14671
 Alpha  occ. eigenvalues --  -10.14578 -10.14134 -10.13751 -10.13452  -9.46363
 Alpha  occ. eigenvalues --   -9.46347  -7.22799  -7.22783  -7.21860  -7.21842
 Alpha  occ. eigenvalues --   -7.21829  -7.21813  -0.94454  -0.93204  -0.89295
 Alpha  occ. eigenvalues --   -0.88762  -0.84561  -0.81963  -0.80560  -0.75103
 Alpha  occ. eigenvalues --   -0.73264  -0.70483  -0.70274  -0.64192  -0.61639
 Alpha  occ. eigenvalues --   -0.59590  -0.57145  -0.53365  -0.51985  -0.50078
 Alpha  occ. eigenvalues --   -0.47618  -0.46015  -0.45257  -0.44686  -0.42369
 Alpha  occ. eigenvalues --   -0.42011  -0.41656  -0.40395  -0.38806  -0.38015
 Alpha  occ. eigenvalues --   -0.37942  -0.37133  -0.36347  -0.34446  -0.34195
 Alpha  occ. eigenvalues --   -0.33802  -0.32753  -0.32655  -0.32285  -0.31183
 Alpha  occ. eigenvalues --   -0.30343  -0.29552  -0.28159  -0.23789  -0.22743
 Alpha  occ. eigenvalues --   -0.21905  -0.20973  -0.19926  -0.18869  -0.11219
 Alpha virt. eigenvalues --   -0.03183  -0.00497  -0.00303   0.00089   0.01075
 Alpha virt. eigenvalues --    0.01317   0.02017   0.02460   0.03088   0.03784
 Alpha virt. eigenvalues --    0.04613   0.05049   0.05517   0.05575   0.05852

  Beta  occ. eigenvalues -- -101.54906-101.54891 -19.02886 -19.01979 -14.28405
  Beta  occ. eigenvalues --  -10.22314 -10.22203 -10.19334 -10.18464 -10.17619
  Beta  occ. eigenvalues --  -10.16510 -10.16458 -10.14884 -10.14754 -10.14671
  Beta  occ. eigenvalues --  -10.14578 -10.14134 -10.13751 -10.13452  -9.46363
  Beta  occ. eigenvalues --   -9.46347  -7.22799  -7.22783  -7.21860  -7.21842
  Beta  occ. eigenvalues --   -7.21829  -7.21813  -0.94454  -0.93204  -0.89295
  Beta  occ. eigenvalues --   -0.88762  -0.84561  -0.81963  -0.80560  -0.75103
  Beta  occ. eigenvalues --   -0.73264  -0.70483  -0.70274  -0.64192  -0.61639
  Beta  occ. eigenvalues --   -0.59590  -0.57145  -0.53365  -0.51985  -0.50078
  Beta  occ. eigenvalues --   -0.47618  -0.46015  -0.45257  -0.44686  -0.42369
  Beta  occ. eigenvalues --   -0.42011  -0.41656  -0.40395  -0.38806  -0.38015
  Beta  occ. eigenvalues --   -0.37942  -0.37133  -0.36347  -0.34446  -0.34195
  Beta  occ. eigenvalues --   -0.33802  -0.32753  -0.32655  -0.32285  -0.31183
  Beta  occ. eigenvalues --   -0.30343  -0.29552  -0.28159  -0.23789  -0.22743
  Beta  occ. eigenvalues --   -0.21905  -0.20973  -0.19926  -0.18869  -0.11219
  Beta virt. eigenvalues --   -0.03183  -0.00497  -0.00303   0.00089   0.01075
  Beta virt. eigenvalues --    0.01317   0.02017   0.02460   0.03088   0.03784
  Beta virt. eigenvalues --    0.04613   0.05049   0.05517   0.05575   0.05852

 Mulliken charges and spin densities:
               1          2
     1  N   -0.429187  -0.000000
     2  C    0.018188   0.000000
     3  C   -0.300045  -0.000000
     4  C   -0.501252  -0.000000
     5  C   -0.146950   0.000000
     6  C    0.476879   0.000000
     7  C   -0.658603  -0.000000
     8  O   -0.661693   0.000000
     9  C   -0.470231  -0.000000
    10  C   -0.580006   0.000000
    11  C    0.473400   0.000000
    12  Cl   0.481245  -0.000000
    13  C    0.359045  -0.000000
    14  Cl   0.483795   0.000000
    15  C   -0.373456  -0.000000
    16  C   -0.318722  -0.000000
    17  C   -0.880482  -0.000000
    18  O   -0.620127   0.000000
    19  C    0.264860   0.000000
    20  H    0.307934  -0.000000
    21  H    0.250129   0.000000
    22  H    0.137603   0.000000
    23  H    0.160303  -0.000000
    24  H    0.138773  -0.000000
    25  H    0.189465  -0.000000
    26  H    0.199132   0.000000
 Sum of Mulliken charges =  -2.00000  -0.00000

 Dipole moment (field-independent basis, Debye):
    X=             -7.1358    Y=              2.1055    Z=              3.5323  Tot=              8.2359
 Quadrupole moment (field-independent basis, Debye-Ang):
   XX=           -182.7250   YY=           -137.7448   ZZ=           -182.3685
   XY=             -1.5759   XZ=             -1.1724   YZ=             -8.7777

  Exact polarizability: 647.679 -16.828 182.850  13.100  52.638 402.223
 Approx polarizability: 689.546 -17.766 206.188  16.143  65.753 477.987

                      1                      2                      3
                      A                      A                      A
 Frequencies --     45.2993                47.5392                90.9404
 Red. masses --     10.2207                10.9517                 6.4255
 Frc consts  --      0.0124                 0.0146                 0.0313
 IR Inten    --      8.6047                 3.4905                 0.3222

                      4                      5                      6
                      A                      A                      A
 Frequencies --    132.3154               137.4514               183.5842
 Red. masses --     12.2740                 9.6005                 5.3971
 Frc consts  --      0.1266                 0.1069                 0.1072
 IR Inten    --     12.4843                 6.1741                 3.1200

                      7                      8                      9
                      A                      A                      A
 Frequencies --    191.2725               214.7136               241.6290
 Red. masses --     29.0556                 6.1572                 4.5744
 Frc consts  --      0.6263                 0.1672                 0.1574
 IR Inten    --      1.3252                 0.5380                10.4852

                     10                     11                     12
                      A                      A                      A
 Frequencies --    257.9698               281.3463               316.8304
 Red. masses --      9.5321                12.1558                10.2276
 Frc consts  --      0.3737                 0.5669                 0.6049
 IR Inten    --     12.3060                11.6744                 2.3072

                     13                     14                     15
                      A                      A                      A
 Frequencies --    328.3880               381.0016               402.0247
 Red. masses --      6.9410                 5.2838                10.3207
 Frc consts  --      0.4410                 0.4519                 0.9828
 IR Inten    --     25.2081                10.8889                 3.0164

                     16                     17                     18
                      A                      A                      A
 Frequencies --    412.1361               424.7613               442.3128
 Red. masses --      6.1552                 1.5249                 2.5811
 Frc consts  --      0.6160                 0.1621                 0.2975
 IR Inten    --     28.3417               236.3181                85.7137

                     19                     20                     21
                      A                      A                      A
 Frequencies --    457.1005               480.8339               494.4093
 Red. masses --      5.2393                 7.4747                 7.2721
 Frc consts  --      0.6450                 1.0182                 1.0473
 IR Inten    --     57.2256                 8.7974                 8.3795

                     22                     23                     24
                      A                      A                      A
 Frequencies --    527.1936               534.2369               577.7794
 Red. masses --      5.8501                 6.7155                 4.9261
 Frc consts  --      0.9580                 1.1293                 0.9689
 IR Inten    --      2.6051                35.0988                11.5112

                     25                     26                     27
                      A                      A                      A
 Frequencies --    594.6428               610.6246               649.2107
 Red. masses --      6.2868                 4.5271                 6.4979
 Frc consts  --      1.3098                 0.9945                 1.6136
 IR Inten    --    121.6365                 2.9468               108.0175

                     28                     29                     30
                      A                      A                      A
 Frequencies --    673.3403               699.4175               712.0850
 Red. masses --      7.3098                 2.5725                 6.3511
 Frc consts  --      1.9526                 0.7414                 1.8974
 IR Inten    --     59.0247                89.0681                31.4356

                     31                     32                     33
                      A                      A                      A
 Frequencies --    727.4151               751.4155               765.8972
 Red. masses --      2.7215                 1.9332                 1.5790
 Frc consts  --      0.8484                 0.6431                 0.5457
 IR Inten    --     44.2671               223.9647                74.4748

                     34                     35                     36
                      A                      A                      A
 Frequencies --    813.3783               825.4294               836.8796
 Red. masses --      5.5159                 4.5326                 1.7079
 Frc consts  --      2.1501                 1.8195                 0.7048
 IR Inten    --     21.7303                29.1407                 3.6454

                     37                     38                     39
                      A                      A                      A
 Frequencies --    885.9773               899.3988               922.4295
 Red. masses --      5.6645                 1.4330                 1.4264
 Frc consts  --      2.6197                 0.6830                 0.7151
 IR Inten    --     20.5471                 0.5595                40.1025

                     40                     41                     42
                      A                      A                      A
 Frequencies --    950.7132               956.3946              1016.2814
 Red. masses --      7.9325                 1.2695                 3.7319
 Frc consts  --      4.2244                 0.6842                 2.2709
 IR Inten    --     72.7815                 2.8809               353.6094

                     43                     44                     45
                      A                      A                      A
 Frequencies --   1056.0128              1085.2690              1119.2647
 Red. masses --      2.2435                 1.9103                 2.3363
 Frc consts  --      1.4740                 1.3256                 1.7244
 IR Inten    --    278.6801               142.4263               725.8117

                     46                     47                     48
                      A                      A                      A
 Frequencies --   1139.9091              1169.0708              1179.4023
 Red. masses --      2.1012                 2.1706                 3.0893
 Frc consts  --      1.6086                 1.7479                 2.5318
 IR Inten    --    579.6206                63.5730                 9.9682

                     49                     50                     51
                      A                      A                      A
 Frequencies --   1195.8991              1204.5909              1274.4591
 Red. masses --      1.5100                 2.2419                 3.0675
 Frc consts  --      1.2723                 1.9167                 2.9355
 IR Inten    --    230.4109               211.1062               335.2077

                     52                     53                     54
                      A                      A                      A
 Frequencies --   1303.7658              1311.8496              1350.6046
 Red. masses --      6.2931                 4.7325                 4.7179
 Frc consts  --      6.3025                 4.7985                 5.0705
 IR Inten    --     56.9668               372.6874               613.5278

                     55                     56                     57
                      A                      A                      A
 Frequencies --   1356.9608              1424.0347              1434.9639
 Red. masses --      3.5822                 3.6645                 5.6964
 Frc consts  --      3.8863                 4.3783                 6.9109
 IR Inten    --   1696.7922                68.3775                33.5621

                     58                     59                     60
                      A                      A                      A
 Frequencies --   1443.0641              1459.5370              1489.6421
 Red. masses --      4.1582                 3.2393                 6.1311
 Frc consts  --      5.1019                 4.0657                 8.0159
 IR Inten    --    600.6752                15.5649               157.4554

                     61                     62                     63
                      A                      A                      A
 Frequencies --   1517.9943              1557.9806              1578.4737
 Red. masses --      4.8999                 7.4605                 1.5553
 Frc consts  --      6.6524                10.6694                 2.2831
 IR Inten    --    219.4455                55.5603               335.9690

                     64                     65                     66
                      A                      A                      A
 Frequencies --   1582.5596              1609.4273              3132.7346
 Red. masses --      4.1964                 4.4121                 1.0853
 Frc consts  --      6.1922                 6.7335                 6.2754
 IR Inten    --     38.5320               143.0703                52.9739

                     67                     68                     69
                      A                      A                      A
 Frequencies --   3150.2663              3185.0085              3190.6905
 Red. masses --      1.0920                 1.0917                 1.0893
 Frc consts  --      6.3852                 6.5248                 6.5339
 IR Inten    --     75.2647                46.5028                11.6465

                     70                     71                     72
                      A                      A                      A
 Frequencies --   3195.7446              3277.4930              3611.0654
 Red. masses --      1.0894                 1.0669                 1.0838
 Frc consts  --      6.5554                 6.7525                 8.3270
 IR Inten    --     24.2865               420.6900                40.2300

 - Thermochemistry -
 -------------------
 Temperature   298.150 Kelvin.  Pressure   1.00000 Atm.
 Atom     1 has atomic number  7 and mass  14.00307

 Molecular mass:   290.98538 amu.
 Principal axes and moments of inertia in atomic units:
                           1         2         3
     Eigenvalues --  2732.643909730.57448**********
           X            0.99923   0.01395   0.03657
           Y           -0.03881   0.23125   0.97212
           Z           -0.00510   0.97279  -0.23161
 This molecule is an asymmetric top.
 Rotational symmetry number  1.
 Warning -- assumption of classical behavior for rotation
           may cause significant error
 Rotational temperatures (Kelvin)      0.03170     0.00890     0.00695
 Rotational constants (GHZ):           0.66044     0.18547     0.14487
 Zero-point vibrational energy     451481.1 (Joules/Mol)
                                  107.90656 (Kcal/Mol)
 Warning -- explicit consideration of  26 degrees of freedom as
           vibrations may cause significant error
 Vibrational temperatures:     65.18    68.40   130.84   190.37   197.76
          (Kelvin)            264.14   275.20   308.92   347.65   371.16
                              404.79   455.85   472.48   548.18   578.42
                              592.97   611.14   636.39   657.67   691.81
                              711.34   758.51   768.65   831.30   855.56
                              878.55   934.07   968.79  1006.31  1024.53
                             1046.59  1081.12  1101.96  1170.27  1187.61
                             1204.08  1274.72  1294.03  1327.17  1367.86
                             1376.04  1462.20  1519.37  1561.46  1610.37
                             1640.07  1682.03  1696.90  1720.63  1733.14
                             1833.66  1875.83  1887.46  1943.22  1952.36
                             2048.87  2064.59  2076.25  2099.95  2143.26
                             2184.06  2241.59  2271.07  2276.95  2315.61
                             4507.31  4532.53  4582.52  4590.69  4597.96
                             4715.58  5195.52

 Zero-point correction=                           0.171960 (Hartree/Particle)
 Thermal correction to Energy=                    0.187115
 Thermal correction to Enthalpy=                  0.188059
 Thermal correction to Gibbs Free Energy=         0.129226
 Sum of electronic and zero-point Energies=          -1663.648581
 Sum of electronic and thermal Energies=             -1663.633426
 Sum of electronic and thermal Enthalpies=           -1663.632481
 Sum of electronic and thermal Free Energies=        -1663.691315

                     E (Thermal)             CV                S
                      KCal/Mol        Cal/Mol-Kelvin    Cal/Mol-Kelvin
 Total                  117.416             59.977            123.825
 Electronic               0.000              0.000              0.000
 Translational            0.889              2.981             42.902
 Rotational               0.889              2.981             34.159
 Vibrational            115.639             54.016             46.764
 Vibration     1          0.595              1.979              5.013
 Vibration     2          0.595              1.979              4.917
 Vibration     3          0.602              1.956              3.640
 Vibration     4          0.612              1.921              2.912
 Vibration     5          0.614              1.916              2.839
 Vibration     6          0.631              1.862              2.292
 Vibration     7          0.634              1.852              2.215
 Vibration     8          0.645              1.819              2.003
 Vibration     9          0.658              1.777              1.791
 Vibration    10          0.667              1.749              1.675
 Vibration    11          0.681              1.708              1.525
 Vibration    12          0.704              1.641              1.326
 Vibration    13          0.712              1.619              1.268
 Vibration    14          0.751              1.511              1.035
 Vibration    15          0.768              1.466              0.955
 Vibration    16          0.776              1.444              0.919
 Vibration    17          0.787              1.416              0.876
 Vibration    18          0.802              1.378              0.819
 Vibration    19          0.815              1.345              0.775
 Vibration    20          0.837              1.293              0.708
 Vibration    21          0.850              1.262              0.672
 Vibration    22          0.882              1.190              0.594
 Vibration    23          0.889              1.174              0.578
 Vibration    24          0.934              1.079              0.489
 Vibration    25          0.952              1.043              0.459
 Vibration    26          0.970              1.009              0.432

                           ! Non-Optimized Parameters !
 Normal termination of Gaussian 16 at Sat Feb 10 19:05:27 2024.
