 Gaussian 16, Revision A.03,
 Gaussian 16:  ES64L-G16RevA.03 25-Dec-2016

 --------------------------------------
 #P UB3LYP/6-311++G(d,p) nosym opt freq
 --------------------------------------

 -------
 Radical
 -------
 Symbolic Z-matrix:
 Charge = -1 Multiplicity = 2

 SCF Done:  E(UB3LYP) =  -914.767644746     A.U. after   23 cycles
 Optimization completed.
    -- Stationary point found.
 Normal termination of Gaussian 16 at Sun Jan  7 06:49:40 2024.

 ----------------------------------------------------------------------
 #P Geom=AllCheck Guess=TCheck SCRF=Check GenChk UB3LYP/6-311++G(d,p) F
 req
 ----------------------------------------------------------------------

 Structure from the checkpoint file:  "202-rad.chk"
 -------
 Radical
 -------
 Charge = -1 Multiplicity = 2

                          Input orientation:
 ---------------------------------------------------------------------
 Center     Atomic      Atomic             Coordinates (Angstroms)
 Number     Number       Type             X           Y           Z
 ---------------------------------------------------------------------
      1          8           0        4.976435    0.603895   -0.655455
      2          6           0        3.689587    0.127603   -0.477254
      3          6           0        3.529269   -1.270890   -0.418746
      4          6           0        2.264064   -1.795602   -0.241974
      5          6           0        1.129952   -0.969670   -0.118640
      6          6           0       -0.193211   -1.593350    0.068241
      7          8           0       -0.296518   -2.833793    0.115226
      8          6           0       -1.337847   -0.674929    0.190262
      9          6           0       -2.662587   -1.150168    0.373280
     10          8           0       -2.910788   -2.503018    0.442081
     11          6           0       -3.723548   -0.260988    0.485206
     12          6           0       -3.528449    1.124264    0.422363
     13          6           0       -2.254592    1.637574    0.244905
     14          8           0       -2.089510    2.978045    0.187233
     15          6           0       -1.136659    0.751256    0.125594
     16          6           0        0.176403    1.330763   -0.058699
     17          8           0        0.352568    2.604779   -0.115974
     18          6           0        1.305027    0.434287   -0.179249
     19          6           0        2.602881    0.966101   -0.360408
     20          1           0        4.937155    1.565601   -0.676250
     21          1           0        4.401687   -1.907539   -0.513608
     22          1           0        2.106595   -2.866657   -0.192739
     23          1           0       -3.860136   -2.607104    0.566033
     24          1           0       -4.728706   -0.654339    0.625028
     25          1           0       -4.362110    1.811484    0.510639
     26          1           0       -1.092841    3.106107    0.055905
     27          1           0        2.705881    2.046289   -0.403002
 ---------------------------------------------------------------------

 SCF Done:  E(UB3LYP) =  -914.767644746     A.U. after    1 cycles

 Alpha  occ. eigenvalues --  -19.05681 -19.03484 -19.00009 -18.96248 -18.94876
 Alpha  occ. eigenvalues --  -10.12752 -10.11696 -10.10924 -10.10756 -10.10497
 Alpha  occ. eigenvalues --  -10.06295 -10.06122 -10.06118 -10.06060 -10.05969
 Alpha  occ. eigenvalues --  -10.05865 -10.05777 -10.05295 -10.05240  -0.96323
 Alpha  occ. eigenvalues --   -0.94627  -0.92513  -0.87962  -0.87518  -0.74618
 Alpha  occ. eigenvalues --   -0.72970  -0.67140  -0.64080  -0.62808  -0.61728
 Alpha  occ. eigenvalues --   -0.55455  -0.53833  -0.51884  -0.49129  -0.45739
 Alpha  occ. eigenvalues --   -0.44392  -0.44078  -0.41146  -0.39148  -0.36591
 Alpha  occ. eigenvalues --   -0.36035  -0.34630  -0.34011  -0.31870  -0.31809
 Alpha  occ. eigenvalues --   -0.31214  -0.30562  -0.30024  -0.28884  -0.28339
 Alpha  occ. eigenvalues --   -0.28045  -0.27676  -0.26850  -0.25803  -0.24554
 Alpha  occ. eigenvalues --   -0.24154  -0.24010  -0.22597  -0.21301  -0.18854
 Alpha  occ. eigenvalues --   -0.15018  -0.14137  -0.13075  -0.12141  -0.10816
 Alpha  occ. eigenvalues --   -0.09457  -0.01985
 Alpha virt. eigenvalues --    0.07012   0.07471   0.07485   0.09400   0.09506
 Alpha virt. eigenvalues --    0.09814   0.11528   0.12267   0.12710   0.13029
 Alpha virt. eigenvalues --    0.14744   0.14931   0.15183   0.16188   0.16330

  Beta  occ. eigenvalues --  -19.05680 -19.03475 -18.99959 -18.95687 -18.94374
  Beta  occ. eigenvalues --  -10.12757 -10.11724 -10.10876 -10.10706 -10.10215
  Beta  occ. eigenvalues --  -10.06228 -10.06154 -10.06012 -10.05986 -10.05897
  Beta  occ. eigenvalues --  -10.05842 -10.05716 -10.05219 -10.05141  -0.96318
  Beta  occ. eigenvalues --   -0.94606  -0.92312  -0.87123  -0.86593  -0.74396
  Beta  occ. eigenvalues --   -0.72799  -0.66738  -0.63869  -0.62642  -0.61490
  Beta  occ. eigenvalues --   -0.54768  -0.53713  -0.51642  -0.49014  -0.45526
  Beta  occ. eigenvalues --   -0.44339  -0.43927  -0.41019  -0.38997  -0.36301
  Beta  occ. eigenvalues --   -0.35956  -0.34515  -0.33864  -0.31827  -0.31246
  Beta  occ. eigenvalues --   -0.31114  -0.30309  -0.29755  -0.28726  -0.28010
  Beta  occ. eigenvalues --   -0.27454  -0.27379  -0.26015  -0.25714  -0.24055
  Beta  occ. eigenvalues --   -0.23897  -0.22644  -0.22382  -0.20559  -0.18178
  Beta  occ. eigenvalues --   -0.13716  -0.12948  -0.12624  -0.11454  -0.10348
  Beta  occ. eigenvalues --   -0.08528
  Beta virt. eigenvalues --    0.03688   0.07463   0.07484   0.07857   0.09499
  Beta virt. eigenvalues --    0.09808   0.10413   0.11540   0.12647   0.12709
  Beta virt. eigenvalues --    0.13029   0.14765   0.14933   0.15387   0.16338

 Mulliken charges and spin densities:
               1          2
     1  O   -0.266275   0.000976
     2  C   -0.665865  -0.004698
     3  C   -0.150625   0.064661
     4  C    0.170515  -0.011163
     5  C   -0.176005   0.055190
     6  C   -0.499635   0.008800
     7  O   -0.331619   0.189225
     8  C    0.393114   0.073488
     9  C   -0.314427  -0.003536
    10  O   -0.185831   0.002609
    11  C   -0.224302   0.100619
    12  C   -0.052823   0.052392
    13  C   -0.411863   0.055597
    14  O   -0.374641   0.016174
    15  C    0.822657  -0.027139
    16  C   -0.423867   0.162674
    17  O   -0.430483   0.205170
    18  C    0.466409   0.007443
    19  C    0.131732   0.079631
    20  H    0.256859  -0.000119
    21  H    0.161962  -0.004969
    22  H    0.159465   0.000728
    23  H    0.233069  -0.000718
    24  H    0.085570  -0.009162
    25  H    0.147434  -0.004843
    26  H    0.355327  -0.004535
    27  H    0.124148  -0.004497
 Sum of Mulliken charges =  -1.00000   1.00000

 Dipole moment (field-independent basis, Debye):
    X=             -0.0534    Y=              0.2016    Z=              0.0005  Tot=              0.2086
 Quadrupole moment (field-independent basis, Debye-Ang):
   XX=           -125.7422   YY=           -144.9169   ZZ=           -115.7208
   XY=             11.3324   XZ=              0.9992   YZ=             -0.6528

  Exact polarizability: 340.748  -5.931 230.041 -31.307  -2.890  99.738
 Approx polarizability: 517.305   0.982 435.597 -46.834  -7.818 158.946

                      1                      2                      3
                      A                      A                      A
 Frequencies --     39.9745                70.6536               103.3269
 Red. masses --      7.8124                 7.2001                 6.1542
 Frc consts  --      0.0074                 0.0212                 0.0387
 IR Inten    --      6.6594                 0.0119                 0.8771

                      4                      5                      6
                      A                      A                      A
 Frequencies --    133.8012               165.5754               175.3030
 Red. masses --      6.9841                 6.9682                 6.9255
 Frc consts  --      0.0737                 0.1126                 0.1254
 IR Inten    --      0.0326                 0.0389                 1.8273

                      7                      8                      9
                      A                      A                      A
 Frequencies --    207.1028               236.6542               275.4632
 Red. masses --      2.1487                 1.7659                 7.4799
 Frc consts  --      0.0543                 0.0583                 0.3344
 IR Inten    --     20.6179                62.8577                 5.4593

                     10                     11                     12
                      A                      A                      A
 Frequencies --    298.7963               326.7869               326.8487
 Red. masses --      1.5944                 7.0499                 2.4754
 Frc consts  --      0.0839                 0.4436                 0.1558
 IR Inten    --     39.9356                 4.7549                51.2409

                     13                     14                     15
                      A                      A                      A
 Frequencies --    363.9160               371.8873               400.8792
 Red. masses --     10.0734                 6.1482                 6.2307
 Frc consts  --      0.7860                 0.5010                 0.5900
 IR Inten    --      2.1986                 4.0952                 8.2057

                     16                     17                     18
                      A                      A                      A
 Frequencies --    421.0229               429.2440               437.1504
 Red. masses --      4.9359                 6.3879                 8.7740
 Frc consts  --      0.5155                 0.6935                 0.9879
 IR Inten    --      2.1243                24.5932                15.1069

                     19                     20                     21
                      A                      A                      A
 Frequencies --    446.0065               463.3661               489.6319
 Red. masses --      3.9334                10.8646                 7.5275
 Frc consts  --      0.4610                 1.3744                 1.0633
 IR Inten    --      3.8450                 7.8696                 8.4956

                     22                     23                     24
                      A                      A                      A
 Frequencies --    530.5886               537.5076               583.0457
 Red. masses --      7.3130                 4.6901                 3.5645
 Frc consts  --      1.2130                 0.7984                 0.7139
 IR Inten    --      6.7900                 3.4717                18.9486

                     25                     26                     27
                      A                      A                      A
 Frequencies --    589.7044               645.1209               671.6822
 Red. masses --      5.0531                 4.1608                 6.4555
 Frc consts  --      1.0353                 1.0202                 1.7160
 IR Inten    --     14.1324                 1.5074                 3.6131

                     28                     29                     30
                      A                      A                      A
 Frequencies --    691.8523               713.5890               732.1083
 Red. masses --      7.3528                 5.9580                 3.8973
 Frc consts  --      2.0736                 1.7875                 1.2307
 IR Inten    --      3.6818                 0.4734                 0.0915

                     31                     32                     33
                      A                      A                      A
 Frequencies --    735.8937               776.0629               784.2286
 Red. masses --      7.1050                 2.1870                 2.5585
 Frc consts  --      2.2670                 0.7761                 0.9271
 IR Inten    --     24.4186                22.1146                43.1068

                     34                     35                     36
                      A                      A                      A
 Frequencies --    822.3467               827.1484               852.2878
 Red. masses --      2.0255                 8.1630                 1.3290
 Frc consts  --      0.8070                 3.2906                 0.5688
 IR Inten    --      7.9703                99.8945                 8.7232

                     37                     38                     39
                      A                      A                      A
 Frequencies --    872.2631               881.5500               939.0847
 Red. masses --      1.4914                 6.9918                 6.9871
 Frc consts  --      0.6686                 3.2013                 3.6304
 IR Inten    --     21.7895                26.4396                69.0820

                     40                     41                     42
                      A                      A                      A
 Frequencies --    961.8992               984.3255               990.3672
 Red. masses --      1.0527                 1.3042                 3.8951
 Frc consts  --      0.5739                 0.7445                 2.2509
 IR Inten    --     69.8632                 1.2813                14.0968

                     43                     44                     45
                      A                      A                      A
 Frequencies --   1065.6993              1103.9597              1145.1606
 Red. masses --      2.3159                 1.9005                 1.6241
 Frc consts  --      1.5497                 1.3647                 1.2549
 IR Inten    --     44.6414                16.4107                48.3733

                     46                     47                     48
                      A                      A                      A
 Frequencies --   1172.9981              1181.0367              1208.8910
 Red. masses --      1.9471                 1.5045                 2.3590
 Frc consts  --      1.5784                 1.2364                 2.0312
 IR Inten    --    105.3260                81.9485               217.5397

                     49                     50                     51
                      A                      A                      A
 Frequencies --   1215.6442              1244.1636              1247.9959
 Red. masses --      1.8856                 2.2140                 3.0314
 Frc consts  --      1.6418                 2.0192                 2.7817
 IR Inten    --     12.4604                 8.5015                 4.6489

                     52                     53                     54
                      A                      A                      A
 Frequencies --   1277.3128              1289.1655              1325.5035
 Red. masses --      4.1852                 3.1983                 3.2913
 Frc consts  --      4.0231                 3.1318                 3.4071
 IR Inten    --      8.3040               117.3315                39.2839

                     55                     56                     57
                      A                      A                      A
 Frequencies --   1347.5377              1376.4440              1388.3720
 Red. masses --      4.4787                 7.9685                 3.4448
 Frc consts  --      4.7917                 8.8950                 3.9122
 IR Inten    --      9.4622                14.7203               168.8580

                     58                     59                     60
                      A                      A                      A
 Frequencies --   1414.3980              1471.9832              1491.7740
 Red. masses --      3.6686                 4.3322                 3.4585
 Frc consts  --      4.3241                 5.5305                 4.5347
 IR Inten    --    389.4950                22.3365               104.2112

                     61                     62                     63
                      A                      A                      A
 Frequencies --   1505.7996              1560.7722              1571.0764
 Red. masses --      2.6953                 3.7606                 5.8513
 Frc consts  --      3.6008                 5.3975                 8.5094
 IR Inten    --    201.9767               344.8192               297.8150

                     64                     65                     66
                      A                      A                      A
 Frequencies --   1590.0550              1614.8284              1639.4732
 Red. masses --      4.9464                 5.6824                 3.5891
 Frc consts  --      7.3683                 8.7303                 5.6839
 IR Inten    --    144.5239               197.1456                71.4640

                     67                     68                     69
                      A                      A                      A
 Frequencies --   1658.8869              2843.0393              3116.7436
 Red. masses --      3.6905                 1.0756                 1.0877
 Frc consts  --      5.9837                 5.1224                 6.2255
 IR Inten    --     65.4124               387.4349                47.5617

                     70                     71                     72
                      A                      A                      A
 Frequencies --   3157.7021              3170.1548              3176.7205
 Red. masses --      1.0896                 1.0874                 1.0915
 Frc consts  --      6.4009                 6.4390                 6.4897
 IR Inten    --     19.7774                 8.0100                25.8581

                     73                     74                     75
                      A                      A                      A
 Frequencies --   3189.9267              3812.0223              3831.5860
 Red. masses --      1.0932                 1.0654                 1.0657
 Frc consts  --      6.5538                 9.1219                 9.2184
 IR Inten    --     17.8755                18.9012                42.9251

 - Thermochemistry -
 -------------------
 Temperature   298.150 Kelvin.  Pressure   1.00000 Atm.
 Atom     1 has atomic number  8 and mass  15.99491

 Molecular mass:   256.03717 amu.
 Principal axes and moments of inertia in atomic units:
                           1         2         3
     Eigenvalues --  2625.346656206.686068832.03268
           X            0.99181   0.00964   0.12732
           Y           -0.01318   0.99955   0.02698
           Z           -0.12700  -0.02843   0.99149
 This molecule is an asymmetric top.
 Rotational symmetry number  1.
 Warning -- assumption of classical behavior for rotation
           may cause significant error
 Rotational temperatures (Kelvin)      0.03299     0.01395     0.00981
 Rotational constants (GHZ):           0.68743     0.29077     0.20434
 Zero-point vibrational energy     494732.9 (Joules/Mol)
                                  118.24399 (Kcal/Mol)
 Warning -- explicit consideration of  25 degrees of freedom as
           vibrations may cause significant error
 Vibrational temperatures:     57.51   101.65   148.66   192.51   238.23
          (Kelvin)            252.22   297.97   340.49   396.33   429.90
                              470.17   470.26   523.59   535.06   576.78
                              605.76   617.59   628.96   641.70   666.68
                              704.47   763.40   773.35   838.87   848.45
                              928.19   966.40   995.42  1026.70  1053.34
                             1058.79  1116.58  1128.33  1183.17  1190.08
                             1226.25  1254.99  1268.35  1351.13  1383.96
                             1416.22  1424.92  1533.30  1588.35  1647.63
                             1687.68  1699.25  1739.32  1749.04  1790.07
                             1795.59  1837.77  1854.82  1907.10  1938.81
                             1980.40  1997.56  2035.00  2117.86  2146.33
                             2166.51  2245.60  2260.43  2287.73  2323.38
                             2358.84  2386.77  4090.50  4484.30  4543.23
                             4561.15  4570.59  4589.59  5484.65  5512.80

 Zero-point correction=                           0.188434 (Hartree/Particle)
 Thermal correction to Energy=                    0.203178
 Thermal correction to Enthalpy=                  0.204122
 Thermal correction to Gibbs Free Energy=         0.146379
 Sum of electronic and zero-point Energies=           -914.579211
 Sum of electronic and thermal Energies=              -914.564467
 Sum of electronic and thermal Enthalpies=            -914.563522
 Sum of electronic and thermal Free Energies=         -914.621265

                     E (Thermal)             CV                S
                      KCal/Mol        Cal/Mol-Kelvin    Cal/Mol-Kelvin
 Total                  127.496             59.339            121.531
 Electronic               0.000              0.000              1.377
 Translational            0.889              2.981             42.520
 Rotational               0.889              2.981             33.331
 Vibrational            125.719             53.378             44.302
 Vibration     1          0.594              1.981              5.260
 Vibration     2          0.598              1.968              4.135
 Vibration     3          0.605              1.947              3.391
 Vibration     4          0.613              1.920              2.891
 Vibration     5          0.624              1.885              2.485
 Vibration     6          0.627              1.873              2.378
 Vibration     7          0.641              1.830              2.069
 Vibration     8          0.656              1.785              1.828
 Vibration     9          0.677              1.719              1.562
 Vibration    10          0.692              1.676              1.424
 Vibration    11          0.710              1.622              1.276
 Vibration    12          0.711              1.622              1.276
 Vibration    13          0.737              1.547              1.105
 Vibration    14          0.744              1.530              1.072
 Vibration    15          0.767              1.468              0.959
 Vibration    16          0.784              1.425              0.889
 Vibration    17          0.791              1.407              0.861
 Vibration    18          0.797              1.389              0.836
 Vibration    19          0.805              1.370              0.808
 Vibration    20          0.821              1.331              0.756
 Vibration    21          0.845              1.273              0.685
 Vibration    22          0.886              1.182              0.586
 Vibration    23          0.893              1.167              0.571
 Vibration    24          0.940              1.068              0.480
 Vibration    25          0.947              1.054              0.468

 Optimization completed.
    -- Stationary point found.
 Normal termination of Gaussian 16 at Sun Jan  7 08:10:24 2024.
