 Gaussian 16, Revision A.03,
 Gaussian 16:  ES64L-G16RevA.03 25-Dec-2016

 --------------------------------------
 #P UB3LYP/6-311++G(d,p) nosym opt freq
 --------------------------------------

 -------
 Reduced
 -------
 Symbolic Z-matrix:
 Charge = -2 Multiplicity = 1

 SCF Done:  E(UB3LYP) =  -692.511681469     A.U. after  125 cycles
 SCF Done:  E(UB3LYP) =  -692.532522946     A.U. after   35 cycles
 SCF Done:  E(UB3LYP) =  -692.535259187     A.U. after   32 cycles
 SCF Done:  E(UB3LYP) =  -692.534934841     A.U. after   30 cycles
 SCF Done:  E(UB3LYP) =  -692.535643025     A.U. after   27 cycles
 SCF Done:  E(UB3LYP) =  -692.535549990     A.U. after   29 cycles
 SCF Done:  E(UB3LYP) =  -692.535684924     A.U. after   26 cycles
 SCF Done:  E(UB3LYP) =  -692.535751458     A.U. after   26 cycles
 SCF Done:  E(UB3LYP) =  -692.531911980     A.U. after   29 cycles
 SCF Done:  E(UB3LYP) =  -692.536331771     A.U. after   30 cycles
 SCF Done:  E(UB3LYP) =  -692.538599520     A.U. after   28 cycles
 SCF Done:  E(UB3LYP) =  -692.538617957     A.U. after   28 cycles
 SCF Done:  E(UB3LYP) =  -692.538725120     A.U. after   27 cycles
 SCF Done:  E(UB3LYP) =  -692.538737183     A.U. after   28 cycles
 SCF Done:  E(UB3LYP) =  -692.538745466     A.U. after   25 cycles
 SCF Done:  E(UB3LYP) =  -692.538755313     A.U. after   27 cycles
 SCF Done:  E(UB3LYP) =  -692.538763577     A.U. after   27 cycles
 SCF Done:  E(UB3LYP) =  -692.538765723     A.U. after   26 cycles
 SCF Done:  E(UB3LYP) =  -692.538765842     A.U. after   27 cycles
 Optimization completed.
    -- Stationary point found.
 Normal termination of Gaussian 16 at Tue Dec 26 23:49:58 2023.

 ----------------------------------------------------------------------
 #P Geom=AllCheck Guess=TCheck SCRF=Check GenChk UB3LYP/6-311++G(d,p) F
 req
 ----------------------------------------------------------------------

 Structure from the checkpoint file:  "256-an.chk"
 -------
 Reduced
 -------
 Charge = -2 Multiplicity = 1

                          Input orientation:
 ---------------------------------------------------------------------
 Center     Atomic      Atomic             Coordinates (Angstroms)
 Number     Number       Type             X           Y           Z
 ---------------------------------------------------------------------
      1          6           0       -1.528053    2.785601    0.007057
      2          6           0       -2.789874    2.214044   -0.018224
      3          6           0       -2.898417    0.789184   -0.016230
      4          6           0       -0.334905    2.028907    0.018810
      5          6           0       -0.443531    0.600354    0.005036
      6          6           0       -1.737449    0.033081   -0.012645
      7          6           0        0.958450    2.704942    0.036873
      8          6           0        2.096771    1.834032    0.047382
      9          6           0        1.989638    0.424914    0.033564
     10          6           0        0.732677   -0.263654    0.016037
     11          8           0        1.051048    3.990491    0.035845
     12          8           0        0.629622   -1.548413    0.016976
     13          6           0        3.455611    2.494542    0.059898
     14          6           0        3.232812   -0.433590    0.051240
     15          1           0       -1.413887    3.865776    0.025225
     16          6           0       -4.030812    3.079800    0.005097
     17          6           0       -4.255231    0.121247   -0.070768
     18          1           0        3.311417    3.577369    0.070376
     19          1           0        4.060297    2.229281   -0.822357
     20          1           0        4.054114    2.208824    0.938942
     21          1           0        3.887557   -0.243570   -0.813512
     22          1           0        2.926818   -1.482192    0.035935
     23          1           0        3.850395   -0.261039    0.947448
     24          1           0       -1.787834   -1.051953   -0.030071
     25          1           0       -3.766193    4.139546   -0.055197
     26          1           0       -4.625676    2.941331    0.925644
     27          1           0       -4.711263    2.860570   -0.824438
     28          1           0       -4.914552    0.443030    0.742215
     29          1           0       -4.155691   -0.966197   -0.005405
     30          1           0       -4.799730    0.345974   -1.005363
 ---------------------------------------------------------------------

 SCF Done:  E(UB3LYP) =  -692.538765842     A.U. after    5 cycles

 Alpha  occ. eigenvalues --  -18.78560 -18.78559  -9.95318  -9.95318  -9.94160
 Alpha  occ. eigenvalues --   -9.94158  -9.93591  -9.93548  -9.92450  -9.92449
 Alpha  occ. eigenvalues --   -9.91723  -9.91721  -9.90650  -9.90608  -9.90347
 Alpha  occ. eigenvalues --   -9.90300  -0.70187  -0.69805  -0.61087  -0.56023
 Alpha  occ. eigenvalues --   -0.53167  -0.52678  -0.48052  -0.46481  -0.46182
 Alpha  occ. eigenvalues --   -0.41040  -0.38559  -0.34681  -0.32117  -0.28996
 Alpha  occ. eigenvalues --   -0.25044  -0.22921  -0.22741  -0.21367  -0.19394
 Alpha  occ. eigenvalues --   -0.19207  -0.18573  -0.18483  -0.17316  -0.16114
 Alpha  occ. eigenvalues --   -0.16054  -0.14565  -0.14467  -0.14051  -0.13076
 Alpha  occ. eigenvalues --   -0.12809  -0.11851  -0.10275  -0.08341  -0.07890
 Alpha  occ. eigenvalues --   -0.07179  -0.07059   0.00434   0.01544   0.02604
 Alpha  occ. eigenvalues --    0.03485   0.04323   0.12992
 Alpha virt. eigenvalues --    0.14486   0.16011   0.16546   0.17877   0.18389
 Alpha virt. eigenvalues --    0.18830   0.19768   0.20391   0.20605   0.21050
 Alpha virt. eigenvalues --    0.21455   0.22139   0.22484   0.22600   0.23786

  Beta  occ. eigenvalues --  -18.78560 -18.78559  -9.95318  -9.95318  -9.94160
  Beta  occ. eigenvalues --   -9.94158  -9.93591  -9.93548  -9.92450  -9.92449
  Beta  occ. eigenvalues --   -9.91723  -9.91721  -9.90650  -9.90608  -9.90347
  Beta  occ. eigenvalues --   -9.90300  -0.70187  -0.69805  -0.61087  -0.56023
  Beta  occ. eigenvalues --   -0.53167  -0.52678  -0.48052  -0.46481  -0.46182
  Beta  occ. eigenvalues --   -0.41040  -0.38559  -0.34681  -0.32117  -0.28996
  Beta  occ. eigenvalues --   -0.25044  -0.22921  -0.22741  -0.21367  -0.19394
  Beta  occ. eigenvalues --   -0.19207  -0.18573  -0.18483  -0.17316  -0.16114
  Beta  occ. eigenvalues --   -0.16054  -0.14565  -0.14467  -0.14051  -0.13076
  Beta  occ. eigenvalues --   -0.12809  -0.11851  -0.10275  -0.08341  -0.07890
  Beta  occ. eigenvalues --   -0.07179  -0.07059   0.00434   0.01544   0.02604
  Beta  occ. eigenvalues --    0.03485   0.04323   0.12992
  Beta virt. eigenvalues --    0.14486   0.16011   0.16546   0.17877   0.18389
  Beta virt. eigenvalues --    0.18830   0.19768   0.20391   0.20605   0.21050
  Beta virt. eigenvalues --    0.21455   0.22139   0.22484   0.22600   0.23786

 Mulliken charges and spin densities:
               1          2
     1  C   -0.068474   0.000000
     2  C   -0.895195  -0.000000
     3  C   -0.895295  -0.000000
     4  C    0.431489   0.000000
     5  C    0.431637  -0.000000
     6  C   -0.068712   0.000000
     7  C   -1.105107  -0.000000
     8  C    0.385647   0.000000
     9  C    0.385386  -0.000000
    10  C   -1.105101   0.000000
    11  O   -0.494396   0.000000
    12  O   -0.494408   0.000000
    13  C   -0.525753  -0.000000
    14  C   -0.525861  -0.000000
    15  H    0.180725   0.000000
    16  C    1.377170  -0.000000
    17  C    1.377070   0.000000
    18  H    0.182657   0.000000
    19  H    0.076318  -0.000000
    20  H    0.085015   0.000000
    21  H    0.085032   0.000000
    22  H    0.182664  -0.000000
    23  H    0.076309   0.000000
    24  H    0.180756   0.000000
    25  H   -0.276324  -0.000000
    26  H   -0.186284  -0.000000
    27  H   -0.167183  -0.000000
    28  H   -0.167473  -0.000000
    29  H   -0.276565  -0.000000
    30  H   -0.185747  -0.000000
 Sum of Mulliken charges =  -2.00000  -0.00000

 Dipole moment (field-independent basis, Debye):
    X=              5.6650    Y=            -12.7757    Z=             -0.0915  Tot=             13.9756
 Quadrupole moment (field-independent basis, Debye-Ang):
   XX=           -202.1609   YY=           -185.9512   ZZ=           -114.8404
   XY=              9.8232   XZ=             -0.9384   YZ=             -0.1456

  Exact polarizability:1544.461 -91.7262306.019 -39.554-238.693 511.954
 Approx polarizability:7172.013-462.5131132.187  78.611 -15.379 431.515

 ******    1 imaginary frequencies (negative Signs) ******

                      1                      2                      3
                      A                      A                      A
 Frequencies --    -58.8705                70.4701                76.9842
 Red. masses --      1.8471                 1.3832                 3.3867
 Frc consts  --      0.0038                 0.0040                 0.0118
 IR Inten    --   6902.8591                21.7337                 0.6462

                      4                      5                      6
                      A                      A                      A
 Frequencies --    100.9852               132.8615               142.7236
 Red. masses --      1.6261                 2.0295                 4.1057
 Frc consts  --      0.0098                 0.0211                 0.0493
 IR Inten    --   2584.3902                11.5098               168.1224

                      7                      8                      9
                      A                      A                      A
 Frequencies --    160.9874               187.0642               195.8749
 Red. masses --      1.1372                 3.7703                 2.0776
 Frc consts  --      0.0174                 0.0777                 0.0470
 IR Inten    --    154.7946                 6.9044              4267.5443

                     10                     11                     12
                      A                      A                      A
 Frequencies --    226.2152               243.4462               251.4000
 Red. masses --      1.3910                 3.0949                 2.4345
 Frc consts  --      0.0419                 0.1081                 0.0907
 IR Inten    --   3365.0701                 0.6636              2845.0749

                     13                     14                     15
                      A                      A                      A
 Frequencies --    308.3373               335.6065               347.3261
 Red. masses --      2.8010                 3.6390                 4.6412
 Frc consts  --      0.1569                 0.2415                 0.3299
 IR Inten    --    385.3875               386.8694                58.5364

                     16                     17                     18
                      A                      A                      A
 Frequencies --    350.3547               371.3472               399.4731
 Red. masses --      4.9495                 4.0914                 6.0592
 Frc consts  --      0.3580                 0.3324                 0.5697
 IR Inten    --    313.8099               275.2123              1641.5957

                     19                     20                     21
                      A                      A                      A
 Frequencies --    410.9908               466.2600               470.7079
 Red. masses --      7.1465                 3.1530                 3.7000
 Frc consts  --      0.7112                 0.4039                 0.4830
 IR Inten    --   1135.6394               247.1570                97.4877

                     22                     23                     24
                      A                      A                      A
 Frequencies --    494.4938               551.8796               559.9876
 Red. masses --      8.8226                 4.4578                 4.1799
 Frc consts  --      1.2711                 0.8000                 0.7723
 IR Inten    --    514.2498               926.7230               119.6010

                     25                     26                     27
                      A                      A                      A
 Frequencies --    654.6873               674.0526               676.5298
 Red. masses --      4.2859                 5.1501                 4.5453
 Frc consts  --      1.0823                 1.3787                 1.2257
 IR Inten    --      3.7897               944.3612               223.2960

                     28                     29                     30
                      A                      A                      A
 Frequencies --    710.6498               745.7097               752.4465
 Red. masses --      5.2165                 4.2549                 4.0852
 Frc consts  --      1.5522                 1.3940                 1.3628
 IR Inten    --   4091.5678                21.0402                83.8640

                     31                     32                     33
                      A                      A                      A
 Frequencies --    806.1776               910.8842               918.6280
 Red. masses --      4.8559                 2.6139                 2.5686
 Frc consts  --      1.8594                 1.2778                 1.2771
 IR Inten    --    240.6919               404.1841              3983.2910

                     34                     35                     36
                      A                      A                      A
 Frequencies --    925.1257               928.3615               977.2818
 Red. masses --      1.4907                 1.3921                 1.4075
 Frc consts  --      0.7517                 0.7069                 0.7920
 IR Inten    --     26.9687                61.2249             24550.2858

                     37                     38                     39
                      A                      A                      A
 Frequencies --    999.1091              1019.6167              1029.5337
 Red. masses --      1.6341                 1.5417                 1.4793
 Frc consts  --      0.9611                 0.9443                 0.9238
 IR Inten    --   2086.1430               579.4238               945.1763

                     40                     41                     42
                      A                      A                      A
 Frequencies --   1044.4002              1046.0419              1048.6400
 Red. masses --      1.5068                 1.4792                 1.4446
 Frc consts  --      0.9684                 0.9536                 0.9360
 IR Inten    --    113.6766               128.6613               176.3061

                     43                     44                     45
                      A                      A                      A
 Frequencies --   1091.0037              1110.3213              1133.2680
 Red. masses --      3.2682                 3.6901                 2.1873
 Frc consts  --      2.2920                 2.6803                 1.6551
 IR Inten    --   2593.3970               696.8110              6115.7887

                     46                     47                     48
                      A                      A                      A
 Frequencies --   1172.7907              1197.1895              1235.8493
 Red. masses --      3.2770                 4.2082                 4.7933
 Frc consts  --      2.6556                 3.5536                 4.3134
 IR Inten    --  31675.2237              3090.5405               334.6335

                     49                     50                     51
                      A                      A                      A
 Frequencies --   1246.9264              1302.2782              1340.2674
 Red. masses --      1.4287                 2.3130                 1.4007
 Frc consts  --      1.3088                 2.3112                 1.4824
 IR Inten    --    738.5947             10615.1241               152.1797

                     52                     53                     54
                      A                      A                      A
 Frequencies --   1348.0654              1372.0637              1385.3418
 Red. masses --      1.9460                 4.4947                 1.8390
 Frc consts  --      2.0836                 4.9853                 2.0794
 IR Inten    --    689.6496               774.7368               128.2045

                     55                     56                     57
                      A                      A                      A
 Frequencies --   1409.3347              1411.5058              1431.4537
 Red. masses --      1.4509                 3.3594                 4.1929
 Frc consts  --      1.6979                 3.9434                 5.0620
 IR Inten    --   1016.2714              2448.6981              1337.4378

                     58                     59                     60
                      A                      A                      A
 Frequencies --   1457.1712              1459.9925              1470.9129
 Red. masses --      1.5569                 2.0123                 1.3533
 Frc consts  --      1.9477                 2.5272                 1.7251
 IR Inten    --   1007.7417               287.1963               529.5556

                     61                     62                     63
                      A                      A                      A
 Frequencies --   1475.6974              1477.9687              1483.1296
 Red. masses --      1.4020                 1.2174                 1.4260
 Frc consts  --      1.7988                 1.5668                 1.8481
 IR Inten    --    468.2308               175.0218               237.5925

                     64                     65                     66
                      A                      A                      A
 Frequencies --   1485.3380              1496.9056              1498.6790
 Red. masses --      1.1172                 1.2974                 1.4183
 Frc consts  --      1.4522                 1.7128                 1.8768
 IR Inten    --    121.2703               181.0731              1314.4285

                     67                     68                     69
                      A                      A                      A
 Frequencies --   1501.3153              1503.4177              1611.0177
 Red. masses --      1.0841                 2.1201                 6.1558
 Frc consts  --      1.4397                 2.8234                 9.4132
 IR Inten    --     11.5892                28.4527               395.6650

                     70                     71                     72
                      A                      A                      A
 Frequencies --   1667.9109              2884.7097              2915.4376
 Red. masses --      4.0968                 1.0922                 1.0645
 Frc consts  --      6.7148                 5.3547                 5.3307
 IR Inten    --  36515.2877             86189.7311               556.0196

                     73                     74                     75
                      A                      A                      A
 Frequencies --   2920.1774              2932.9179              2944.2063
 Red. masses --      1.0704                 1.0446                 1.0436
 Frc consts  --      5.3781                 5.2940                 5.3300
 IR Inten    --  13743.1299                33.7751              5623.7858

                     76                     77                     78
                      A                      A                      A
 Frequencies --   2957.7454              3002.4280              3022.9379
 Red. masses --      1.0953                 1.0724                 1.0698
 Frc consts  --      5.6456                 5.6957                 5.7597
 IR Inten    --    901.6745             19366.2336               227.4957

                     79                     80                     81
                      A                      A                      A
 Frequencies --   3062.6394              3078.8295              3079.3987
 Red. masses --      1.1024                 1.0912                 1.0908
 Frc consts  --      6.0920                 6.0941                 6.0944
 IR Inten    --   7219.6167                64.3477                 7.7962

                     82                     83                     84
                      A                      A                      A
 Frequencies --   3130.8509              3147.1496              3155.0043
 Red. masses --      1.0926                 1.0885                 1.0923
 Frc consts  --      6.3100                 6.3520                 6.4060
 IR Inten    -- 127674.8676               576.8651             44019.5166

 - Thermochemistry -
 -------------------
 Temperature   298.150 Kelvin.  Pressure   1.00000 Atm.
 Atom     1 has atomic number  6 and mass  12.00000

 Molecular mass:   214.09938 amu.
 Principal axes and moments of inertia in atomic units:
                           1         2         3
     Eigenvalues --  1942.995724629.511576527.78151
           X            0.99704   0.07583  -0.01230
           Y           -0.07592   0.99709  -0.00645
           Z            0.01178   0.00736   0.99990
 This molecule is an asymmetric top.
 Rotational symmetry number  1.
 Warning -- assumption of classical behavior for rotation
           may cause significant error
 Rotational temperatures (Kelvin)      0.04458     0.01871     0.01327
 Rotational constants (GHZ):           0.92884     0.38983     0.27647
    1 imaginary frequencies ignored.
 Zero-point vibrational energy     620474.3 (Joules/Mol)
                                  148.29692 (Kcal/Mol)
 Warning -- explicit consideration of  23 degrees of freedom as
           vibrations may cause significant error
 Vibrational temperatures:    101.39   110.76   145.30   191.16   205.35
          (Kelvin)            231.63   269.14   281.82   325.47   350.26
                              361.71   443.63   482.86   499.72   504.08
                              534.29   574.75   591.32   670.84   677.24
                              711.47   794.03   805.70   941.95   969.81
                              973.38  1022.47  1072.91  1082.60  1159.91
                             1310.56  1321.70  1331.05  1335.71  1406.09
                             1437.50  1467.00  1481.27  1502.66  1505.02
                             1508.76  1569.71  1597.50  1630.52  1687.38
                             1722.49  1778.11  1794.05  1873.69  1928.35
                             1939.57  1974.09  1993.20  2027.72  2030.84
                             2059.54  2096.54  2100.60  2116.32  2123.20
                             2126.47  2133.89  2137.07  2153.71  2156.26
                             2160.06  2163.08  2317.90  2399.75  4150.45
                             4194.66  4201.48  4219.81  4236.06  4255.54
                             4319.82  4349.33  4406.45  4429.75  4430.57
                             4504.60  4528.05  4539.35

 Zero-point correction=                           0.236326 (Hartree/Particle)
 Thermal correction to Energy=                    0.251079
 Thermal correction to Enthalpy=                  0.252023
 Thermal correction to Gibbs Free Energy=         0.195507
 Sum of electronic and zero-point Energies=           -692.302440
 Sum of electronic and thermal Energies=              -692.287687
 Sum of electronic and thermal Enthalpies=            -692.286743
 Sum of electronic and thermal Free Energies=         -692.343259

                     E (Thermal)             CV                S
                      KCal/Mol        Cal/Mol-Kelvin    Cal/Mol-Kelvin
 Total                  157.554             57.084            118.947
 Electronic               0.000              0.000              0.000
 Translational            0.889              2.981             41.987
 Rotational               0.889              2.981             32.440
 Vibrational            155.777             51.122             44.520
 Vibration     1          0.598              1.968              4.140
 Vibration     2          0.599              1.965              3.966
 Vibration     3          0.604              1.948              3.435
 Vibration     4          0.613              1.921              2.904
 Vibration     5          0.616              1.910              2.767
 Vibration     6          0.622              1.890              2.538
 Vibration     7          0.632              1.858              2.257
 Vibration     8          0.636              1.846              2.172
 Vibration     9          0.650              1.801              1.909
 Vibration    10          0.659              1.774              1.778
 Vibration    11          0.663              1.760              1.721
 Vibration    12          0.698              1.658              1.371
 Vibration    13          0.717              1.604              1.233
 Vibration    14          0.725              1.581              1.178
 Vibration    15          0.727              1.575              1.165
 Vibration    16          0.743              1.531              1.074
 Vibration    17          0.766              1.471              0.965
 Vibration    18          0.775              1.446              0.923
 Vibration    19          0.824              1.325              0.748
 Vibration    20          0.828              1.315              0.736
 Vibration    21          0.850              1.262              0.672
 Vibration    22          0.907              1.136              0.540
 Vibration    23          0.916              1.118              0.524

 Optimization completed.
    -- Stationary point found.
 Normal termination of Gaussian 16 at Wed Dec 27 00:27:02 2023.
