 Gaussian 16, Revision A.03,
 Gaussian 16:  ES64L-G16RevA.03 25-Dec-2016

 ----------------------------------------------------------------------
 #P UB3LYP/6-311++G(d,p) nosym opt freq SCRF=(PCM,Solvent=n,n-DiMethylF
 ormamide)
 ----------------------------------------------------------------------

 -------
 Reduced
 -------
 Symbolic Z-matrix:
 Charge = -2 Multiplicity = 1

 SCF Done:  E(UB3LYP) =  -809.553154827     A.U. after   19 cycles
 SCF Done:  E(UB3LYP) =  -809.556084791     A.U. after   14 cycles
 SCF Done:  E(UB3LYP) =  -809.556531129     A.U. after   13 cycles
 SCF Done:  E(UB3LYP) =  -809.556580471     A.U. after   14 cycles
 SCF Done:  E(UB3LYP) =  -809.556618183     A.U. after   14 cycles
 SCF Done:  E(UB3LYP) =  -809.556723987     A.U. after   14 cycles
 SCF Done:  E(UB3LYP) =  -809.556892807     A.U. after   14 cycles
 SCF Done:  E(UB3LYP) =  -809.557030495     A.U. after   14 cycles
 SCF Done:  E(UB3LYP) =  -809.557060989     A.U. after   12 cycles
 SCF Done:  E(UB3LYP) =  -809.556982724     A.U. after   14 cycles
 SCF Done:  E(UB3LYP) =  -809.556980062     A.U. after   14 cycles
 SCF Done:  E(UB3LYP) =  -809.556595684     A.U. after   14 cycles
 SCF Done:  E(UB3LYP) =  -809.557067581     A.U. after   14 cycles
 SCF Done:  E(UB3LYP) =  -809.557095758     A.U. after   12 cycles
 SCF Done:  E(UB3LYP) =  -809.557097167     A.U. after   10 cycles
 SCF Done:  E(UB3LYP) =  -809.557106550     A.U. after   11 cycles
 SCF Done:  E(UB3LYP) =  -809.557108877     A.U. after   11 cycles
 SCF Done:  E(UB3LYP) =  -809.557109488     A.U. after   10 cycles
 SCF Done:  E(UB3LYP) =  -809.557109636     A.U. after    9 cycles
 Optimization completed.
    -- Stationary point found.
 Normal termination of Gaussian 16 at Sat Feb 10 13:57:16 2024.

 ----------------------------------------------------------------------
 #P Geom=AllCheck Guess=TCheck SCRF=Check GenChk UB3LYP/6-311++G(d,p) F
 req
 ----------------------------------------------------------------------

 Structure from the checkpoint file:  "036-an.chk"
 -------
 Reduced
 -------
 Charge = -2 Multiplicity = 1

                          Input orientation:
 ---------------------------------------------------------------------
 Center     Atomic      Atomic             Coordinates (Angstroms)
 Number     Number       Type             X           Y           Z
 ---------------------------------------------------------------------
      1          6           0       -3.354561    1.782656    0.187706
      2          6           0       -4.053982    1.245363   -0.924759
      3          6           0       -3.765319   -0.006897   -1.475916
      4          6           0       -2.737998   -0.849121   -0.976645
      5          6           0       -2.013882   -0.316459    0.141609
      6          6           0       -2.310318    0.945173    0.704755
      7          8           0       -3.653197    2.964201    0.701213
      8          8           0       -2.477629   -2.033158   -1.502028
      9          6           0       -1.526948    1.447803    1.899111
     10          6           0       -0.914450   -1.177886    0.732340
     11          6           0        0.517073   -0.828750    0.344880
     12          6           0        0.837082   -0.257960   -0.890844
     13          6           0        1.580069   -1.114716    1.213164
     14          6           0        2.902220   -0.845637    0.863608
     15          6           0        2.161653    0.011093   -1.242035
     16          6           0        3.222154   -0.275300   -0.375896
     17          6           0        4.660289    0.027861   -0.772987
     18          6           0        5.316135    1.056920    0.166203
     19          6           0        5.514141   -1.250190   -0.867778
     20          1           0       -4.855918    1.845107   -1.355302
     21          1           0       -4.346349   -0.364112   -2.325799
     22          1           0       -0.445006    1.438146    1.725153
     23          1           0       -1.700643    0.839659    2.798141
     24          1           0       -1.833891    2.469582    2.126566
     25          1           0       -1.104315   -2.202819    0.393842
     26          1           0       -0.970600   -1.187801    1.826820
     27          1           0        0.037146   -0.016531   -1.582443
     28          1           0        1.367659   -1.552902    2.184639
     29          1           0        3.690664   -1.080604    1.572027
     30          1           0        2.373719    0.455506   -2.210622
     31          1           0        4.624940    0.473400   -1.773586
     32          1           0        4.734842    1.982140    0.206337
     33          1           0        6.325009    1.303984   -0.178381
     34          1           0        5.398526    0.667246    1.185451
     35          1           0        5.074718   -1.967878   -1.565908
     36          1           0        5.602629   -1.740235    0.106699
     37          1           0        6.524588   -1.013215   -1.214874
 ---------------------------------------------------------------------

 SCF Done:  E(UB3LYP) =  -809.557109636     A.U. after    1 cycles

 Alpha  occ. eigenvalues --  -19.00538 -19.00372 -10.17492 -10.17009 -10.16894
 Alpha  occ. eigenvalues --  -10.16451 -10.16362 -10.16230 -10.15883 -10.15722
 Alpha  occ. eigenvalues --  -10.15655 -10.15470 -10.15463 -10.14442 -10.13090
 Alpha  occ. eigenvalues --  -10.12301 -10.12138 -10.11432 -10.11369  -0.90936
 Alpha  occ. eigenvalues --   -0.90471  -0.85418  -0.80238  -0.77928  -0.74545
 Alpha  occ. eigenvalues --   -0.73651  -0.71795  -0.68501  -0.68082  -0.63578
 Alpha  occ. eigenvalues --   -0.62294  -0.60163  -0.59144  -0.55615  -0.52923
 Alpha  occ. eigenvalues --   -0.50858  -0.48509  -0.46540  -0.44615  -0.44011
 Alpha  occ. eigenvalues --   -0.42562  -0.42308  -0.41281  -0.41090  -0.40754
 Alpha  occ. eigenvalues --   -0.39110  -0.38462  -0.38305  -0.37779  -0.36393
 Alpha  occ. eigenvalues --   -0.35565  -0.35100  -0.34847  -0.34150  -0.33825
 Alpha  occ. eigenvalues --   -0.33161  -0.32998  -0.31988  -0.31871  -0.30042
 Alpha  occ. eigenvalues --   -0.29564  -0.29309  -0.24841  -0.22965  -0.21227
 Alpha  occ. eigenvalues --   -0.19575  -0.18673  -0.18320  -0.11187
 Alpha virt. eigenvalues --   -0.00773  -0.00383  -0.00274   0.00618   0.01084
 Alpha virt. eigenvalues --    0.01646   0.01915   0.02355   0.02684   0.02825
 Alpha virt. eigenvalues --    0.03336   0.03978   0.04175   0.04812   0.05046

  Beta  occ. eigenvalues --  -19.00538 -19.00372 -10.17492 -10.17009 -10.16894
  Beta  occ. eigenvalues --  -10.16451 -10.16362 -10.16230 -10.15883 -10.15722
  Beta  occ. eigenvalues --  -10.15655 -10.15470 -10.15463 -10.14442 -10.13090
  Beta  occ. eigenvalues --  -10.12301 -10.12138 -10.11432 -10.11369  -0.90936
  Beta  occ. eigenvalues --   -0.90471  -0.85418  -0.80238  -0.77928  -0.74545
  Beta  occ. eigenvalues --   -0.73651  -0.71795  -0.68501  -0.68082  -0.63578
  Beta  occ. eigenvalues --   -0.62294  -0.60163  -0.59144  -0.55615  -0.52923
  Beta  occ. eigenvalues --   -0.50858  -0.48509  -0.46540  -0.44615  -0.44011
  Beta  occ. eigenvalues --   -0.42562  -0.42308  -0.41281  -0.41090  -0.40754
  Beta  occ. eigenvalues --   -0.39110  -0.38462  -0.38305  -0.37779  -0.36393
  Beta  occ. eigenvalues --   -0.35565  -0.35100  -0.34847  -0.34150  -0.33825
  Beta  occ. eigenvalues --   -0.33161  -0.32998  -0.31988  -0.31871  -0.30042
  Beta  occ. eigenvalues --   -0.29564  -0.29309  -0.24841  -0.22965  -0.21227
  Beta  occ. eigenvalues --   -0.19575  -0.18673  -0.18320  -0.11187
  Beta virt. eigenvalues --   -0.00773  -0.00383  -0.00274   0.00618   0.01084
  Beta virt. eigenvalues --    0.01646   0.01915   0.02355   0.02684   0.02825
  Beta virt. eigenvalues --    0.03336   0.03978   0.04175   0.04812   0.05046

 Mulliken charges and spin densities:
               1          2
     1  C   -0.529587  -0.000000
     2  C   -0.028303   0.000000
     3  C   -0.311924  -0.000000
     4  C   -0.531020   0.000000
     5  C    0.752874   0.000000
     6  C    0.476125  -0.000000
     7  O   -0.774206  -0.000000
     8  O   -0.752135  -0.000000
     9  C   -0.818409  -0.000000
    10  C   -0.228712  -0.000000
    11  C    0.697055  -0.000000
    12  C   -0.591988   0.000000
    13  C   -0.246081  -0.000000
    14  C   -0.558831   0.000000
    15  C   -0.637568   0.000000
    16  C    0.466242  -0.000000
    17  C    0.165292   0.000000
    18  C   -0.687716  -0.000000
    19  C   -0.694197  -0.000000
    20  H    0.125927  -0.000000
    21  H    0.125357  -0.000000
    22  H    0.126142  -0.000000
    23  H    0.141611  -0.000000
    24  H    0.164147   0.000000
    25  H    0.202476  -0.000000
    26  H    0.144888   0.000000
    27  H    0.190239  -0.000000
    28  H    0.176521  -0.000000
    29  H    0.172685  -0.000000
    30  H    0.183772   0.000000
    31  H    0.182377  -0.000000
    32  H    0.141425   0.000000
    33  H    0.153023  -0.000000
    34  H    0.153586  -0.000000
    35  H    0.140833  -0.000000
    36  H    0.154087  -0.000000
    37  H    0.153993  -0.000000
 Sum of Mulliken charges =  -2.00000  -0.00000

 Dipole moment (field-independent basis, Debye):
    X=             28.6045    Y=             -4.4967    Z=              3.8622  Tot=             29.2122
 Quadrupole moment (field-independent basis, Debye-Ang):
   XX=           -215.1697   YY=           -180.8091   ZZ=           -134.0310
   XY=             27.7618   XZ=             -7.9856   YZ=            -23.7833

  Exact polarizability: 366.736 -24.587 307.033  33.285  14.489 307.074
 Approx polarizability: 372.196 -23.911 338.074  37.744   9.708 349.024

                      1                      2                      3
                      A                      A                      A
 Frequencies --     19.5369                36.9519                41.6356
 Red. masses --      3.3149                 4.6977                 3.6073
 Frc consts  --      0.0007                 0.0038                 0.0037
 IR Inten    --      0.6273                 0.9071                 0.4814

                      4                      5                      6
                      A                      A                      A
 Frequencies --     54.0342                85.9295               116.7034
 Red. masses --      4.0091                 3.8909                 1.1184
 Frc consts  --      0.0069                 0.0169                 0.0090
 IR Inten    --      5.9939                 0.1691                 0.8116

                      7                      8                      9
                      A                      A                      A
 Frequencies --    132.0778               143.1208               161.2612
 Red. masses --      4.5783                 4.9733                 3.6233
 Frc consts  --      0.0471                 0.0600                 0.0555
 IR Inten    --     14.3613                18.7863                 2.0814

                     10                     11                     12
                      A                      A                      A
 Frequencies --    200.5225               235.0924               253.0240
 Red. masses --      3.3119                 1.0936                 1.2787
 Frc consts  --      0.0785                 0.0356                 0.0482
 IR Inten    --      0.8198                 0.0265                 0.6340

                     13                     14                     15
                      A                      A                      A
 Frequencies --    260.5031               287.8685               313.0058
 Red. masses --      2.9618                 3.1664                 2.8045
 Frc consts  --      0.1184                 0.1546                 0.1619
 IR Inten    --      3.1372                 6.4557                 2.3414

                     16                     17                     18
                      A                      A                      A
 Frequencies --    330.0908               335.4459               367.8759
 Red. masses --      2.5239                 3.1619                 6.7357
 Frc consts  --      0.1620                 0.2096                 0.5371
 IR Inten    --      7.5426                17.8611                 1.5583

                     19                     20                     21
                      A                      A                      A
 Frequencies --    385.1331               394.3632               419.2353
 Red. masses --      2.9333                 6.4918                 2.9257
 Frc consts  --      0.2563                 0.5949                 0.3030
 IR Inten    --      9.4808                10.3668                 0.1299

                     22                     23                     24
                      A                      A                      A
 Frequencies --    451.5324               484.3995               499.3465
 Red. masses --      3.0866                 9.5815                 4.3176
 Frc consts  --      0.3708                 1.3246                 0.6343
 IR Inten    --      0.5076                 1.9377                 5.6027

                     25                     26                     27
                      A                      A                      A
 Frequencies --    525.9210               544.5719               579.9160
 Red. masses --      3.8177                 2.6606                 3.1736
 Frc consts  --      0.6221                 0.4649                 0.6288
 IR Inten    --      3.7017                24.4560                 8.2854

                     28                     29                     30
                      A                      A                      A
 Frequencies --    599.8744               623.2853               649.8926
 Red. masses --      3.6358                 2.7687                 6.5813
 Frc consts  --      0.7708                 0.6337                 1.6377
 IR Inten    --      7.0273                 5.7679                 0.1183

                     31                     32                     33
                      A                      A                      A
 Frequencies --    688.4991               704.6772               741.5488
 Red. masses --      3.8829                 3.3375                 3.3060
 Frc consts  --      1.0845                 0.9765                 1.0711
 IR Inten    --     13.7283                 5.7695                27.7230

                     34                     35                     36
                      A                      A                      A
 Frequencies --    762.3452               780.6370               806.4051
 Red. masses --      5.7591                 4.4478                 2.1712
 Frc consts  --      1.9720                 1.5969                 0.8319
 IR Inten    --     95.9171               132.4619                74.1781

                     37                     38                     39
                      A                      A                      A
 Frequencies --    821.5370               841.9296               851.5798
 Red. masses --      2.5409                 2.6806                 1.2696
 Frc consts  --      1.0104                 1.1195                 0.5424
 IR Inten    --      9.9700                21.4458                 0.4328

                     40                     41                     42
                      A                      A                      A
 Frequencies --    862.5382               888.2852               894.3422
 Red. masses --      2.2559                 1.3487                 2.5585
 Frc consts  --      0.9888                 0.6270                 1.2057
 IR Inten    --      1.5720                 0.0871                 1.2803

                     43                     44                     45
                      A                      A                      A
 Frequencies --    928.3380               929.6637               958.6300
 Red. masses --      1.4264                 1.3682                 1.5334
 Frc consts  --      0.7243                 0.6967                 0.8302
 IR Inten    --      6.6975                13.1258                 0.0102

                     46                     47                     48
                      A                      A                      A
 Frequencies --    970.3481               985.8138              1030.2430
 Red. masses --      1.3688                 1.3639                 3.1312
 Frc consts  --      0.7594                 0.7810                 1.9581
 IR Inten    --      1.2344                 0.5947                38.7438

                     49                     50                     51
                      A                      A                      A
 Frequencies --   1033.8896              1041.2102              1065.7750
 Red. masses --      2.9293                 1.4866                 1.8703
 Frc consts  --      1.8448                 0.9496                 1.2516
 IR Inten    --     31.4782                 5.0193               103.7702

                     52                     53                     54
                      A                      A                      A
 Frequencies --   1069.7326              1116.7181              1122.6195
 Red. masses --      1.9663                 2.3420                 1.4904
 Frc consts  --      1.3257                 1.7207                 1.1066
 IR Inten    --     92.3151                 2.3276                10.6614

                     55                     56                     57
                      A                      A                      A
 Frequencies --   1155.0487              1166.2013              1175.6271
 Red. masses --      1.5410                 1.8884                 2.3703
 Frc consts  --      1.2113                 1.5132                 1.9302
 IR Inten    --     16.9504                 2.1709                91.4655

                     58                     59                     60
                      A                      A                      A
 Frequencies --   1193.3053              1195.1341              1205.4761
 Red. masses --      1.6049                 3.1312                 1.6694
 Frc consts  --      1.3465                 2.6350                 1.4293
 IR Inten    --     19.0178               157.5468                 7.8402

                     61                     62                     63
                      A                      A                      A
 Frequencies --   1229.7597              1244.2513              1275.2685
 Red. masses --      2.0779                 1.5477                 2.6211
 Frc consts  --      1.8514                 1.4117                 2.5115
 IR Inten    --      7.6825                92.3045               914.8072

                     64                     65                     66
                      A                      A                      A
 Frequencies --   1294.0855              1301.6132              1311.7124
 Red. masses --      3.7915                 5.4391                 1.7636
 Frc consts  --      3.7410                 5.4292                 1.7878
 IR Inten    --    147.8755                30.8401                68.7261

                     67                     68                     69
                      A                      A                      A
 Frequencies --   1342.9240              1350.8911              1373.0640
 Red. masses --      1.3148                 1.8735                 1.5019
 Frc consts  --      1.3970                 2.0144                 1.6683
 IR Inten    --      3.4538                18.7278                12.0054

                     70                     71                     72
                      A                      A                      A
 Frequencies --   1374.3234              1390.6773              1409.6129
 Red. masses --      1.3068                 1.2201                 1.2255
 Frc consts  --      1.4543                 1.3902                 1.4347
 IR Inten    --      2.8551                 6.9967                 4.2257

                     73                     74                     75
                      A                      A                      A
 Frequencies --   1417.5260              1427.5362              1441.6293
 Red. masses --      3.4749                 3.3157                 2.1561
 Frc consts  --      4.1139                 3.9810                 2.6402
 IR Inten    --    410.1283               476.9248                19.8310

                     76                     77                     78
                      A                      A                      A
 Frequencies --   1455.1077              1474.1064              1478.0651
 Red. masses --      1.1690                 1.1246                 1.0431
 Frc consts  --      1.4584                 1.4398                 1.3427
 IR Inten    --     31.9499               136.4474                 0.0031

                     79                     80                     81
                      A                      A                      A
 Frequencies --   1483.6155              1491.5999              1493.2909
 Red. masses --      1.0480                 1.0509                 1.0504
 Frc consts  --      1.3591                 1.3776                 1.3800
 IR Inten    --      4.2746                12.9438                 9.4684

                     82                     83                     84
                      A                      A                      A
 Frequencies --   1496.9701              1518.8924              1535.6433
 Red. masses --      1.0649                 4.4403                 2.3820
 Frc consts  --      1.4060                 6.0356                 3.3096
 IR Inten    --      9.6722                49.5071                59.8746

                     85                     86                     87
                      A                      A                      A
 Frequencies --   1597.3634              1601.8629              1642.6099
 Red. masses --      6.6432                 6.0593                 5.8481
 Frc consts  --      9.9870                 9.1606                 9.2968
 IR Inten    --     13.4419                 0.8424                 6.5336

                     88                     89                     90
                      A                      A                      A
 Frequencies --   2976.4956              3005.0040              3014.0670
 Red. masses --      1.0534                 1.0596                 1.0342
 Frc consts  --      5.4984                 5.6375                 5.5353
 IR Inten    --    146.6757               112.1311                51.6600

                     91                     92                     93
                      A                      A                      A
 Frequencies --   3015.0095              3018.5374              3024.9410
 Red. masses --      1.0840                 1.0349                 1.0854
 Frc consts  --      5.8056                 5.5557                 5.8516
 IR Inten    --     28.6944                56.9702                84.4877

                     94                     95                     96
                      A                      A                      A
 Frequencies --   3041.3896              3074.9261              3079.8006
 Red. masses --      1.0987                 1.1022                 1.1013
 Frc consts  --      5.9881                 6.1402                 6.1545
 IR Inten    --     19.9346                 0.2138               146.3796

                     97                     98                     99
                      A                      A                      A
 Frequencies --   3083.8088              3085.5758              3089.5681
 Red. masses --      1.1024                 1.1016                 1.0834
 Frc consts  --      6.1771                 6.1796                 6.0932
 IR Inten    --     41.5861                72.0147                90.3072

                    100                    101                    102
                      A                      A                      A
 Frequencies --   3102.9022              3114.3381              3139.1709
 Red. masses --      1.0932                 1.0920                 1.0868
 Frc consts  --      6.2015                 6.2403                 6.3099
 IR Inten    --     27.5151               144.7397                33.4631

                    103                    104                    105
                      A                      A                      A
 Frequencies --   3143.6757              3159.9332              3172.5691
 Red. masses --      1.0881                 1.0929                 1.0920
 Frc consts  --      6.3355                 6.4294                 6.4761
 IR Inten    --     21.7255                53.9238                12.7835

 - Thermochemistry -
 -------------------
 Temperature   298.150 Kelvin.  Pressure   1.00000 Atm.
 Atom     1 has atomic number  6 and mass  12.00000

 Molecular mass:   254.13068 amu.
 Principal axes and moments of inertia in atomic units:
                           1         2         3
     Eigenvalues --  2316.45527********************
           X            0.98929   0.13002  -0.06633
           Y           -0.14559   0.84620  -0.51259
           Z           -0.01052   0.51676   0.85607
 This molecule is an asymmetric top.
 Rotational symmetry number  1.
 Warning -- assumption of classical behavior for rotation
           may cause significant error
 Rotational temperatures (Kelvin)      0.03739     0.00841     0.00777
 Rotational constants (GHZ):           0.77910     0.17522     0.16192
 Zero-point vibrational energy     791425.2 (Joules/Mol)
                                  189.15517 (Kcal/Mol)
 Warning -- explicit consideration of  28 degrees of freedom as
           vibrations may cause significant error
 Vibrational temperatures:     28.11    53.17    59.90    77.74   123.63
          (Kelvin)            167.91   190.03   205.92   232.02   288.51
                              338.25   364.05   374.81   414.18   450.35
                              474.93   482.63   529.29   554.12   567.40
                              603.19   649.65   696.94   718.45   756.68
                              783.52   834.37   863.09   896.77   935.05
                              990.60  1013.87  1066.92  1096.84  1123.16
                             1160.24  1182.01  1211.35  1225.23  1241.00
                             1278.04  1286.76  1335.67  1337.58  1379.25
                             1396.11  1418.37  1482.29  1487.54  1498.07
                             1533.41  1539.11  1606.71  1615.20  1661.86
                             1677.90  1691.47  1716.90  1719.53  1734.41
                             1769.35  1790.20  1834.83  1861.90  1872.73
                             1887.26  1932.17  1943.63  1975.53  1977.34
                             2000.87  2028.12  2039.50  2053.91  2074.18
                             2093.58  2120.91  2126.61  2134.59  2146.08
                             2148.51  2153.81  2185.35  2209.45  2298.25
                             2304.72  2363.35  4282.51  4323.53  4336.57
                             4337.93  4343.00  4352.22  4375.88  4424.13
                             4431.15  4436.91  4439.46  4445.20  4464.38
                             4480.84  4516.57  4523.05  4546.44  4564.62

 Zero-point correction=                           0.301438 (Hartree/Particle)
 Thermal correction to Energy=                    0.319443
 Thermal correction to Enthalpy=                  0.320388
 Thermal correction to Gibbs Free Energy=         0.254100
 Sum of electronic and zero-point Energies=           -809.255672
 Sum of electronic and thermal Energies=              -809.237666
 Sum of electronic and thermal Enthalpies=            -809.236722
 Sum of electronic and thermal Free Energies=         -809.303009

                     E (Thermal)             CV                S
                      KCal/Mol        Cal/Mol-Kelvin    Cal/Mol-Kelvin
 Total                  200.454             69.630            139.513
 Electronic               0.000              0.000              0.000
 Translational            0.889              2.981             42.498
 Rotational               0.889              2.981             33.941
 Vibrational            198.676             63.668             63.074
 Vibration     1          0.593              1.986              6.681
 Vibration     2          0.594              1.982              5.416
 Vibration     3          0.594              1.981              5.180
 Vibration     4          0.596              1.976              4.664
 Vibration     5          0.601              1.959              3.751
 Vibration     6          0.608              1.936              3.154
 Vibration     7          0.612              1.921              2.916
 Vibration     8          0.616              1.910              2.762
 Vibration     9          0.622              1.890              2.535
 Vibration    10          0.638              1.839              2.128
 Vibration    11          0.655              1.787              1.840
 Vibration    12          0.664              1.758              1.709
 Vibration    13          0.669              1.745              1.658
 Vibration    14          0.685              1.696              1.486
 Vibration    15          0.701              1.649              1.346
 Vibration    16          0.713              1.615              1.260
 Vibration    17          0.717              1.605              1.234
 Vibration    18          0.740              1.538              1.089
 Vibration    19          0.754              1.502              1.019
 Vibration    20          0.761              1.482              0.984
 Vibration    21          0.782              1.428              0.895
 Vibration    22          0.810              1.358              0.791
 Vibration    23          0.841              1.285              0.698
 Vibration    24          0.855              1.251              0.660
 Vibration    25          0.881              1.193              0.596
 Vibration    26          0.900              1.152              0.556
 Vibration    27          0.937              1.075              0.486
 Vibration    28          0.958              1.032              0.450

                           ! Non-Optimized Parameters !
 Normal termination of Gaussian 16 at Sat Feb 10 15:54:19 2024.
