 Q-Chem 5.4, Q-Chem, Inc., Pleasanton, CA (2021)
 Q-Chem 5.4.0 for Intel X86 EM64T Linux

User input:
--------------------------------------------------------------
$molecule
0 1
C                 -2.4346470000      1.9208130000     -0.0221870000
C                 -1.3162150000      0.9166000000     -0.0006920000
C                 -1.5437490000     -0.4133320000      0.1364030000
C                 -2.9304280000     -0.9766280000      0.2763930000
C                 -0.4163080000     -1.3949710000      0.1546290000
O                 -0.6325150000     -2.5911040000      0.2782180000
C                  0.9752860000     -0.8797150000      0.0186610000
C                  2.0498290000     -1.7724000000      0.0317770000
C                  3.3504210000     -1.2953720000     -0.0946960000
C                  3.5848780000      0.0748070000     -0.2348190000
C                  2.5188180000      0.9683420000     -0.2485640000
C                  1.2105150000      0.4950150000     -0.1219970000
C                  0.0714980000      1.4556710000     -0.1375380000
O                  0.2653830000      2.6558200000     -0.2592580000
H                 -3.1357920000      1.7076890000     -0.8353120000
H                 -3.0084600000      1.8860790000      0.9095750000
H                 -2.0413070000      2.9270240000     -0.1526680000
H                 -2.8934230000     -2.0588040000      0.3847320000
H                 -3.5414250000     -0.7317720000     -0.5984490000
H                 -3.4386860000     -0.5519430000      1.1479090000
H                  1.8454570000     -2.8301970000      0.1415180000
H                  4.1834110000     -1.9891170000     -0.0843980000
H                  4.5996510000      0.4433650000     -0.3331220000
H                  2.6778080000      2.0341270000     -0.3561170000
$end

$rem
BASIS  =  6-311++G(d,p)
GUI  =  2
JOB_TYPE  =  SP
METHOD  =  B3LYP
SCF_CONVERGENCE  = 8
SOLVENT_METHOD = sm12
$end

$smx
solvent dimethylformamide
charges CM5
$end

--------------------------------------------------------------

             Standard Nuclear Orientation (Angstroms)
    I     Atom           X                Y                Z
 ----------------------------------------------------------------
    1      C      -2.4346470000     1.9208130000    -0.0221870000
    2      C      -1.3162150000     0.9166000000    -0.0006920000
    3      C      -1.5437490000    -0.4133320000     0.1364030000
    4      C      -2.9304280000    -0.9766280000     0.2763930000
    5      C      -0.4163080000    -1.3949710000     0.1546290000
    6      O      -0.6325150000    -2.5911040000     0.2782180000
    7      C       0.9752860000    -0.8797150000     0.0186610000
    8      C       2.0498290000    -1.7724000000     0.0317770000
    9      C       3.3504210000    -1.2953720000    -0.0946960000
   10      C       3.5848780000     0.0748070000    -0.2348190000
   11      C       2.5188180000     0.9683420000    -0.2485640000
   12      C       1.2105150000     0.4950150000    -0.1219970000
   13      C       0.0714980000     1.4556710000    -0.1375380000
   14      O       0.2653830000     2.6558200000    -0.2592580000
   15      H      -3.1357920000     1.7076890000    -0.8353120000
   16      H      -3.0084600000     1.8860790000     0.9095750000
   17      H      -2.0413070000     2.9270240000    -0.1526680000
   18      H      -2.8934230000    -2.0588040000     0.3847320000
   19      H      -3.5414250000    -0.7317720000    -0.5984490000
   20      H      -3.4386860000    -0.5519430000     1.1479090000
   21      H       1.8454570000    -2.8301970000     0.1415180000
   22      H       4.1834110000    -1.9891170000    -0.0843980000
   23      H       4.5996510000     0.4433650000    -0.3331220000
   24      H       2.6778080000     2.0341270000    -0.3561170000
 ----------------------------------------------------------------

   14    -613.9168521267      1.94e-09  Convergence criterion met
 Total energy in the final basis set =     -613.9336187014

                    Orbital Energies (a.u.)
 --------------------------------------------------------------

 Alpha MOs
 -- Occupied --
-19.1300 -19.1300 -10.2786 -10.2786 -10.2111 -10.2104 -10.2057 -10.2052
-10.1964 -10.1961 -10.1957 -10.1955 -10.1698 -10.1698  -1.0640  -1.0622
 -0.8883  -0.8504  -0.7872  -0.7761  -0.7464  -0.6994  -0.6759  -0.6308
 -0.6111  -0.5830  -0.5482  -0.5172  -0.4972  -0.4725  -0.4631  -0.4551
 -0.4529  -0.4497  -0.4227  -0.4226  -0.4164  -0.4108  -0.3958  -0.3945
 -0.3849  -0.3751  -0.3677  -0.3657  -0.2886  -0.2870  -0.2768  -0.2708
 -0.2708

          Ground-State Mulliken Net Atomic Charges

     Atom                 Charge (a.u.)
  ----------------------------------------
      1 C                     0.093586
      2 C                     0.958397
      3 C                     0.956020
      4 C                     0.090103
      5 C                    -1.928652
      6 O                    -0.280412
      7 C                    -0.069901
      8 C                    -0.130903
      9 C                     0.223669
     10 C                     0.223959
     11 C                    -0.130257
     12 C                    -0.069332
     13 C                    -1.929536
     14 O                    -0.280195
     15 H                     0.223239
     16 H                     0.224461
     17 H                     0.178160
     18 H                     0.178003
     19 H                     0.224274
     20 H                     0.223631
     21 H                     0.193250
     22 H                     0.317530
     23 H                     0.317577
     24 H                     0.193330
  ----------------------------------------
  Sum of atomic charges =     0.000000

                    Cartesian Multipole Moments
 -----------------------------------------------------------------
    Charge (ESU x 10^10)
                 0.0000
    Dipole Moment (Debye)
         X       0.5233      Y      -0.0916      Z      -0.0254
       Tot       0.5318
    Quadrupole Moments (Debye-Ang)
        XX     -61.0948     XY      -6.1141     YY     -95.1364
        XZ      -0.8218     YZ       1.5216     ZZ     -82.9191

 Total job time:  344.91s(wall), 2679.33s(cpu)
        *  Thank you very much for using Q-Chem.  Have a nice day.  *
