 Q-Chem 5.4, Q-Chem, Inc., Pleasanton, CA (2021)
 Q-Chem 5.4.0 for Intel X86 EM64T Linux

User input:
--------------------------------------------------------------
$molecule
0 1
O                 -4.7056080000     -0.6612140000      0.9823790000
C                 -3.4839300000     -0.2273370000      0.5702630000
C                 -3.4432040000      0.9726380000     -0.1533690000
C                 -2.2287650000      1.4636780000     -0.5988130000
C                 -1.0350800000      0.7770550000     -0.3365170000
C                  0.2502540000      1.3312830000     -0.8290770000
O                  0.2971570000      2.3757570000     -1.4610670000
C                  1.4937280000      0.5600460000     -0.5216820000
C                  2.7236710000      1.0509370000     -0.9685340000
C                  3.8955260000      0.3540640000     -0.6967190000
C                  3.8496780000     -0.8417590000      0.0251700000
C                  2.6315380000     -1.3380650000      0.4737280000
C                  1.4477690000     -0.6435060000      0.2048290000
C                  0.1551420000     -1.1982680000      0.6978070000
O                  0.1073480000     -2.2420110000      1.3287050000
C                 -1.0858830000     -0.4250880000      0.3894720000
C                 -2.3081950000     -0.9232110000      0.8401790000
H                 -4.6173660000     -1.4895740000      1.4669940000
H                 -4.3705600000      1.4961770000     -0.3513760000
H                 -2.1777460000      2.3889410000     -1.1593250000
H                  2.7360580000      1.9792280000     -1.5261490000
H                  4.8466070000      0.7398470000     -1.0459330000
H                  4.7647670000     -1.3834010000      0.2359600000
H                  2.5722320000     -2.2624790000      1.0347710000
H                 -2.3151380000     -1.8537380000      1.3983020000
$end
$rem
MAX_SCF_CYCLES=200
BASIS  =  6-311++G(d,p)
GUI  =  2
JOB_TYPE  =  SP
METHOD  =  B3LYP
SOLVENT_METHOD = COSMO
$end
$solvent
dielectric 37.219
opticaldielectric 1.43
$end

--------------------------------------------------------------

             Standard Nuclear Orientation (Angstroms)
    I     Atom           X                Y                Z
 ----------------------------------------------------------------
    1      O       4.6536418444    -0.7819442381    -0.0003464610
    2      C       3.3908125227    -0.2761299621    -0.0002654286
    3      C       3.2621141213     1.1198208181    -0.0004071252
    4      C       2.0024040269     1.6921259780    -0.0003331456
    5      C       0.8496307496     0.8944744730    -0.0000826146
    6      C      -0.4861931674     1.5405718201     0.0003667871
    7      O      -0.6098437790     2.7559925235     0.0008445281
    8      C      -1.6828812154     0.6442106076     0.0000882761
    9      C      -2.9581507804     1.2161353545    -0.0002076652
   10      C      -4.0880950672     0.4062061454    -0.0005209951
   11      C      -3.9545254219    -0.9849723342    -0.0004696695
   12      C      -2.6907626763    -1.5631527407    -0.0001162750
   13      C      -1.5486375806    -0.7559488551     0.0001576136
   14      C      -0.2055250897    -1.4022626524     0.0003992752
   15      O      -0.0811242486    -2.6164456712     0.0005742198
   16      C       0.9886181989    -0.5039071483     0.0002267318
   17      C       2.2567845858    -1.0844792382     0.0001185340
   18      H       4.6251769471    -1.7452760470     0.0001159573
   19      H       4.1583897360     1.7280798302    -0.0004689697
   20      H       1.8833885344     2.7685662093    -0.0003579164
   21      H      -3.0384694813     2.2961173030    -0.0001465551
   22      H      -5.0746742116     0.8556452799    -0.0007772631
   23      H      -4.8370657450    -1.6145109368    -0.0007596494
   24      H      -2.5634572838    -2.6386159105    -0.0000978431
   25      H       2.3317617326    -2.1669802353     0.0001881500
 ----------------------------------------------------------------

    9    -764.2037858665      3.74e-06  Convergence criterion met
 Total energy in the final basis set =     -764.2037858665
    5    -764.2234527348      3.21e-06  Convergence criterion met
 Total energy in the final basis set =     -764.2234527348

                    Orbital Energies (a.u.)
 --------------------------------------------------------------

 Alpha MOs
 -- Occupied --
-19.1742 -19.1343 -19.1291 -10.2860 -10.2818 -10.2644 -10.2123 -10.2080
-10.2074 -10.2027 -10.1996 -10.1973 -10.1964 -10.1962 -10.1955 -10.1952
-10.1951  -1.0867  -1.0693  -1.0641  -0.8937  -0.8809  -0.8104  -0.7810
 -0.7769  -0.7673  -0.6899  -0.6764  -0.6427  -0.6275  -0.5876  -0.5807
 -0.5618  -0.5300  -0.5102  -0.4941  -0.4861  -0.4630  -0.4581  -0.4565
 -0.4545  -0.4484  -0.4467  -0.4314  -0.4217  -0.4207  -0.4013  -0.3832
 -0.3821  -0.3731  -0.3652  -0.3535  -0.2903  -0.2876  -0.2804  -0.2775
 -0.2769  -0.2546

          Ground-State Mulliken Net Atomic Charges

     Atom                 Charge (a.u.)
  ----------------------------------------
      1 O                    -0.273112
      2 C                    -0.592097
      3 C                    -0.158019
      4 C                     0.199085
      5 C                     0.157868
      6 C                    -0.530734
      7 O                    -0.310961
      8 C                     0.119113
      9 C                     0.176737
     10 C                    -0.444056
     11 C                    -0.413651
     12 C                     0.169232
     13 C                     0.220603
     14 C                    -0.580405
     15 O                    -0.295510
     16 C                     0.430447
     17 C                     0.296191
     18 H                     0.332001
     19 H                     0.250430
     20 H                     0.206802
     21 H                     0.200586
     22 H                     0.225589
     23 H                     0.226707
     24 H                     0.199994
     25 H                     0.187158
  ----------------------------------------
  Sum of atomic charges =     0.000000

                    Cartesian Multipole Moments
 -----------------------------------------------------------------
    Charge (ESU x 10^10)
                 0.0000
    Dipole Moment (Debye)
         X      -0.4053      Y      -1.9376      Z      -0.0022
       Tot       1.9795
    Quadrupole Moments (Debye-Ang)
        XX     -70.7395     XY      -2.5126     YY    -105.7091
        XZ       0.0091     YZ      -0.0040     ZZ     -99.8932

 Total job time:  72.08s(wall), 388.00s(cpu)
        *  Thank you very much for using Q-Chem.  Have a nice day.  *
