 Gaussian 16, Revision A.03,
 Gaussian 16:  ES64L-G16RevA.03 25-Dec-2016

 --------------------------------------
 #P UB3LYP/6-311++G(d,p) nosym opt freq
 --------------------------------------

 --------
 Oxidized
 --------
 Symbolic Z-matrix:
 Charge =  0 Multiplicity = 1

 SCF Done:  E(UB3LYP) =  -764.203906828     A.U. after   16 cycles
 Optimization completed.
    -- Stationary point found.
 Normal termination of Gaussian 16 at Wed Dec 27 19:50:13 2023.

 ----------------------------------------------------------------------
 #P Geom=AllCheck Guess=TCheck SCRF=Check GenChk UB3LYP/6-311++G(d,p) F
 req
 ----------------------------------------------------------------------

 Structure from the checkpoint file:  "178.chk"
 --------
 Oxidized
 --------
 Charge =  0 Multiplicity = 1

                          Input orientation:
 ---------------------------------------------------------------------
 Center     Atomic      Atomic             Coordinates (Angstroms)
 Number     Number       Type             X           Y           Z
 ---------------------------------------------------------------------
      1          8           0       -4.705608   -0.661214    0.982379
      2          6           0       -3.483930   -0.227337    0.570263
      3          6           0       -3.443204    0.972638   -0.153369
      4          6           0       -2.228765    1.463678   -0.598813
      5          6           0       -1.035080    0.777055   -0.336517
      6          6           0        0.250254    1.331283   -0.829077
      7          8           0        0.297157    2.375757   -1.461067
      8          6           0        1.493728    0.560046   -0.521682
      9          6           0        2.723671    1.050937   -0.968534
     10          6           0        3.895526    0.354064   -0.696719
     11          6           0        3.849678   -0.841759    0.025170
     12          6           0        2.631538   -1.338065    0.473728
     13          6           0        1.447769   -0.643506    0.204829
     14          6           0        0.155142   -1.198268    0.697807
     15          8           0        0.107348   -2.242011    1.328705
     16          6           0       -1.085883   -0.425088    0.389472
     17          6           0       -2.308195   -0.923211    0.840179
     18          1           0       -4.617366   -1.489574    1.466994
     19          1           0       -4.370560    1.496177   -0.351376
     20          1           0       -2.177746    2.388941   -1.159325
     21          1           0        2.736058    1.979228   -1.526149
     22          1           0        4.846607    0.739847   -1.045933
     23          1           0        4.764767   -1.383401    0.235960
     24          1           0        2.572232   -2.262479    1.034771
     25          1           0       -2.315138   -1.853738    1.398302
 ---------------------------------------------------------------------

 SCF Done:  E(UB3LYP) =  -764.203906828     A.U. after    1 cycles

 Alpha  occ. eigenvalues --  -19.18292 -19.12986 -19.12311 -10.28190 -10.27648
 Alpha  occ. eigenvalues --  -10.26904 -10.21446 -10.20967 -10.20898 -10.20450
 Alpha  occ. eigenvalues --  -10.20292 -10.20284 -10.20230 -10.20204 -10.20050
 Alpha  occ. eigenvalues --  -10.19996 -10.19877  -1.09582  -1.06388  -1.05691
 Alpha  occ. eigenvalues --   -0.89588  -0.88429  -0.81376  -0.78412  -0.77987
 Alpha  occ. eigenvalues --   -0.77134  -0.69127  -0.68130  -0.64644  -0.63263
 Alpha  occ. eigenvalues --   -0.58950  -0.58640  -0.56515  -0.53425  -0.50939
 Alpha  occ. eigenvalues --   -0.49785  -0.49059  -0.46268  -0.45931  -0.45779
 Alpha  occ. eigenvalues --   -0.45266  -0.45104  -0.44532  -0.43533  -0.42565
 Alpha  occ. eigenvalues --   -0.41492  -0.40534  -0.38727  -0.38569  -0.37791
 Alpha  occ. eigenvalues --   -0.36864  -0.35367  -0.28866  -0.28407  -0.28356
 Alpha  occ. eigenvalues --   -0.27915  -0.27120  -0.25796
 Alpha virt. eigenvalues --   -0.11595  -0.07384  -0.03678  -0.02808  -0.01921
 Alpha virt. eigenvalues --   -0.00820   0.00500   0.01301   0.01732   0.03219
 Alpha virt. eigenvalues --    0.03512   0.03712   0.03781   0.04038   0.04861

  Beta  occ. eigenvalues --  -19.18292 -19.12986 -19.12311 -10.28190 -10.27648
  Beta  occ. eigenvalues --  -10.26904 -10.21446 -10.20967 -10.20898 -10.20450
  Beta  occ. eigenvalues --  -10.20292 -10.20284 -10.20230 -10.20204 -10.20050
  Beta  occ. eigenvalues --  -10.19996 -10.19877  -1.09582  -1.06388  -1.05691
  Beta  occ. eigenvalues --   -0.89588  -0.88429  -0.81376  -0.78412  -0.77987
  Beta  occ. eigenvalues --   -0.77134  -0.69127  -0.68130  -0.64644  -0.63263
  Beta  occ. eigenvalues --   -0.58950  -0.58640  -0.56515  -0.53425  -0.50939
  Beta  occ. eigenvalues --   -0.49785  -0.49059  -0.46268  -0.45931  -0.45779
  Beta  occ. eigenvalues --   -0.45266  -0.45104  -0.44532  -0.43533  -0.42565
  Beta  occ. eigenvalues --   -0.41492  -0.40534  -0.38727  -0.38569  -0.37791
  Beta  occ. eigenvalues --   -0.36864  -0.35367  -0.28866  -0.28407  -0.28356
  Beta  occ. eigenvalues --   -0.27915  -0.27120  -0.25796
  Beta virt. eigenvalues --   -0.11595  -0.07384  -0.03678  -0.02808  -0.01921
  Beta virt. eigenvalues --   -0.00820   0.00500   0.01301   0.01732   0.03219
  Beta virt. eigenvalues --    0.03512   0.03712   0.03781   0.04038   0.04861

 Mulliken charges and spin densities:
               1          2
     1  O   -0.216891   0.000000
     2  C   -0.513536  -0.000000
     3  C   -0.059657   0.000000
     4  C    0.209307   0.000000
     5  C    0.178583  -0.000000
     6  C   -0.655075  -0.000000
     7  O   -0.222399   0.000000
     8  C    0.150093  -0.000000
     9  C    0.162663  -0.000000
    10  C   -0.363875   0.000000
    11  C   -0.341883  -0.000000
    12  C    0.152392  -0.000000
    13  C    0.240495   0.000000
    14  C   -0.695408   0.000000
    15  O   -0.217287  -0.000000
    16  C    0.411273   0.000000
    17  C    0.231700  -0.000000
    18  H    0.276419  -0.000000
    19  H    0.210162   0.000000
    20  H    0.191456   0.000000
    21  H    0.186196   0.000000
    22  H    0.176165   0.000000
    23  H    0.176448   0.000000
    24  H    0.183066  -0.000000
    25  H    0.149594   0.000000
 Sum of Mulliken charges =  -0.00000  -0.00000

 Dipole moment (field-independent basis, Debye):
    X=              0.3728    Y=             -1.1335    Z=              0.6340  Tot=              1.3512
 Quadrupole moment (field-independent basis, Debye-Ang):
   XX=            -78.6503   YY=           -102.3667   ZZ=           -100.0737
   XY=              2.1870   XZ=             -3.9367   YZ=              1.2674

  Exact polarizability: 258.897  -3.911 160.474 -19.765 -46.896 111.904
 Approx polarizability: 376.713   0.826 308.883 -31.085-106.609 198.769

                      1                      2                      3
                      A                      A                      A
 Frequencies --     40.4991                94.9097               117.9351
 Red. masses --      8.2668                 4.8200                 5.2982
 Frc consts  --      0.0080                 0.0256                 0.0434
 IR Inten    --      4.6265                 0.0988                 0.1075

                      4                      5                      6
                      A                      A                      A
 Frequencies --    144.8816               190.9912               197.9556
 Red. masses --      7.5033                 6.1168                 5.8600
 Frc consts  --      0.0928                 0.1315                 0.1353
 IR Inten    --      2.6383                 0.9406                 0.0007

                      7                      8                      9
                      A                      A                      A
 Frequencies --    280.9658               291.5561               332.0034
 Red. masses --      6.5132                 5.0542                 7.9991
 Frc consts  --      0.3029                 0.2531                 0.5195
 IR Inten    --      1.0443                 2.0936                 0.2757

                     10                     11                     12
                      A                      A                      A
 Frequencies --    368.5872               387.3788               400.8688
 Red. masses --      1.1446                 9.9085                 7.9102
 Frc consts  --      0.0916                 0.8761                 0.7489
 IR Inten    --    112.3891                21.4333                 3.3417

                     13                     14                     15
                      A                      A                      A
 Frequencies --    416.4367               444.6681               447.3046
 Red. masses --      3.4454                 3.4761                 5.3089
 Frc consts  --      0.3520                 0.4050                 0.6258
 IR Inten    --      1.7478                 1.2207                11.9671

                     16                     17                     18
                      A                      A                      A
 Frequencies --    456.7067               476.1983               554.6154
 Red. masses --      4.2094                12.0499                 4.5296
 Frc consts  --      0.5173                 1.6099                 0.8209
 IR Inten    --      0.9439                 0.3740                 4.4142

                     19                     20                     21
                      A                      A                      A
 Frequencies --    588.5311               651.0102               666.8313
 Red. masses --      7.0832                 6.8027                 3.8207
 Frc consts  --      1.4455                 1.6987                 1.0010
 IR Inten    --     20.5092                 4.3538                 7.1893

                     22                     23                     24
                      A                      A                      A
 Frequencies --    677.1621               703.5223               720.9810
 Red. masses --      6.9336                 6.6020                 4.6164
 Frc consts  --      1.8733                 1.9252                 1.4139
 IR Inten    --      1.1540                 0.0779                 1.1704

                     25                     26                     27
                      A                      A                      A
 Frequencies --    735.1447               758.9457               796.3058
 Red. masses --      2.2259                 7.1742                 4.5045
 Frc consts  --      0.7088                 2.4347                 1.6829
 IR Inten    --     79.8549                10.6899                 0.0121

                     28                     29                     30
                      A                      A                      A
 Frequencies --    810.3052               863.5063               868.6567
 Red. masses --      1.9122                 1.5310                 6.6776
 Frc consts  --      0.7397                 0.6726                 2.9687
 IR Inten    --      4.2964                22.1987                30.1834

                     31                     32                     33
                      A                      A                      A
 Frequencies --    897.1250               917.2611               943.3412
 Red. masses --      1.4598                 1.3898                 7.1171
 Frc consts  --      0.6922                 0.6890                 3.7316
 IR Inten    --     17.5452                 0.0553                54.1080

                     34                     35                     36
                      A                      A                      A
 Frequencies --    998.9618              1003.2378              1003.8678
 Red. masses --      1.3193                 3.2812                 1.3814
 Frc consts  --      0.7757                 1.9458                 0.8202
 IR Inten    --      0.0480                15.7892                 2.7194

                     37                     38                     39
                      A                      A                      A
 Frequencies --   1018.5342              1057.3462              1104.7562
 Red. masses --      1.3257                 1.9515                 2.4921
 Frc consts  --      0.8103                 1.2855                 1.7921
 IR Inten    --      0.0125                 0.3109                10.5360

                     40                     41                     42
                      A                      A                      A
 Frequencies --   1112.3238              1165.3919              1180.1866
 Red. masses --      2.0789                 1.5800                 1.4072
 Frc consts  --      1.5155                 1.2643                 1.1548
 IR Inten    --      0.4995                17.3523                10.4195

                     43                     44                     45
                      A                      A                      A
 Frequencies --   1187.7940              1195.2324              1235.1278
 Red. masses --      1.4237                 1.6833                 1.7970
 Frc consts  --      1.1835                 1.4168                 1.6151
 IR Inten    --    159.0655                86.9889                10.4587

                     46                     47                     48
                      A                      A                      A
 Frequencies --   1260.1327              1294.5019              1314.1029
 Red. masses --      2.5114                 1.9728                 3.8018
 Frc consts  --      2.3496                 1.9478                 3.8681
 IR Inten    --     26.9576               138.4568               541.7176

                     49                     50                     51
                      A                      A                      A
 Frequencies --   1333.7288              1357.0855              1382.5585
 Red. masses --      2.8454                 7.1955                 5.8135
 Frc consts  --      2.9821                 7.8078                 6.5472
 IR Inten    --    179.8755                56.2617                10.0873

                     52                     53                     54
                      A                      A                      A
 Frequencies --   1470.4336              1483.4685              1503.8479
 Red. masses --      3.1026                 2.6475                 2.6453
 Frc consts  --      3.9525                 3.4327                 3.5248
 IR Inten    --     34.4368                10.0748                 1.1026

                     55                     56                     57
                      A                      A                      A
 Frequencies --   1523.7647              1609.7214              1619.4585
 Red. masses --      3.1594                 6.4073                 6.8623
 Frc consts  --      4.3221                 9.7819                10.6038
 IR Inten    --     17.0241                 0.3168               118.0540

                     58                     59                     60
                      A                      A                      A
 Frequencies --   1628.2510              1633.9702              1714.8462
 Red. masses --      6.1028                 6.2299                12.4898
 Frc consts  --      9.5328                 9.7999                21.6400
 IR Inten    --    137.6942               137.7713                16.8522

                     61                     62                     63
                      A                      A                      A
 Frequencies --   1726.3962              3170.0921              3172.4220
 Red. masses --     12.0088                 1.0870                 1.0906
 Frc consts  --     21.0877                 6.4360                 6.4672
 IR Inten    --    302.8350                 3.3322                 9.6264

                     64                     65                     66
                      A                      A                      A
 Frequencies --   3184.4714              3190.4226              3199.9192
 Red. masses --      1.0918                 1.0886                 1.0925
 Frc consts  --      6.5232                 6.5284                 6.5909
 IR Inten    --     10.3801                 0.5542                 0.3311

                     67                     68                     69
                      A                      A                      A
 Frequencies --   3202.4929              3204.1315              3824.4309
 Red. masses --      1.0949                 1.0948                 1.0662
 Frc consts  --      6.6162                 6.6222                 9.1881
 IR Inten    --     13.1014                 2.7607                97.8547

 - Thermochemistry -
 -------------------
 Temperature   298.150 Kelvin.  Pressure   1.00000 Atm.
 Atom     1 has atomic number  8 and mass  15.99491

 Molecular mass:   224.04734 amu.
 Principal axes and moments of inertia in atomic units:
                           1         2         3
     Eigenvalues --  1702.257935383.118497085.37616
           X            0.99223  -0.06473   0.10624
           Y            0.00137   0.85962   0.51093
           Z           -0.12440  -0.50681   0.85303
 This molecule is an asymmetric top.
 Rotational symmetry number  1.
 Warning -- assumption of classical behavior for rotation
           may cause significant error
 Rotational temperatures (Kelvin)      0.05088     0.01609     0.01222
 Rotational constants (GHZ):           1.06020     0.33526     0.25471
 Zero-point vibrational energy     481559.8 (Joules/Mol)
                                  115.09554 (Kcal/Mol)
 Warning -- explicit consideration of  19 degrees of freedom as
           vibrations may cause significant error
 Vibrational temperatures:     58.27   136.55   169.68   208.45   274.79
          (Kelvin)            284.81   404.25   419.48   477.68   530.31
                              557.35   576.76   599.16   639.78   643.57
                              657.10   685.14   797.97   846.76   936.66
                              959.42   974.29  1012.21  1037.33  1057.71
                             1091.95  1145.71  1165.85  1242.39  1249.80
                             1290.76  1319.73  1357.26  1437.28  1443.44
                             1444.34  1465.44  1521.29  1589.50  1600.39
                             1676.74  1698.03  1708.97  1719.67  1777.07
                             1813.05  1862.50  1890.70  1918.94  1952.54
                             1989.19  2115.63  2134.38  2163.70  2192.36
                             2316.03  2330.04  2342.69  2350.92  2467.28
                             2483.90  4561.06  4564.41  4581.74  4590.31
                             4603.97  4607.67  4610.03  5502.50

 Zero-point correction=                           0.183416 (Hartree/Particle)
 Thermal correction to Energy=                    0.195874
 Thermal correction to Enthalpy=                  0.196818
 Thermal correction to Gibbs Free Energy=         0.144416
 Sum of electronic and zero-point Energies=           -764.020490
 Sum of electronic and thermal Energies=              -764.008033
 Sum of electronic and thermal Enthalpies=            -764.007088
 Sum of electronic and thermal Free Energies=         -764.059490

                     E (Thermal)             CV                S
                      KCal/Mol        Cal/Mol-Kelvin    Cal/Mol-Kelvin
 Total                  122.913             50.347            110.289
 Electronic               0.000              0.000              0.000
 Translational            0.889              2.981             42.123
 Rotational               0.889              2.981             32.540
 Vibrational            121.135             44.386             35.627
 Vibration     1          0.594              1.981              5.235
 Vibration     2          0.603              1.953              3.556
 Vibration     3          0.608              1.934              3.134
 Vibration     4          0.616              1.908              2.738
 Vibration     5          0.634              1.852              2.218
 Vibration     6          0.637              1.843              2.152
 Vibration     7          0.681              1.709              1.528
 Vibration     8          0.687              1.689              1.465
 Vibration     9          0.714              1.612              1.250
 Vibration    10          0.741              1.537              1.086
 Vibration    11          0.756              1.497              1.010
 Vibration    12          0.767              1.468              0.959
 Vibration    13          0.780              1.435              0.904
 Vibration    14          0.804              1.373              0.812
 Vibration    15          0.806              1.367              0.804
 Vibration    16          0.815              1.346              0.776
 Vibration    17          0.833              1.303              0.720
 Vibration    18          0.910              1.130              0.535
 Vibration    19          0.946              1.056              0.470

 Optimization completed.
    -- Stationary point found.
 Normal termination of Gaussian 16 at Wed Dec 27 20:53:37 2023.
