 Gaussian 16, Revision A.03,
 Gaussian 16:  ES64L-G16RevA.03 25-Dec-2016

 --------------------------------------
 #P UB3LYP/6-311++G(d,p) nosym opt freq
 --------------------------------------

 -------
 Reduced
 -------
 Symbolic Z-matrix:
 Charge = -3 Multiplicity = 1

 SCF Done:  E(UB3LYP) =  -1312.15773805     A.U. after   42 cycles
 Optimization completed.
    -- Stationary point found.
 Normal termination of Gaussian 16 at Sun Jan  7 07:12:00 2024.

 ----------------------------------------------------------------------
 #P Geom=AllCheck Guess=TCheck SCRF=Check GenChk UB3LYP/6-311++G(d,p) F
 req
 ----------------------------------------------------------------------

 Structure from the checkpoint file:  "223-an.chk"
 -------
 Reduced
 -------
 Charge = -3 Multiplicity = 1

                          Input orientation:
 ---------------------------------------------------------------------
 Center     Atomic      Atomic             Coordinates (Angstroms)
 Number     Number       Type             X           Y           Z
 ---------------------------------------------------------------------
      1          6           0        2.752744    0.573817    0.206504
      2          6           0        2.697326   -0.608033    0.989211
      3          6           0        1.497701   -1.262348    1.157538
      4          6           0       -0.938708   -1.542897    0.790138
      5          8           0       -0.973962   -2.604759    1.500105
      6          6           0       -2.118545   -1.004819    0.135525
      7          6           0       -3.360138   -1.678979    0.262181
      8          6           0       -4.519671   -1.202002   -0.317009
      9          6           0       -4.481413    0.000168   -1.071456
     10          6           0       -3.281135    0.667591   -1.229423
     11          6           0       -2.072867    0.197015   -0.660183
     12          6           0       -0.838436    0.943983   -0.881204
     13          8           0       -0.807800    2.001265   -1.584186
     14          6           0        0.351264    0.397324   -0.228645
     15          6           0        1.602568    1.056127   -0.383620
     16          1           0        3.606893   -0.983989    1.445099
     17          1           0        1.432335   -2.168295    1.751700
     18          1           0       -3.360088   -2.593486    0.846675
     19          1           0       -5.462112   -1.736809   -0.197774
     20          1           0       -5.395117    0.384172   -1.524055
     21          1           0       -3.221888    1.585887   -1.804893
     22          1           0        1.633952    1.956211   -0.984644
     23          6           0        0.293764   -0.797704    0.567828
     24         16           0        4.367993    1.406755    0.032466
     25          8           0        5.290559    0.374737   -0.541566
     26          8           0        4.155367    2.572629   -0.872613
     27          8           0        4.769498    1.804159    1.420311
 ---------------------------------------------------------------------

 SCF Done:  E(UB3LYP) =  -1312.15773805     A.U. after    4 cycles

 Alpha  occ. eigenvalues --  -88.71921 -18.76394 -18.76300 -18.76287 -18.74291
 Alpha  occ. eigenvalues --  -18.74279  -9.89996  -9.89774  -9.87654  -9.87092
 Alpha  occ. eigenvalues --   -9.87013  -9.86659  -9.86644  -9.86631  -9.86149
 Alpha  occ. eigenvalues --   -9.85970  -9.85630  -9.85611  -9.85570  -9.85531
 Alpha  occ. eigenvalues --   -7.77777  -5.74052  -5.74042  -5.73950  -0.77685
 Alpha  occ. eigenvalues --   -0.66310  -0.65878  -0.64240  -0.63832  -0.54541
 Alpha  occ. eigenvalues --   -0.53867  -0.47095  -0.44091  -0.43833  -0.42705
 Alpha  occ. eigenvalues --   -0.35337  -0.33461  -0.31136  -0.28178  -0.26382
 Alpha  occ. eigenvalues --   -0.24153  -0.21895  -0.20392  -0.16636  -0.15435
 Alpha  occ. eigenvalues --   -0.15271  -0.14343  -0.12467  -0.11950  -0.11871
 Alpha  occ. eigenvalues --   -0.11389  -0.10010  -0.09471  -0.08959  -0.08306
 Alpha  occ. eigenvalues --   -0.07317  -0.05554  -0.04485  -0.04069  -0.03529
 Alpha  occ. eigenvalues --   -0.02196  -0.01748  -0.00496  -0.00427   0.02762
 Alpha  occ. eigenvalues --    0.03290   0.03442   0.05164   0.06170   0.06311
 Alpha  occ. eigenvalues --    0.07345   0.07468   0.08261   0.08999   0.18960
 Alpha virt. eigenvalues --    0.20564   0.22236   0.24740   0.25696   0.25920
 Alpha virt. eigenvalues --    0.26680   0.28026   0.28583   0.29234   0.30381
 Alpha virt. eigenvalues --    0.31300   0.31501   0.32262   0.32843   0.33067

  Beta  occ. eigenvalues --  -88.71921 -18.76394 -18.76300 -18.76287 -18.74291
  Beta  occ. eigenvalues --  -18.74279  -9.89996  -9.89774  -9.87654  -9.87092
  Beta  occ. eigenvalues --   -9.87013  -9.86659  -9.86644  -9.86631  -9.86149
  Beta  occ. eigenvalues --   -9.85970  -9.85630  -9.85611  -9.85570  -9.85531
  Beta  occ. eigenvalues --   -7.77777  -5.74052  -5.74042  -5.73950  -0.77685
  Beta  occ. eigenvalues --   -0.66310  -0.65878  -0.64240  -0.63832  -0.54541
  Beta  occ. eigenvalues --   -0.53867  -0.47095  -0.44091  -0.43833  -0.42705
  Beta  occ. eigenvalues --   -0.35337  -0.33461  -0.31136  -0.28178  -0.26382
  Beta  occ. eigenvalues --   -0.24153  -0.21895  -0.20392  -0.16636  -0.15435
  Beta  occ. eigenvalues --   -0.15271  -0.14343  -0.12467  -0.11950  -0.11871
  Beta  occ. eigenvalues --   -0.11389  -0.10010  -0.09471  -0.08959  -0.08306
  Beta  occ. eigenvalues --   -0.07317  -0.05554  -0.04485  -0.04069  -0.03529
  Beta  occ. eigenvalues --   -0.02196  -0.01748  -0.00496  -0.00427   0.02762
  Beta  occ. eigenvalues --    0.03290   0.03442   0.05164   0.06170   0.06311
  Beta  occ. eigenvalues --    0.07345   0.07468   0.08261   0.08999   0.18960
  Beta virt. eigenvalues --    0.20564   0.22236   0.24740   0.25696   0.25920
  Beta virt. eigenvalues --    0.26680   0.28026   0.28583   0.29234   0.30381
  Beta virt. eigenvalues --    0.31300   0.31501   0.32262   0.32843   0.33067

 Mulliken charges and spin densities:
               1          2
     1  C   -1.012800   0.000000
     2  C   -0.666832  -0.000000
     3  C   -0.222496  -0.000000
     4  C   -0.528122  -0.000000
     5  O   -0.462411  -0.000000
     6  C    1.075054  -0.000000
     7  C   -0.753409  -0.000000
     8  C    1.484882  -0.000000
     9  C    1.634496  -0.000000
    10  C   -1.349106   0.000000
    11  C    0.487924  -0.000000
    12  C   -1.095786  -0.000000
    13  O   -0.432763  -0.000000
    14  C    0.735712  -0.000000
    15  C    0.231994   0.000000
    16  H    0.148913   0.000000
    17  H    0.119542  -0.000000
    18  H    0.228228   0.000000
    19  H   -1.905637   0.000000
    20  H   -1.569355   0.000000
    21  H    0.251707  -0.000000
    22  H    0.209415   0.000000
    23  C    0.823395  -0.000000
    24  S    0.674796  -0.000000
    25  O   -0.368257  -0.000000
    26  O   -0.389253  -0.000000
    27  O   -0.349829  -0.000000
 Sum of Mulliken charges =  -3.00000  -0.00000

 Dipole moment (field-independent basis, Debye):
    X=              2.1643    Y=             -2.8158    Z=              3.0513  Tot=              4.6822
 Quadrupole moment (field-independent basis, Debye-Ang):
   XX=           -436.0756   YY=           -201.2728   ZZ=           -168.7610
   XY=            -62.8483   XZ=            -24.0520   YZ=             14.4498

  Exact polarizability:1720.945 149.3101096.808 254.926-453.361 488.964
 Approx polarizability:8114.790 803.0041055.0331313.014-254.382 704.376

                      1                      2                      3
                      A                      A                      A
 Frequencies --     12.3700                39.5328                81.1946
 Red. masses --     12.8294                 8.4129                 6.9596
 Frc consts  --      0.0012                 0.0077                 0.0270
 IR Inten    --      1.7877                 9.9435                 0.7436

                      4                      5                      6
                      A                      A                      A
 Frequencies --    106.3651               128.6677               156.4182
 Red. masses --      9.9622                 4.5428                 5.7495
 Frc consts  --      0.0664                 0.0443                 0.0829
 IR Inten    --      3.8031                 0.3608                 3.7461

                      7                      8                      9
                      A                      A                      A
 Frequencies --    179.2864               207.0105               225.7133
 Red. masses --      9.8062                12.6303                 7.9820
 Frc consts  --      0.1857                 0.3189                 0.2396
 IR Inten    --     25.8273                 0.3104                 0.0719

                     10                     11                     12
                      A                      A                      A
 Frequencies --    260.4849               285.7320               336.4901
 Red. masses --      6.3362                 8.1006                 6.9609
 Frc consts  --      0.2533                 0.3897                 0.4644
 IR Inten    --     24.7835                 0.2317                 8.3827

                     13                     14                     15
                      A                      A                      A
 Frequencies --    370.4235               374.7372               402.4298
 Red. masses --     10.6587                 7.5965                 7.7730
 Frc consts  --      0.8617                 0.6285                 0.7417
 IR Inten    --     60.2797                 4.9923               243.1563

                     16                     17                     18
                      A                      A                      A
 Frequencies --    420.8751               424.5899               449.2413
 Red. masses --      5.7573                 3.8850                 8.3604
 Frc consts  --      0.6009                 0.4126                 0.9941
 IR Inten    --     10.3982                13.2881               280.2599

                     19                     20                     21
                      A                      A                      A
 Frequencies --    468.6657               490.6880               492.8736
 Red. masses --      3.2995                 8.0433                10.5161
 Frc consts  --      0.4270                 1.1410                 1.5051
 IR Inten    --      4.0351                15.3964               136.1276

                     22                     23                     24
                      A                      A                      A
 Frequencies --    519.1383               556.4607               602.7464
 Red. masses --     14.3357                 6.3631                11.3815
 Frc consts  --      2.2763                 1.1609                 2.4362
 IR Inten    --     26.2308                12.0919               386.4267

                     25                     26                     27
                      A                      A                      A
 Frequencies --    631.3568               642.8381               651.8542
 Red. masses --      7.0916                 4.4110                 7.6029
 Frc consts  --      1.6655                 1.0740                 1.9034
 IR Inten    --     23.3553                 5.0845               188.2512

                     28                     29                     30
                      A                      A                      A
 Frequencies --    691.3639               705.3435               720.3030
 Red. masses --      6.5715                 7.9708                 3.9616
 Frc consts  --      1.8507                 2.3364                 1.2110
 IR Inten    --     14.9492                65.0857                 0.9081

                     31                     32                     33
                      A                      A                      A
 Frequencies --    721.3655               794.7250               821.7047
 Red. masses --      5.3768                 1.8469                 3.1890
 Frc consts  --      1.6485                 0.6873                 1.2686
 IR Inten    --      0.9968                 8.1757                22.3953

                     34                     35                     36
                      A                      A                      A
 Frequencies --    821.8464               869.1609               893.8613
 Red. masses --      6.5172                 1.4384                 1.5618
 Frc consts  --      2.5935                 0.6402                 0.7352
 IR Inten    --     93.8097                29.4567                73.0230

                     37                     38                     39
                      A                      A                      A
 Frequencies --    926.8384               939.7907               948.7291
 Red. masses --      6.3873                10.0521                 1.2990
 Frc consts  --      3.2328                 5.2308                 0.6889
 IR Inten    --     48.5633               555.1108                 1.2487

                     40                     41                     42
                      A                      A                      A
 Frequencies --    969.0954               977.9099              1002.9316
 Red. masses --      1.3454                 7.2611                 1.2396
 Frc consts  --      0.7444                 4.0912                 0.7346
 IR Inten    --      6.9387               393.5588                10.0347

                     43                     44                     45
                      A                      A                      A
 Frequencies --   1018.6534              1063.5627              1098.1813
 Red. masses --      2.0850                 2.2212                 1.9519
 Frc consts  --      1.2747                 1.4803                 1.3869
 IR Inten    --    136.2857               526.5221               290.8138

                     46                     47                     48
                      A                      A                      A
 Frequencies --   1102.2212              1108.3758              1114.4738
 Red. masses --      1.3267                17.6228                 2.0494
 Frc consts  --      0.9496                12.7555                 1.4998
 IR Inten    --    992.6266               475.3869                89.0016

                     49                     50                     51
                      A                      A                      A
 Frequencies --   1132.3295              1140.5155              1163.9338
 Red. masses --      2.0409                 3.4014                 4.4913
 Frc consts  --      1.5418                 2.6068                 3.5849
 IR Inten    --     50.1307               220.7287               814.7450

                     52                     53                     54
                      A                      A                      A
 Frequencies --   1185.5590              1206.3000              1215.9043
 Red. masses --      1.9064                 1.7941                 2.1991
 Frc consts  --      1.5787                 1.5382                 1.9155
 IR Inten    --     23.7378                29.6573                 7.0061

                     55                     56                     57
                      A                      A                      A
 Frequencies --   1246.3242              1322.0479              1337.5672
 Red. masses --      1.9406                 2.2940                 9.6236
 Frc consts  --      1.7760                 2.3623                10.1442
 IR Inten    --    160.8233                49.2537               702.7993

                     58                     59                     60
                      A                      A                      A
 Frequencies --   1347.8951              1388.6448              1441.9141
 Red. masses --      9.5816                 2.8716                 3.4625
 Frc consts  --     10.2565                 3.2625                 4.2415
 IR Inten    --    107.7766               235.5483               289.2361

                     61                     62                     63
                      A                      A                      A
 Frequencies --   1459.9145              1471.3513              1477.4711
 Red. masses --      3.2450                 5.3931                 3.2176
 Frc consts  --      4.0749                 6.8789                 4.1383
 IR Inten    --    439.7206               675.5570              1244.0025

                     64                     65                     66
                      A                      A                      A
 Frequencies --   1498.6698              1530.9883              1560.7822
 Red. masses --      5.1696                 5.3657                 7.4588
 Frc consts  --      6.8410                 7.4100                10.7054
 IR Inten    --    681.7792               115.7742              2502.9233

                     67                     68                     69
                      A                      A                      A
 Frequencies --   1592.7040              1599.9813              3090.9914
 Red. masses --      5.3142                 6.3050                 1.0855
 Frc consts  --      7.9425                 9.5096                 6.1107
 IR Inten    --    137.2993               123.2673              1170.1797

                     70                     71                     72
                      A                      A                      A
 Frequencies --   3113.7231              3150.9847              3158.4140
 Red. masses --      1.0915                 1.0849                 1.0902
 Frc consts  --      6.2347                 6.3463                 6.4073
 IR Inten    --    128.9505                 2.4836                 2.2040

                     73                     74                     75
                      A                      A                      A
 Frequencies --   3160.3139              3171.0538              3201.4058
 Red. masses --      1.0905                 1.0934                 1.0887
 Frc consts  --      6.4173                 6.4782                 6.5744
 IR Inten    --     32.4786                82.4152                 4.0207

 - Thermochemistry -
 -------------------
 Temperature   298.150 Kelvin.  Pressure   1.00000 Atm.
 Atom     1 has atomic number  6 and mass  12.00000

 Molecular mass:   287.00142 amu.
 Principal axes and moments of inertia in atomic units:
                           1         2         3
     Eigenvalues --  2177.47343********************
           X            0.96555  -0.17727  -0.19049
           Y            0.25437   0.79725   0.54744
           Z            0.05482  -0.57704   0.81488
 This molecule is an asymmetric top.
 Rotational symmetry number  1.
 Warning -- assumption of classical behavior for rotation
           may cause significant error
 Rotational temperatures (Kelvin)      0.03978     0.00793     0.00679
 Rotational constants (GHZ):           0.82882     0.16523     0.14157
 Zero-point vibrational energy     467717.8 (Joules/Mol)
                                  111.78723 (Kcal/Mol)
 Warning -- explicit consideration of  24 degrees of freedom as
           vibrations may cause significant error
 Vibrational temperatures:     17.80    56.88   116.82   153.04   185.12
          (Kelvin)            225.05   257.95   297.84   324.75   374.78
                              411.10   484.13   532.96   539.16   579.01
                              605.55   610.89   646.36   674.31   705.99
                              709.14   746.92   800.62   867.22   908.38
                              924.90   937.87   994.72  1014.83  1036.36
                             1037.88  1143.43  1182.25  1182.45  1250.53
                             1286.07  1333.51  1352.15  1365.01  1394.31
                             1406.99  1442.99  1465.62  1530.23  1580.04
                             1585.85  1594.71  1603.48  1629.17  1640.95
                             1674.64  1705.76  1735.60  1749.42  1793.18
                             1902.13  1924.46  1939.32  1997.95  2074.59
                             2100.49  2116.95  2125.75  2156.25  2202.75
                             2245.62  2291.55  2302.02  4447.25  4479.95
                             4533.56  4544.25  4546.99  4562.44  4606.11

 Zero-point correction=                           0.178144 (Hartree/Particle)
 Thermal correction to Energy=                    0.193409
 Thermal correction to Enthalpy=                  0.194354
 Thermal correction to Gibbs Free Energy=         0.133824
 Sum of electronic and zero-point Energies=          -1311.979594
 Sum of electronic and thermal Energies=             -1311.964329
 Sum of electronic and thermal Enthalpies=           -1311.963384
 Sum of electronic and thermal Free Energies=        -1312.023914

                     E (Thermal)             CV                S
                      KCal/Mol        Cal/Mol-Kelvin    Cal/Mol-Kelvin
 Total                  121.366             60.144            127.395
 Electronic               0.000              0.000              0.000
 Translational            0.889              2.981             42.861
 Rotational               0.889              2.981             34.071
 Vibrational            119.589             54.183             50.463
 Vibration     1          0.593              1.987              7.588
 Vibration     2          0.594              1.981              5.282
 Vibration     3          0.600              1.962              3.862
 Vibration     4          0.605              1.944              3.334
 Vibration     5          0.611              1.925              2.966
 Vibration     6          0.620              1.895              2.593
 Vibration     7          0.629              1.868              2.336
 Vibration     8          0.641              1.830              2.070
 Vibration     9          0.650              1.802              1.913
 Vibration    10          0.669              1.745              1.659
 Vibration    11          0.684              1.700              1.499
 Vibration    12          0.717              1.603              1.229
 Vibration    13          0.742              1.533              1.078
 Vibration    14          0.746              1.524              1.060
 Vibration    15          0.768              1.465              0.954
 Vibration    16          0.783              1.425              0.889
 Vibration    17          0.787              1.417              0.877
 Vibration    18          0.808              1.363              0.798
 Vibration    19          0.826              1.320              0.741
 Vibration    20          0.846              1.271              0.682
 Vibration    21          0.849              1.266              0.676
 Vibration    22          0.874              1.208              0.612
 Vibration    23          0.912              1.126              0.531
 Vibration    24          0.961              1.026              0.445

 Optimization completed.
    -- Stationary point found.
 Normal termination of Gaussian 16 at Sun Jan  7 09:07:58 2024.
