 Q-Chem 5.4, Q-Chem, Inc., Pleasanton, CA (2021)
 Q-Chem 5.4.0 for Intel X86 EM64T Linux

User input:
--------------------------------------------------------------
$molecule
-3 1
C                  2.7527440000      0.5738170000      0.2065040000
C                  2.6973260000     -0.6080330000      0.9892110000
C                  1.4977010000     -1.2623480000      1.1575380000
C                 -0.9387080000     -1.5428970000      0.7901380000
O                 -0.9739620000     -2.6047590000      1.5001050000
C                 -2.1185450000     -1.0048190000      0.1355250000
C                 -3.3601380000     -1.6789790000      0.2621810000
C                 -4.5196710000     -1.2020020000     -0.3170090000
C                 -4.4814130000      0.0001680000     -1.0714560000
C                 -3.2811350000      0.6675910000     -1.2294230000
C                 -2.0728670000      0.1970150000     -0.6601830000
C                 -0.8384360000      0.9439830000     -0.8812040000
O                 -0.8078000000      2.0012650000     -1.5841860000
C                  0.3512640000      0.3973240000     -0.2286450000
C                  1.6025680000      1.0561270000     -0.3836200000
H                  3.6068930000     -0.9839890000      1.4450990000
H                  1.4323350000     -2.1682950000      1.7517000000
H                 -3.3600880000     -2.5934860000      0.8466750000
H                 -5.4621120000     -1.7368090000     -0.1977740000
H                 -5.3951170000      0.3841720000     -1.5240550000
H                 -3.2218880000      1.5858870000     -1.8048930000
H                  1.6339520000      1.9562110000     -0.9846440000
C                  0.2937640000     -0.7977040000      0.5678280000
S                  4.3679930000      1.4067550000      0.0324660000
O                  5.2905590000      0.3747370000     -0.5415660000
O                  4.1553670000      2.5726290000     -0.8726130000
O                  4.7694980000      1.8041590000      1.4203110000
$end
$rem
MAX_SCF_CYCLES=200
BASIS  =  6-311++G(d,p)
GUI  =  2
JOB_TYPE  =  SP
METHOD  =  B3LYP
SOLVENT_METHOD = COSMO
$end
$solvent
dielectric 37.219
opticaldielectric 1.43
$end

--------------------------------------------------------------

             Standard Nuclear Orientation (Angstroms)
    I     Atom           X                Y                Z
 ----------------------------------------------------------------
    1      C       2.2197258973     0.1971754354     0.0066744116
    2      C       1.9166347217     1.5830331755     0.0044634524
    3      C       0.6035329788     1.9968757947    -0.0033043018
    4      C      -1.8428771569     1.5909983674    -0.0142714700
    5      O      -2.1007535353     2.8425272610    -0.0189719544
    6      C      -2.8870370386     0.5812579162     0.0004194466
    7      C      -4.2480858182     0.9797400319     0.0294857241
    8      C      -5.2834850386     0.0657690732     0.0199760485
    9      C      -4.9902606073    -1.3229880815    -0.0152327245
   10      C      -3.6726513223    -1.7412229888    -0.0229557915
   11      C      -2.5891273917    -0.8297319867     0.0004440821
   12      C      -1.2223164639    -1.3419962699     0.0071194938
   13      O      -0.9696405584    -2.5866335551     0.0077513956
   14      C      -0.1708855773    -0.3248891204     0.0006745150
   15      C       1.1940657816    -0.7257505812     0.0049431339
   16      H       2.7284684496     2.3023129553     0.0116402737
   17      H       0.3487391264     3.0519206039    -0.0046106177
   18      H      -4.4423509185     2.0472863037     0.0531990100
   19      H      -6.3210180911     0.3999908729     0.0358349395
   20      H      -5.8038919251    -2.0475138376    -0.0302804412
   21      H      -3.4195998515    -2.7964153633    -0.0448070480
   22      H       1.4141500310    -1.7858994906     0.0085796333
   23      C      -0.4784780221     1.0790732895    -0.0059474161
   24      S       3.9788270618    -0.2913219834     0.0005397218
   25      O       4.5794296382     0.3609623160     1.2086389113
   26      O       4.0117191979    -1.7809520115     0.0602095027
   27      O       4.5469628246     0.2597716593    -1.2717682206
 ----------------------------------------------------------------

   31   -1312.1577638989      2.76e-06  Convergence criterion met
 Total energy in the final basis set =    -1312.1577638989
    6   -1312.6753979060      4.68e-06  Convergence criterion met
 Total energy in the final basis set =    -1312.6753979060

                    Orbital Energies (a.u.)
 --------------------------------------------------------------

 Alpha MOs
 -- Occupied --
-89.0383 -19.0866 -19.0842 -19.0841 -19.0290 -19.0253 -10.1827 -10.1780
-10.1743 -10.1580 -10.1542 -10.1509 -10.1504 -10.1499 -10.1483 -10.1478
-10.1425 -10.1401 -10.1397 -10.1390  -8.0972  -6.0601  -6.0600  -6.0584
 -1.0992  -0.9661  -0.9613  -0.9542  -0.9471  -0.8355  -0.8258  -0.7587
 -0.7314  -0.7243  -0.7152  -0.6436  -0.6263  -0.6009  -0.5730  -0.5598
 -0.5291  -0.5066  -0.5036  -0.4653  -0.4527  -0.4480  -0.4408  -0.4338
 -0.4277  -0.4082  -0.4004  -0.3904  -0.3863  -0.3782  -0.3762  -0.3627
 -0.3489  -0.3343  -0.3318  -0.3303  -0.3301  -0.3209  -0.3160  -0.3054
 -0.2900  -0.2877  -0.2811  -0.2519  -0.2392  -0.2316  -0.2300  -0.2203
 -0.2103  -0.2020  -0.1083

          Ground-State Mulliken Net Atomic Charges

     Atom                 Charge (a.u.)
  ----------------------------------------
      1 C                    -1.061202
      2 C                    -0.705422
      3 C                    -0.296905
      4 C                    -0.376177
      5 O                    -0.687584
      6 C                     0.303219
      7 C                     0.008673
      8 C                    -0.534656
      9 C                    -0.521468
     10 C                     0.001495
     11 C                     0.235086
     12 C                    -0.713254
     13 O                    -0.660587
     14 C                     0.509127
     15 C                     0.262858
     16 H                     0.219228
     17 H                     0.157108
     18 H                     0.157492
     19 H                     0.180489
     20 H                     0.180778
     21 H                     0.156181
     22 H                     0.193604
     23 C                     0.495657
     24 S                     0.821592
     25 O                    -0.436137
     26 O                    -0.463768
     27 O                    -0.425427
  ----------------------------------------
  Sum of atomic charges =    -3.000000

                    Cartesian Multipole Moments
 -----------------------------------------------------------------
    Charge (ESU x 10^10)
               -14.4096
    Dipole Moment (Debye)
         X     -11.1260      Y       1.0243      Z       0.0542
       Tot      11.1732
    Quadrupole Moments (Debye-Ang)
        XX    -286.3095     XY      19.4039     YY    -191.4498
        XZ      -0.0814     YZ       0.4232     ZZ    -145.2881

 Total job time:  177.31s(wall), 1383.10s(cpu)
        *  Thank you very much for using Q-Chem.  Have a nice day.  *
