 Gaussian 16, Revision A.03,
 Gaussian 16:  ES64L-G16RevA.03 25-Dec-2016

 --------------------------------------
 #P UB3LYP/6-311++G(d,p) nosym opt freq
 --------------------------------------

 -------
 Radical
 -------
 Symbolic Z-matrix:
 Charge = -1 Multiplicity = 2

 SCF Done:  E(UB3LYP) =  -965.446285521     A.U. after   24 cycles
 Optimization completed.
    -- Stationary point found.
 Normal termination of Gaussian 16 at Sun Jan  7 20:37:36 2024.

 ----------------------------------------------------------------------
 #P Geom=AllCheck Guess=TCheck SCRF=Check GenChk UB3LYP/6-311++G(d,p) F
 req
 ----------------------------------------------------------------------

 Structure from the checkpoint file:  "251-rad.chk"
 -------
 Radical
 -------
 Charge = -1 Multiplicity = 2

                          Input orientation:
 ---------------------------------------------------------------------
 Center     Atomic      Atomic             Coordinates (Angstroms)
 Number     Number       Type             X           Y           Z
 ---------------------------------------------------------------------
      1          6           0        3.091632   -2.489716   -2.357602
      2          6           0        2.662917   -3.571024   -3.106868
      3          6           0        1.342250   -3.607573   -3.596388
      4          6           0        2.225768   -1.415180   -2.072132
      5          6           0        0.897223   -1.452482   -2.565154
      6          6           0        0.477747   -2.561726   -3.325980
      7          6           0        2.709805   -0.279846   -1.271560
      8          6           0        1.762787    0.788065   -1.014239
      9          6           0        0.464712    0.753201   -1.510893
     10          6           0       -0.040745   -0.354558   -2.292360
     11          8           0        3.895201   -0.253708   -0.837298
     12          8           0       -1.228130   -0.385029   -2.722945
     13          1           0        3.342745   -4.391553   -3.318036
     14          1           0        1.004687   -4.456004   -4.184790
     15          6           0        2.263543    1.945636   -0.183391
     16          1           0        4.101677   -2.434246   -1.967978
     17          1           0       -0.544086   -2.561785   -3.688062
     18          1           0        2.326039    2.871447   -0.770554
     19          1           0        3.263362    1.713130    0.183796
     20          1           0        1.606681    2.148172    0.668836
     21          6           0       -0.524314    1.878642   -1.250693
     22          6           0       -1.379337    1.609527   -0.037516
     23          6           0       -1.610015    2.386461    1.030784
     24          6           0       -2.495456    1.886989    2.156130
     25          6           0       -1.049407    3.776497    1.217886
     26          6           0       -1.721925    1.511624    3.446272
     27          6           0       -2.634259    1.090128    4.563702
     28          6           0       -2.742368   -0.109260    5.151561
     29          6           0       -1.916548   -1.319970    4.795600
     30          6           0       -3.743480   -0.342405    6.258275
     31          1           0       -1.190269    1.923740   -2.119947
     32          1           0       -0.006045    2.835478   -1.170122
     33          1           0       -1.864069    0.635469   -0.066253
     34          1           0       -3.051497    1.006971    1.820039
     35          1           0       -3.242981    2.653110    2.409847
     36          1           0       -0.410641    4.084598    0.390728
     37          1           0       -0.457531    3.854640    2.137665
     38          1           0       -1.862033    4.510055    1.305849
     39          1           0       -1.140975    2.380946    3.778925
     40          1           0       -0.996024    0.733922    3.201076
     41          1           0       -3.306413    1.873611    4.916867
     42          1           0       -1.215032   -1.138386    3.982706
     43          1           0       -2.565309   -2.152619    4.498120
     44          1           0       -1.344339   -1.666423    5.665255
     45          1           0       -4.317936    0.559576    6.481690
     46          1           0       -3.244283   -0.666441    7.180346
     47          1           0       -4.448995   -1.138721    5.989808
 ---------------------------------------------------------------------

 SCF Done:  E(UB3LYP) =  -965.446285521     A.U. after    2 cycles

 Alpha  occ. eigenvalues --  -18.94136 -18.94117 -10.10764 -10.10222 -10.09503
 Alpha  occ. eigenvalues --  -10.09143 -10.08945 -10.08840 -10.08810 -10.08327
 Alpha  occ. eigenvalues --  -10.07600 -10.07432 -10.06091 -10.05622 -10.05573
 Alpha  occ. eigenvalues --  -10.05260 -10.04849 -10.04822 -10.04628 -10.04581
 Alpha  occ. eigenvalues --  -10.04468 -10.04301 -10.03863  -0.86632  -0.86347
 Alpha  occ. eigenvalues --   -0.74978  -0.73430  -0.72482  -0.69640  -0.67186
 Alpha  occ. eigenvalues --   -0.64000  -0.62779  -0.62681  -0.62287  -0.60376
 Alpha  occ. eigenvalues --   -0.57971  -0.55366  -0.53211  -0.51748  -0.47957
 Alpha  occ. eigenvalues --   -0.46541  -0.44875  -0.43004  -0.41872  -0.39991
 Alpha  occ. eigenvalues --   -0.39353  -0.38120  -0.37009  -0.36883  -0.36265
 Alpha  occ. eigenvalues --   -0.34478  -0.33999  -0.33079  -0.32654  -0.32227
 Alpha  occ. eigenvalues --   -0.31899  -0.30524  -0.30272  -0.30246  -0.29889
 Alpha  occ. eigenvalues --   -0.29455  -0.28495  -0.28279  -0.27895  -0.27696
 Alpha  occ. eigenvalues --   -0.27111  -0.26468  -0.26120  -0.25505  -0.24977
 Alpha  occ. eigenvalues --   -0.24282  -0.23726  -0.22971  -0.22256  -0.21581
 Alpha  occ. eigenvalues --   -0.21179  -0.17064  -0.14212  -0.13634  -0.13251
 Alpha  occ. eigenvalues --   -0.11858  -0.11189  -0.10115  -0.02041
 Alpha virt. eigenvalues --    0.04908   0.06559   0.07076   0.07363   0.08355
 Alpha virt. eigenvalues --    0.08409   0.08820   0.09042   0.09927   0.10151
 Alpha virt. eigenvalues --    0.10265   0.10482   0.10538   0.10990   0.11288

  Beta  occ. eigenvalues --  -18.93504 -18.93443 -10.10763 -10.10222 -10.09503
  Beta  occ. eigenvalues --  -10.09143 -10.08945 -10.08703 -10.08681 -10.08327
  Beta  occ. eigenvalues --  -10.07600 -10.07428 -10.06079 -10.05585 -10.05536
  Beta  occ. eigenvalues --  -10.05270 -10.04855 -10.04829 -10.04563 -10.04516
  Beta  occ. eigenvalues --  -10.04306 -10.04168 -10.03876  -0.85526  -0.85190
  Beta  occ. eigenvalues --   -0.74977  -0.73235  -0.72461  -0.69321  -0.67080
  Beta  occ. eigenvalues --   -0.63821  -0.62777  -0.62530  -0.62112  -0.60375
  Beta  occ. eigenvalues --   -0.57769  -0.55261  -0.52677  -0.51563  -0.47874
  Beta  occ. eigenvalues --   -0.46191  -0.44871  -0.42796  -0.41815  -0.39981
  Beta  occ. eigenvalues --   -0.39219  -0.38039  -0.36892  -0.36841  -0.36209
  Beta  occ. eigenvalues --   -0.34424  -0.33764  -0.33050  -0.32558  -0.32224
  Beta  occ. eigenvalues --   -0.31814  -0.30486  -0.30242  -0.30032  -0.29704
  Beta  occ. eigenvalues --   -0.29190  -0.28468  -0.28144  -0.27645  -0.27302
  Beta  occ. eigenvalues --   -0.26495  -0.26348  -0.25886  -0.25373  -0.24866
  Beta  occ. eigenvalues --   -0.24080  -0.22977  -0.21551  -0.21240  -0.21036
  Beta  occ. eigenvalues --   -0.20952  -0.17059  -0.13807  -0.12635  -0.11855
  Beta  occ. eigenvalues --   -0.10625  -0.10423  -0.09528
  Beta virt. eigenvalues --    0.04580   0.04907   0.06558   0.07077   0.07364
  Beta virt. eigenvalues --    0.08351   0.08413   0.08835   0.09631   0.09966
  Beta virt. eigenvalues --    0.10170   0.10279   0.10536   0.10898   0.11137

 Mulliken charges and spin densities:
               1          2
     1  C    0.042534   0.019913
     2  C   -0.407675   0.027571
     3  C   -0.372311   0.027902
     4  C    0.050725   0.014719
     5  C    0.254999   0.024469
     6  C   -0.025250   0.020801
     7  C   -0.920226   0.073656
     8  C    0.826880   0.114980
     9  C    0.904742   0.109237
    10  C   -1.056766   0.070439
    11  O   -0.381214   0.249356
    12  O   -0.365062   0.236239
    13  H    0.116626  -0.002410
    14  H    0.121920  -0.002378
    15  C   -0.569664   0.000929
    16  H    0.164372  -0.002266
    17  H    0.159716  -0.002080
    18  H    0.146289   0.007308
    19  H    0.193154  -0.002318
    20  H    0.152050   0.005189
    21  C   -0.011811  -0.002039
    22  C   -0.692921  -0.016808
    23  C    0.781397   0.027488
    24  C   -0.680606   0.001172
    25  C   -0.737570  -0.002095
    26  C   -0.226241   0.000493
    27  C    0.053944  -0.000269
    28  C    0.291953   0.000227
    29  C   -0.648850  -0.000024
    30  C   -0.624200  -0.000014
    31  H    0.208926   0.003438
    32  H    0.152946  -0.000245
    33  H    0.215040  -0.002875
    34  H    0.166728   0.000046
    35  H    0.107514  -0.000031
    36  H    0.120981   0.000186
    37  H    0.135874   0.000145
    38  H    0.132245   0.000014
    39  H    0.120235   0.000052
    40  H    0.123688  -0.000269
    41  H    0.158317  -0.000013
    42  H    0.152637   0.000138
    43  H    0.132614   0.000002
    44  H    0.125483   0.000005
    45  H    0.140955   0.000004
    46  H    0.127747   0.000005
    47  H    0.137139   0.000014
 Sum of Mulliken charges =  -1.00000   1.00000

 Dipole moment (field-independent basis, Debye):
    X=             -5.4681    Y=              2.0428    Z=              7.4966  Tot=              9.5011
 Quadrupole moment (field-independent basis, Debye-Ang):
   XX=           -186.5896   YY=           -152.2715   ZZ=           -174.7464
   XY=              5.9659   XZ=              6.1343   YZ=             -9.7892

  Exact polarizability: 287.385 -30.059 317.669 -19.754  57.699 273.882
 Approx polarizability: 477.460 -26.609 466.446  40.012  74.384 371.771

                      1                      2                      3
                      A                      A                      A
 Frequencies --     11.2523                16.5877                23.0825
 Red. masses --      4.7097                 5.2341                 2.7725
 Frc consts  --      0.0004                 0.0008                 0.0009
 IR Inten    --      0.3625                 0.5251                 0.0279

                      4                      5                      6
                      A                      A                      A
 Frequencies --     36.6517                47.8432                59.3717
 Red. masses --      3.7961                 3.2850                 3.7060
 Frc consts  --      0.0030                 0.0044                 0.0077
 IR Inten    --      0.7966                 0.4345                 3.2616

                      7                      8                      9
                      A                      A                      A
 Frequencies --     83.4740                86.4622               103.8946
 Red. masses --      2.9583                 2.7932                 2.1494
 Frc consts  --      0.0121                 0.0123                 0.0137
 IR Inten    --      4.6457                 2.1076                 0.4587

                     10                     11                     12
                      A                      A                      A
 Frequencies --    124.1532               135.4481               141.4568
 Red. masses --      1.1664                 1.7796                 1.0756
 Frc consts  --      0.0106                 0.0192                 0.0127
 IR Inten    --      0.1640                 0.2278                 0.1948

                     13                     14                     15
                      A                      A                      A
 Frequencies --    145.6514               169.2266               188.3409
 Red. masses --      2.5215                 3.1080                 2.5268
 Frc consts  --      0.0315                 0.0524                 0.0528
 IR Inten    --      0.2891                 0.7228                 0.7232

                     16                     17                     18
                      A                      A                      A
 Frequencies --    205.0545               212.7756               259.8933
 Red. masses --      1.7729                 2.6291                 3.6312
 Frc consts  --      0.0439                 0.0701                 0.1445
 IR Inten    --      0.0709                 1.0389                 2.7305

                     19                     20                     21
                      A                      A                      A
 Frequencies --    262.9971               289.6570               304.2260
 Red. masses --      4.2337                 2.8023                 3.2614
 Frc consts  --      0.1725                 0.1385                 0.1778
 IR Inten    --      0.9781                 1.2472                 0.3507

                     22                     23                     24
                      A                      A                      A
 Frequencies --    330.1478               352.8051               360.2216
 Red. masses --      2.7803                 3.6368                 2.3202
 Frc consts  --      0.1786                 0.2667                 0.1774
 IR Inten    --      0.4641                 0.1656                 3.3471

                     25                     26                     27
                      A                      A                      A
 Frequencies --    388.4088               392.6818               398.7113
 Red. masses --      7.6204                 2.7849                 2.6214
 Frc consts  --      0.6773                 0.2530                 0.2455
 IR Inten    --     12.8998                 0.0420                 1.5321

                     28                     29                     30
                      A                      A                      A
 Frequencies --    423.3303               429.0245               444.7126
 Red. masses --      3.9994                 5.4222                 3.3485
 Frc consts  --      0.4223                 0.5880                 0.3902
 IR Inten    --      0.9753                 4.4046                 0.7801

                     31                     32                     33
                      A                      A                      A
 Frequencies --    460.4430               473.8781               496.4242
 Red. masses --      2.8932                 3.8568                 2.8744
 Frc consts  --      0.3614                 0.5103                 0.4173
 IR Inten    --      5.1380                 0.6386                 1.1337

                     34                     35                     36
                      A                      A                      A
 Frequencies --    513.1757               535.4587               563.7496
 Red. masses --      5.1555                 3.7078                 4.0766
 Frc consts  --      0.7999                 0.6264                 0.7633
 IR Inten    --      0.9915                 6.4657                 4.4122

                     37                     38                     39
                      A                      A                      A
 Frequencies --    587.1137               639.0064               674.2321
 Red. masses --      2.5995                 4.6156                 5.2004
 Frc consts  --      0.5279                 1.1104                 1.3929
 IR Inten    --     10.1813                16.0447                 1.9787

                     40                     41                     42
                      A                      A                      A
 Frequencies --    679.7461               689.7532               713.8768
 Red. masses --      4.6036                 3.6495                 3.1018
 Frc consts  --      1.2533                 1.0230                 0.9314
 IR Inten    --      0.5809                20.6540                34.8824

                     43                     44                     45
                      A                      A                      A
 Frequencies --    753.2329               777.8647               792.1138
 Red. masses --      1.5951                 1.7623                 3.7827
 Frc consts  --      0.5332                 0.6283                 1.3984
 IR Inten    --      2.5033                25.1764                 0.3174

                     46                     47                     48
                      A                      A                      A
 Frequencies --    808.2153               809.9839               829.7104
 Red. masses --      2.0826                 2.8180                 2.9523
 Frc consts  --      0.8015                 1.0893                 1.1975
 IR Inten    --      1.0613                 1.1541                 1.0311

                     49                     50                     51
                      A                      A                      A
 Frequencies --    857.3027               873.9500               875.0487
 Red. masses --      1.7682                 1.4852                 1.8026
 Frc consts  --      0.7657                 0.6684                 0.8132
 IR Inten    --     15.7539                 0.1029                 3.0957

                     52                     53                     54
                      A                      A                      A
 Frequencies --    920.8568               958.2648               965.2287
 Red. masses --      2.3392                 1.4561                 2.4802
 Frc consts  --      1.1687                 0.7878                 1.3615
 IR Inten    --      6.3380                 0.4325                18.0373

                     55                     56                     57
                      A                      A                      A
 Frequencies --    968.3835               979.2180               982.2822
 Red. masses --      1.6907                 1.3659                 1.2548
 Frc consts  --      0.9341                 0.7717                 0.7133
 IR Inten    --      0.6225                 2.6670                 0.0148

                     58                     59                     60
                      A                      A                      A
 Frequencies --    989.8615              1005.8648              1013.8151
 Red. masses --      3.1044                 3.1821                 1.4314
 Frc consts  --      1.7922                 1.8969                 0.8668
 IR Inten    --      7.6593                 2.5194                 2.3248

                     61                     62                     63
                      A                      A                      A
 Frequencies --   1018.4231              1034.5960              1039.8126
 Red. masses --      1.5737                 2.0047                 1.9156
 Frc consts  --      0.9617                 1.2643                 1.2203
 IR Inten    --     12.1545                 2.3463                12.9050

                     64                     65                     66
                      A                      A                      A
 Frequencies --   1045.1324              1064.2579              1078.6258
 Red. masses --      1.5797                 1.5878                 2.1044
 Frc consts  --      1.0166                 1.0596                 1.4425
 IR Inten    --      2.1592                 3.7834                 4.8263

                     67                     68                     69
                      A                      A                      A
 Frequencies --   1100.6284              1102.0955              1109.2123
 Red. masses --      1.7106                 2.1060                 2.0538
 Frc consts  --      1.2209                 1.5071                 1.4888
 IR Inten    --      1.7787                16.3096                18.7960

                     70                     71                     72
                      A                      A                      A
 Frequencies --   1128.7223              1145.3219              1161.7789
 Red. masses --      2.0844                 1.4842                 1.9094
 Frc consts  --      1.5646                 1.1471                 1.5184
 IR Inten    --     10.4111                 4.1496                 6.4129

                     73                     74                     75
                      A                      A                      A
 Frequencies --   1171.1414              1190.7650              1212.9537
 Red. masses --      1.6867                 2.0010                 2.0984
 Frc consts  --      1.3630                 1.6717                 1.8190
 IR Inten    --     28.6921                 6.8992                 4.3540

                     76                     77                     78
                      A                      A                      A
 Frequencies --   1233.6620              1242.3156              1260.4702
 Red. masses --      2.9900                 1.8974                 1.6844
 Frc consts  --      2.6811                 1.7254                 1.5768
 IR Inten    --     20.5943                 1.4102                15.5229

                     79                     80                     81
                      A                      A                      A
 Frequencies --   1274.3291              1283.1059              1306.6719
 Red. masses --      1.8424                 1.4413                 1.2445
 Frc consts  --      1.7628                 1.3981                 1.2519
 IR Inten    --     19.7936                 0.6465                 3.7930

                     82                     83                     84
                      A                      A                      A
 Frequencies --   1312.3942              1354.0794              1357.0521
 Red. masses --      1.2793                 1.4186                10.3213
 Frc consts  --      1.2983                 1.5325                11.1990
 IR Inten    --      3.1779                 2.9866                 6.8969

                     85                     86                     87
                      A                      A                      A
 Frequencies --   1376.5644              1381.4460              1383.8074
 Red. masses --      1.3554                 1.3281                 1.3075
 Frc consts  --      1.5133                 1.4933                 1.4751
 IR Inten    --     11.5443                 4.7663                 0.6819

                     88                     89                     90
                      A                      A                      A
 Frequencies --   1402.0212              1406.6277              1411.1156
 Red. masses --      2.6835                 1.3446                 1.3495
 Frc consts  --      3.1078                 1.5674                 1.5832
 IR Inten    --     57.1628                 5.8960                 9.0081

                     91                     92                     93
                      A                      A                      A
 Frequencies --   1419.0714              1452.3580              1469.2945
 Red. masses --      1.2814                 1.4145                 1.6097
 Frc consts  --      1.5204                 1.7579                 2.0474
 IR Inten    --      2.5315                97.8039                30.2417

                     94                     95                     96
                      A                      A                      A
 Frequencies --   1471.8881              1472.4668              1475.7192
 Red. masses --      2.0191                 1.1314                 1.0982
 Frc consts  --      2.5773                 1.4453                 1.4091
 IR Inten    --     45.3354                 5.3382                 7.3257

                     97                     98                     99
                      A                      A                      A
 Frequencies --   1482.4048              1485.7922              1489.9715
 Red. masses --      1.1613                 1.3287                 1.1239
 Frc consts  --      1.5036                 1.7282                 1.4700
 IR Inten    --      3.0490                 2.8099                 2.7894

                    100                    101                    102
                      A                      A                      A
 Frequencies --   1491.2397              1492.0406              1495.4346
 Red. masses --      1.0963                 1.0522                 1.0757
 Frc consts  --      1.4364                 1.3801                 1.4174
 IR Inten    --      9.9299                 7.5765                 6.7781

                    103                    104                    105
                      A                      A                      A
 Frequencies --   1501.6284              1502.1533              1512.1780
 Red. masses --      1.0887                 1.0908                 3.7974
 Frc consts  --      1.4463                 1.4502                 5.1162
 IR Inten    --      6.4032                 6.5610                 9.7171

                    106                    107                    108
                      A                      A                      A
 Frequencies --   1521.5692              1544.6378              1613.0536
 Red. masses --      5.3098                 5.3364                 8.1603
 Frc consts  --      7.2428                 7.5016                12.5099
 IR Inten    --    415.3156                32.2484                 5.5900

                    109                    110                    111
                      A                      A                      A
 Frequencies --   1626.6088              1709.7637              1724.8186
 Red. masses --      5.9906                 6.6038                 6.3564
 Frc consts  --      9.3387                11.3740                11.1416
 IR Inten    --      4.8703                 4.3544                 0.3686

                    112                    113                    114
                      A                      A                      A
 Frequencies --   2974.3094              2990.3515              2993.4182
 Red. masses --      1.0688                 1.0492                 1.0469
 Frc consts  --      5.5709                 5.5279                 5.5270
 IR Inten    --     55.9164                83.4973                84.8464

                    115                    116                    117
                      A                      A                      A
 Frequencies --   2993.8613              3004.1378              3006.2483
 Red. masses --      1.0387                 1.0453                 1.0682
 Frc consts  --      5.4855                 5.5580                 5.6880
 IR Inten    --     61.2058                81.2063                12.1613

                    118                    119                    120
                      A                      A                      A
 Frequencies --   3019.6534              3030.3539              3031.4496
 Red. masses --      1.0648                 1.0929                 1.0990
 Frc consts  --      5.7207                 5.9131                 5.9505
 IR Inten    --     35.9811                34.3479                22.3039

                    121                    122                    123
                      A                      A                      A
 Frequencies --   3039.0380              3041.8913              3054.9949
 Red. masses --      1.0982                 1.0887                 1.0886
 Frc consts  --      5.9759                 5.9355                 5.9863
 IR Inten    --     31.3081                41.6677                20.2171

                    124                    125                    126
                      A                      A                      A
 Frequencies --   3078.5942              3082.1475              3086.4871
 Red. masses --      1.0902                 1.0942                 1.0977
 Frc consts  --      6.0880                 6.1244                 6.1613
 IR Inten    --      6.1304                19.6076                 5.4898

                    127                    128                    129
                      A                      A                      A
 Frequencies --   3096.2301              3112.3329              3117.3301
 Red. masses --      1.0901                 1.0956                 1.0918
 Frc consts  --      6.1573                 6.2530                 6.2514
 IR Inten    --     78.7156                 8.1801                24.5898

                    130                    131                    132
                      A                      A                      A
 Frequencies --   3127.0871              3127.9041              3131.2733
 Red. masses --      1.0932                 1.0884                 1.0846
 Frc consts  --      6.2982                 6.2739                 6.2657
 IR Inten    --     25.8325                13.9886                16.1520

                    133                    134                    135
                      A                      A                      A
 Frequencies --   3150.7652              3180.8670              3183.4401
 Red. masses --      1.0913                 1.0912                 1.0927
 Frc consts  --      6.3833                 6.5052                 6.5242
 IR Inten    --     55.9329                11.6262                28.2710

 - Thermochemistry -
 -------------------
 Temperature   298.150 Kelvin.  Pressure   1.00000 Atm.
 Atom     1 has atomic number  6 and mass  12.00000

 Molecular mass:   308.17763 amu.
 Principal axes and moments of inertia in atomic units:
                           1         2         3
     Eigenvalues --  4979.37010********************
           X           -0.52534   0.08270   0.84686
           Y            0.30102   0.94897   0.09407
           Z            0.79586  -0.30434   0.52343
 This molecule is an asymmetric top.
 Rotational symmetry number  1.
 Warning -- assumption of classical behavior for rotation
           may cause significant error
 Rotational temperatures (Kelvin)      0.01739     0.00542     0.00501
 Rotational constants (GHZ):           0.36244     0.11303     0.10437
 Zero-point vibrational energy    1027669.9 (Joules/Mol)
                                  245.61900 (Kcal/Mol)
 Warning -- explicit consideration of  37 degrees of freedom as
           vibrations may cause significant error
 Vibrational temperatures:     16.19    23.87    33.21    52.73    68.84
          (Kelvin)             85.42   120.10   124.40   149.48   178.63
                              194.88   203.52   209.56   243.48   270.98
                              295.03   306.14   373.93   378.39   416.75
                              437.71   475.01   507.61   518.28   558.83
                              564.98   573.66   609.08   617.27   639.84
                              662.47   681.80   714.24   738.35   770.41
                              811.11   844.73   919.39   970.07   978.00
                              992.40  1027.11  1083.73  1119.17  1139.68
                             1162.84  1165.39  1193.77  1233.47  1257.42
                             1259.00  1324.91  1378.73  1388.75  1393.29
                             1408.88  1413.29  1424.19  1447.22  1458.65
                             1465.28  1488.55  1496.06  1503.71  1531.23
                             1551.90  1583.56  1585.67  1595.91  1623.98
                             1647.86  1671.54  1685.01  1713.25  1745.17
                             1774.96  1787.42  1813.54  1833.48  1846.10
                             1880.01  1888.24  1948.22  1952.50  1980.57
                             1987.59  1990.99  2017.20  2023.82  2030.28
                             2041.73  2089.62  2113.99  2117.72  2118.55
                             2123.23  2132.85  2137.72  2143.74  2145.56
                             2146.71  2151.60  2160.51  2161.26  2175.69
                             2189.20  2222.39  2320.82  2340.33  2459.97
                             2481.63  4279.37  4302.45  4306.86  4307.50
                             4322.28  4325.32  4344.61  4360.00  4361.58
                             4372.50  4376.60  4395.46  4429.41  4434.52
                             4440.77  4454.78  4477.95  4485.14  4499.18
                             4500.36  4505.20  4533.25  4576.56  4580.26

 Zero-point correction=                           0.391419 (Hartree/Particle)
 Thermal correction to Energy=                    0.415109
 Thermal correction to Enthalpy=                  0.416053
 Thermal correction to Gibbs Free Energy=         0.334062
 Sum of electronic and zero-point Energies=           -965.054867
 Sum of electronic and thermal Energies=              -965.031177
 Sum of electronic and thermal Enthalpies=            -965.030232
 Sum of electronic and thermal Free Energies=         -965.112224

                     E (Thermal)             CV                S
                      KCal/Mol        Cal/Mol-Kelvin    Cal/Mol-Kelvin
 Total                  260.485             88.772            172.566
 Electronic               0.000              0.000              1.377
 Translational            0.889              2.981             43.073
 Rotational               0.889              2.981             35.573
 Vibrational            258.707             82.810             92.542
 Vibration     1          0.593              1.987              7.777
 Vibration     2          0.593              1.986              7.006
 Vibration     3          0.593              1.985              6.350
 Vibration     4          0.594              1.982              5.432
 Vibration     5          0.595              1.978              4.905
 Vibration     6          0.597              1.974              4.478
 Vibration     7          0.600              1.961              3.807
 Vibration     8          0.601              1.959              3.739
 Vibration     9          0.605              1.946              3.380
 Vibration    10          0.610              1.929              3.035
 Vibration    11          0.613              1.918              2.867
 Vibration    12          0.615              1.912              2.784
 Vibration    13          0.617              1.907              2.728
 Vibration    14          0.625              1.880              2.444
 Vibration    15          0.633              1.856              2.244
 Vibration    16          0.640              1.833              2.087
 Vibration    17          0.644              1.821              2.020
 Vibration    18          0.668              1.746              1.662
 Vibration    19          0.670              1.741              1.642
 Vibration    20          0.686              1.693              1.476
 Vibration    21          0.695              1.666              1.394
 Vibration    22          0.713              1.615              1.259
 Vibration    23          0.729              1.570              1.154
 Vibration    24          0.735              1.554              1.121
 Vibration    25          0.757              1.495              1.006
 Vibration    26          0.760              1.486              0.990
 Vibration    27          0.765              1.473              0.967
 Vibration    28          0.785              1.420              0.881
 Vibration    29          0.790              1.407              0.862
 Vibration    30          0.804              1.373              0.812
 Vibration    31          0.818              1.338              0.765
 Vibration    32          0.831              1.308              0.727
 Vibration    33          0.852              1.258              0.667
 Vibration    34          0.868              1.221              0.626
 Vibration    35          0.890              1.172              0.575
 Vibration    36          0.920              1.110              0.516
 Vibration    37          0.944              1.059              0.472

 Optimization completed on the basis of negligible forces.
    -- Stationary point found.
 Normal termination of Gaussian 16 at Mon Jan  8 03:57:59 2024.
