 Q-Chem 5.4, Q-Chem, Inc., Pleasanton, CA (2021)
 Q-Chem 5.4.0 for Intel X86 EM64T Linux

User input:
--------------------------------------------------------------
$molecule
-1 2
C                  3.0916320000     -2.4897160000     -2.3576020000
C                  2.6629170000     -3.5710240000     -3.1068680000
C                  1.3422500000     -3.6075730000     -3.5963880000
C                  2.2257680000     -1.4151800000     -2.0721320000
C                  0.8972230000     -1.4524820000     -2.5651540000
C                  0.4777470000     -2.5617260000     -3.3259800000
C                  2.7098050000     -0.2798460000     -1.2715600000
C                  1.7627870000      0.7880650000     -1.0142390000
C                  0.4647120000      0.7532010000     -1.5108930000
C                 -0.0407450000     -0.3545580000     -2.2923600000
O                  3.8952010000     -0.2537080000     -0.8372980000
O                 -1.2281300000     -0.3850290000     -2.7229450000
H                  3.3427450000     -4.3915530000     -3.3180360000
H                  1.0046870000     -4.4560040000     -4.1847900000
C                  2.2635430000      1.9456360000     -0.1833910000
H                  4.1016770000     -2.4342460000     -1.9679780000
H                 -0.5440860000     -2.5617850000     -3.6880620000
H                  2.3260390000      2.8714470000     -0.7705540000
H                  3.2633620000      1.7131300000      0.1837960000
H                  1.6066810000      2.1481720000      0.6688360000
C                 -0.5243140000      1.8786420000     -1.2506930000
C                 -1.3793370000      1.6095270000     -0.0375160000
C                 -1.6100150000      2.3864610000      1.0307840000
C                 -2.4954560000      1.8869890000      2.1561300000
C                 -1.0494070000      3.7764970000      1.2178860000
C                 -1.7219250000      1.5116240000      3.4462720000
C                 -2.6342590000      1.0901280000      4.5637020000
C                 -2.7423680000     -0.1092600000      5.1515610000
C                 -1.9165480000     -1.3199700000      4.7956000000
C                 -3.7434800000     -0.3424050000      6.2582750000
H                 -1.1902690000      1.9237400000     -2.1199470000
H                 -0.0060450000      2.8354780000     -1.1701220000
H                 -1.8640690000      0.6354690000     -0.0662530000
H                 -3.0514970000      1.0069710000      1.8200390000
H                 -3.2429810000      2.6531100000      2.4098470000
H                 -0.4106410000      4.0845980000      0.3907280000
H                 -0.4575310000      3.8546400000      2.1376650000
H                 -1.8620330000      4.5100550000      1.3058490000
H                 -1.1409750000      2.3809460000      3.7789250000
H                 -0.9960240000      0.7339220000      3.2010760000
H                 -3.3064130000      1.8736110000      4.9168670000
H                 -1.2150320000     -1.1383860000      3.9827060000
H                 -2.5653090000     -2.1526190000      4.4981200000
H                 -1.3443390000     -1.6664230000      5.6652550000
H                 -4.3179360000      0.5595760000      6.4816900000
H                 -3.2442830000     -0.6664410000      7.1803460000
H                 -4.4489950000     -1.1387210000      5.9898080000
$end

$rem
BASIS  =  6-311++G(d,p)
GUI  =  2
JOB_TYPE  =  SP
METHOD  =  B3LYP
SCF_CONVERGENCE  = 8
SOLVENT_METHOD = sm12
$end

$smx
solvent dimethylformamide
charges CM5
$end

--------------------------------------------------------------

             Standard Nuclear Orientation (Angstroms)
    I     Atom           X                Y                Z
 ----------------------------------------------------------------
    1      C       3.0916320000    -2.4897160000    -2.3576020000
    2      C       2.6629170000    -3.5710240000    -3.1068680000
    3      C       1.3422500000    -3.6075730000    -3.5963880000
    4      C       2.2257680000    -1.4151800000    -2.0721320000
    5      C       0.8972230000    -1.4524820000    -2.5651540000
    6      C       0.4777470000    -2.5617260000    -3.3259800000
    7      C       2.7098050000    -0.2798460000    -1.2715600000
    8      C       1.7627870000     0.7880650000    -1.0142390000
    9      C       0.4647120000     0.7532010000    -1.5108930000
   10      C      -0.0407450000    -0.3545580000    -2.2923600000
   11      O       3.8952010000    -0.2537080000    -0.8372980000
   12      O      -1.2281300000    -0.3850290000    -2.7229450000
   13      H       3.3427450000    -4.3915530000    -3.3180360000
   14      H       1.0046870000    -4.4560040000    -4.1847900000
   15      C       2.2635430000     1.9456360000    -0.1833910000
   16      H       4.1016770000    -2.4342460000    -1.9679780000
   17      H      -0.5440860000    -2.5617850000    -3.6880620000
   18      H       2.3260390000     2.8714470000    -0.7705540000
   19      H       3.2633620000     1.7131300000     0.1837960000
   20      H       1.6066810000     2.1481720000     0.6688360000
   21      C      -0.5243140000     1.8786420000    -1.2506930000
   22      C      -1.3793370000     1.6095270000    -0.0375160000
   23      C      -1.6100150000     2.3864610000     1.0307840000
   24      C      -2.4954560000     1.8869890000     2.1561300000
   25      C      -1.0494070000     3.7764970000     1.2178860000
   26      C      -1.7219250000     1.5116240000     3.4462720000
   27      C      -2.6342590000     1.0901280000     4.5637020000
   28      C      -2.7423680000    -0.1092600000     5.1515610000
   29      C      -1.9165480000    -1.3199700000     4.7956000000
   30      C      -3.7434800000    -0.3424050000     6.2582750000
   31      H      -1.1902690000     1.9237400000    -2.1199470000
   32      H      -0.0060450000     2.8354780000    -1.1701220000
   33      H      -1.8640690000     0.6354690000    -0.0662530000
   34      H      -3.0514970000     1.0069710000     1.8200390000
   35      H      -3.2429810000     2.6531100000     2.4098470000
   36      H      -0.4106410000     4.0845980000     0.3907280000
   37      H      -0.4575310000     3.8546400000     2.1376650000
   38      H      -1.8620330000     4.5100550000     1.3058490000
   39      H      -1.1409750000     2.3809460000     3.7789250000
   40      H      -0.9960240000     0.7339220000     3.2010760000
   41      H      -3.3064130000     1.8736110000     4.9168670000
   42      H      -1.2150320000    -1.1383860000     3.9827060000
   43      H      -2.5653090000    -2.1526190000     4.4981200000
   44      H      -1.3443390000    -1.6664230000     5.6652550000
   45      H      -4.3179360000     0.5595760000     6.4816900000
   46      H      -3.2442830000    -0.6664410000     7.1803460000
   47      H      -4.4489950000    -1.1387210000     5.9898080000
 ----------------------------------------------------------------

   16    -965.4411805185      7.24e-09  Convergence criterion met
 Total energy in the final basis set =     -965.5303952319

                    Orbital Energies (a.u.)
 --------------------------------------------------------------

 Alpha MOs
 -- Occupied --
-19.0737 -19.0731 -10.2199 -10.2190 -10.1818 -10.1813 -10.1796 -10.1776
-10.1775 -10.1771 -10.1767 -10.1756 -10.1733 -10.1720 -10.1717 -10.1711
-10.1698 -10.1658 -10.1648 -10.1645 -10.1643 -10.1635 -10.1619  -0.9982
 -0.9957  -0.8629  -0.8327  -0.8219  -0.8076  -0.7698  -0.7559  -0.7556
 -0.7351  -0.6950  -0.6943  -0.6859  -0.6639  -0.6504  -0.6149  -0.6030
 -0.5883  -0.5578  -0.5267  -0.5213  -0.5122  -0.4970  -0.4782  -0.4697
 -0.4690  -0.4513  -0.4450  -0.4397  -0.4334  -0.4321  -0.4249  -0.4206
 -0.4142  -0.4093  -0.4064  -0.4024  -0.3952  -0.3868  -0.3857  -0.3811
 -0.3775  -0.3751  -0.3702  -0.3692  -0.3666  -0.3614  -0.3530  -0.3481
 -0.3410  -0.3405  -0.3336  -0.3232  -0.2706  -0.2625  -0.2516  -0.2477
 -0.2438  -0.2370  -0.2283  -0.1517

 Beta MOs
 -- Occupied --
-19.0671 -19.0667 -10.2185 -10.2176 -10.1815 -10.1810 -10.1796 -10.1775
-10.1775 -10.1766 -10.1761 -10.1756 -10.1720 -10.1718 -10.1717 -10.1700
-10.1697 -10.1658 -10.1646 -10.1645 -10.1643 -10.1635 -10.1620  -0.9869
 -0.9842  -0.8610  -0.8316  -0.8199  -0.8062  -0.7683  -0.7546  -0.7541
 -0.7335  -0.6943  -0.6932  -0.6856  -0.6597  -0.6473  -0.6142  -0.6021
 -0.5854  -0.5552  -0.5260  -0.5208  -0.5111  -0.4949  -0.4779  -0.4693
 -0.4666  -0.4505  -0.4442  -0.4374  -0.4330  -0.4314  -0.4229  -0.4167
 -0.4128  -0.4058  -0.4037  -0.3967  -0.3929  -0.3857  -0.3849  -0.3798
 -0.3756  -0.3751  -0.3692  -0.3663  -0.3623  -0.3510  -0.3444  -0.3411
 -0.3388  -0.3375  -0.3335  -0.3225  -0.2560  -0.2507  -0.2490  -0.2400
 -0.2377  -0.2306  -0.2243

          Ground-State Mulliken Net Atomic Charges

     Atom                 Charge (a.u.)    Spin (a.u.)
  --------------------------------------------------------
      1 C                    -0.095036       0.027318
      2 C                     0.954003       0.026312
      3 C                     0.825774       0.027409
      4 C                    -1.565667       0.009876
      5 C                    -0.896580       0.021998
      6 C                    -0.142799       0.027026
      7 C                    -1.913756       0.077912
      8 C                    -0.069980       0.098939
      9 C                     0.297676       0.112870
     10 C                    -2.052050       0.068871
     11 O                    -0.318584       0.245668
     12 O                    -0.274632       0.241704
     13 H                     0.357031      -0.002144
     14 H                     0.356517      -0.002179
     15 C                     0.537304       0.003781
     16 H                     0.152205      -0.002532
     17 H                     0.152058      -0.002431
     18 H                     0.226002       0.006376
     19 H                     0.182244      -0.002192
     20 H                     0.204306       0.004331
     21 C                     0.058197      -0.000728
     22 C                    -2.441160      -0.014429
     23 C                     1.255360       0.026547
     24 C                     1.235950       0.001041
     25 C                     0.349955      -0.002150
     26 C                    -1.162140       0.000321
     27 C                     0.336419      -0.000277
     28 C                     0.225568       0.000190
     29 C                    -0.573125      -0.000003
     30 C                    -0.013547      -0.000008
     31 H                     0.186366       0.003202
     32 H                     0.040233      -0.000411
     33 H                     0.039438      -0.002471
     34 H                     0.249784       0.000090
     35 H                     0.215544      -0.000034
     36 H                     0.312447       0.000339
     37 H                     0.179828      -0.000043
     38 H                     0.224785      -0.000035
     39 H                     0.175931       0.000015
     40 H                    -0.087291      -0.000179
     41 H                     0.178886      -0.000012
     42 H                     0.156696       0.000106
     43 H                     0.168382      -0.000001
     44 H                     0.180167       0.000003
     45 H                     0.226043       0.000002
     46 H                     0.182026       0.000004
     47 H                     0.183228       0.000007
  --------------------------------------------------------
  Sum of atomic charges =    -1.000000

                    Cartesian Multipole Moments
 -----------------------------------------------------------------
    Charge (ESU x 10^10)
                -4.8032
    Dipole Moment (Debye)
         X      -6.2437      Y       2.0513      Z       8.7480
       Tot      10.9416
    Quadrupole Moments (Debye-Ang)
        XX    -185.1283     XY       4.1796     YY    -145.3695
        XZ       1.7881     YZ      -6.4848     ZZ    -167.7235

 Total job time:  2519.58s(wall), 18463.84s(cpu)
        *  Thank you very much for using Q-Chem.  Have a nice day.  *
