 Gaussian 16, Revision A.03,
 Gaussian 16:  ES64L-G16RevA.03 25-Dec-2016

 ----------------------------------------------------------------------
 #P UB3LYP/6-311++G(d,p) nosym opt freq SCRF=(PCM,Solvent=n,n-DiMethylF
 ormamide)
 ----------------------------------------------------------------------

 --------
 Oxidized
 --------
 Symbolic Z-matrix:
 Charge =  0 Multiplicity = 1

 SCF Done:  E(UB3LYP) =  -1203.96042550     A.U. after   15 cycles
 SCF Done:  E(UB3LYP) =  -1203.96044466     A.U. after   11 cycles
 SCF Done:  E(UB3LYP) =  -1203.96041653     A.U. after   11 cycles
 SCF Done:  E(UB3LYP) =  -1203.96045752     A.U. after   11 cycles
 SCF Done:  E(UB3LYP) =  -1203.96045860     A.U. after    9 cycles
 SCF Done:  E(UB3LYP) =  -1203.96045944     A.U. after   11 cycles
 SCF Done:  E(UB3LYP) =  -1203.96046073     A.U. after   10 cycles
 SCF Done:  E(UB3LYP) =  -1203.96046536     A.U. after   12 cycles
 SCF Done:  E(UB3LYP) =  -1203.96046689     A.U. after   12 cycles
 SCF Done:  E(UB3LYP) =  -1203.96046894     A.U. after   12 cycles
 SCF Done:  E(UB3LYP) =  -1203.96047023     A.U. after   13 cycles
 SCF Done:  E(UB3LYP) =  -1203.96047775     A.U. after   12 cycles
 SCF Done:  E(UB3LYP) =  -1203.96047797     A.U. after   11 cycles
 Optimization completed.
    -- Stationary point found.
 Normal termination of Gaussian 16 at Sun Feb 11 03:51:28 2024.

 ----------------------------------------------------------------------
 #P Geom=AllCheck Guess=TCheck SCRF=Check GenChk UB3LYP/6-311++G(d,p) F
 req
 ----------------------------------------------------------------------

 Structure from the checkpoint file:  "152.chk"
 --------
 Oxidized
 --------
 Charge =  0 Multiplicity = 1

                          Input orientation:
 ---------------------------------------------------------------------
 Center     Atomic      Atomic             Coordinates (Angstroms)
 Number     Number       Type             X           Y           Z
 ---------------------------------------------------------------------
      1          7           0       -2.960197   -1.788053   -0.478943
      2          6           0       -2.544253   -0.526368   -0.221664
      3          6           0       -3.505749    0.511735   -0.123381
      4          6           0       -3.127472    1.807830    0.146888
      5          6           0       -1.777865    2.137727    0.336431
      6          6           0       -0.809724    1.150757    0.237845
      7          6           0        0.611157    1.560759    0.466277
      8          8           0        0.862566    2.691958    0.856165
      9          6           0        1.682420    0.552125    0.215428
     10          6           0        3.060716    0.844398    0.257729
     11         17           0        3.705810    2.453971    0.546031
     12          6           0        4.018041   -0.145168    0.046448
     13          6           0        3.624624   -1.453978   -0.206359
     14          6           0        2.274283   -1.771458   -0.261352
     15          6           0        1.309416   -0.784607   -0.060507
     16          6           0       -0.126289   -1.206273   -0.165910
     17          8           0       -0.380125   -2.401624   -0.371022
     18          6           0       -1.164256   -0.193656   -0.048827
     19          1           0       -3.940946   -1.984301   -0.595039
     20          1           0       -2.275331   -2.528492   -0.539454
     21          1           0       -4.552148    0.263644   -0.263188
     22          1           0       -3.884351    2.580681    0.216353
     23          1           0       -1.479815    3.153018    0.557937
     24          1           0        5.067222    0.117513    0.081482
     25          1           0        4.375678   -2.218367   -0.365065
     26          1           0        1.946588   -2.781772   -0.464305
 ---------------------------------------------------------------------

 SCF Done:  E(UB3LYP) =  -1203.96047797     A.U. after    1 cycles

 Alpha  occ. eigenvalues -- -101.56491 -19.12846 -19.12616 -14.33864 -10.28609
 Alpha  occ. eigenvalues --  -10.28027 -10.26496 -10.25119 -10.22290 -10.21623
 Alpha  occ. eigenvalues --  -10.20811 -10.20647 -10.20469 -10.20252 -10.19888
 Alpha  occ. eigenvalues --  -10.19866 -10.19356 -10.18779  -9.47969  -7.24441
 Alpha  occ. eigenvalues --   -7.23482  -7.23366  -1.06488  -1.05856  -0.94878
 Alpha  occ. eigenvalues --   -0.91469  -0.87490  -0.85820  -0.81484  -0.77623
 Alpha  occ. eigenvalues --   -0.76558  -0.75707  -0.69083  -0.67093  -0.65532
 Alpha  occ. eigenvalues --   -0.61516  -0.58672  -0.58030  -0.56212  -0.53045
 Alpha  occ. eigenvalues --   -0.51243  -0.50868  -0.49355  -0.48176  -0.47399
 Alpha  occ. eigenvalues --   -0.46032  -0.45837  -0.45482  -0.44837  -0.43397
 Alpha  occ. eigenvalues --   -0.42402  -0.41008  -0.40165  -0.39163  -0.38871
 Alpha  occ. eigenvalues --   -0.38412  -0.37577  -0.34999  -0.33665  -0.33368
 Alpha  occ. eigenvalues --   -0.29339  -0.28533  -0.27975  -0.27023  -0.26921
 Alpha  occ. eigenvalues --   -0.22906
 Alpha virt. eigenvalues --   -0.11802  -0.07195  -0.04075  -0.02062  -0.00661
 Alpha virt. eigenvalues --   -0.00076   0.00217   0.00918   0.01819   0.02376
 Alpha virt. eigenvalues --    0.02980   0.03488   0.03779   0.04050   0.04118

  Beta  occ. eigenvalues -- -101.56491 -19.12846 -19.12616 -14.33864 -10.28609
  Beta  occ. eigenvalues --  -10.28027 -10.26496 -10.25119 -10.22290 -10.21623
  Beta  occ. eigenvalues --  -10.20811 -10.20647 -10.20469 -10.20252 -10.19888
  Beta  occ. eigenvalues --  -10.19866 -10.19356 -10.18779  -9.47969  -7.24441
  Beta  occ. eigenvalues --   -7.23482  -7.23366  -1.06488  -1.05856  -0.94878
  Beta  occ. eigenvalues --   -0.91469  -0.87490  -0.85820  -0.81484  -0.77623
  Beta  occ. eigenvalues --   -0.76558  -0.75707  -0.69083  -0.67093  -0.65532
  Beta  occ. eigenvalues --   -0.61516  -0.58672  -0.58030  -0.56212  -0.53045
  Beta  occ. eigenvalues --   -0.51243  -0.50868  -0.49355  -0.48176  -0.47399
  Beta  occ. eigenvalues --   -0.46032  -0.45837  -0.45482  -0.44837  -0.43397
  Beta  occ. eigenvalues --   -0.42402  -0.41008  -0.40165  -0.39163  -0.38871
  Beta  occ. eigenvalues --   -0.38412  -0.37577  -0.34999  -0.33665  -0.33368
  Beta  occ. eigenvalues --   -0.29339  -0.28533  -0.27975  -0.27023  -0.26921
  Beta  occ. eigenvalues --   -0.22906
  Beta virt. eigenvalues --   -0.11802  -0.07195  -0.04075  -0.02062  -0.00661
  Beta virt. eigenvalues --   -0.00076   0.00217   0.00918   0.01819   0.02376
  Beta virt. eigenvalues --    0.02980   0.03488   0.03779   0.04050   0.04118

 Mulliken charges and spin densities:
               1          2
     1  N   -0.413315   0.000000
     2  C    0.148230  -0.000000
     3  C   -0.188367   0.000000
     4  C   -0.484838  -0.000000
     5  C    0.173811   0.000000
     6  C    0.258253  -0.000000
     7  C   -1.631980   0.000000
     8  O   -0.186681   0.000000
     9  C    0.144735  -0.000000
    10  C    0.935721  -0.000000
    11  Cl   0.409464   0.000000
    12  C   -0.150177   0.000000
    13  C   -0.653794  -0.000000
    14  C    0.551877   0.000000
    15  C    0.444891   0.000000
    16  C   -0.946382  -0.000000
    17  O   -0.312030   0.000000
    18  C    0.030607  -0.000000
    19  H    0.313842  -0.000000
    20  H    0.337523   0.000000
    21  H    0.188583   0.000000
    22  H    0.210795  -0.000000
    23  H    0.180820  -0.000000
    24  H    0.225273  -0.000000
    25  H    0.210653  -0.000000
    26  H    0.202486  -0.000000
 Sum of Mulliken charges =  -0.00000  -0.00000

 Dipole moment (field-independent basis, Debye):
    X=             -3.3143    Y=             -3.5835    Z=             -1.5301  Tot=              5.1154
 Quadrupole moment (field-independent basis, Debye-Ang):
   XX=            -76.7806   YY=           -118.2628   ZZ=           -114.5029
   XY=            -10.0512   XZ=             -0.6558   YZ=             -2.3213

  Exact polarizability: 403.964  -0.569 328.776  12.226  40.326 134.644
 Approx polarizability: 435.042   3.934 414.750  14.573  53.641 160.416

                      1                      2                      3
                      A                      A                      A
 Frequencies --     23.9802                44.8581                81.3373
 Red. masses --      8.7818                 8.3724                10.7019
 Frc consts  --      0.0030                 0.0099                 0.0417
 IR Inten    --     10.3066                 2.7278                 7.3972

                      4                      5                      6
                      A                      A                      A
 Frequencies --    140.3170               177.9165               181.7807
 Red. masses --      2.8901                 9.0284                 4.5244
 Frc consts  --      0.0335                 0.1684                 0.0881
 IR Inten    --     65.6594                 4.1494                17.3569

                      7                      8                      9
                      A                      A                      A
 Frequencies --    204.5493               219.0821               253.8279
 Red. masses --      2.9261                 1.7163                 6.8051
 Frc consts  --      0.0721                 0.0485                 0.2583
 IR Inten    --     90.7494               121.2268                 0.3236

                     10                     11                     12
                      A                      A                      A
 Frequencies --    259.3822               350.9618               357.4571
 Red. masses --      6.8111                 7.7913                 9.8876
 Frc consts  --      0.2700                 0.5654                 0.7444
 IR Inten    --      1.3213                 0.1955                 4.6946

                     13                     14                     15
                      A                      A                      A
 Frequencies --    388.4799               415.7353               426.2697
 Red. masses --      5.9954                 6.3328                11.3351
 Frc consts  --      0.5331                 0.6449                 1.2135
 IR Inten    --      1.7199                 2.2070                46.2867

                     16                     17                     18
                      A                      A                      A
 Frequencies --    434.2217               465.9489               480.5494
 Red. masses --      5.0705                 5.4444                 4.1787
 Frc consts  --      0.5633                 0.6964                 0.5686
 IR Inten    --      2.6806                22.4726                 6.6074

                     19                     20                     21
                      A                      A                      A
 Frequencies --    485.8327               516.0144               558.2932
 Red. masses --      6.6052                 5.0425                 3.9993
 Frc consts  --      0.9186                 0.7911                 0.7344
 IR Inten    --      4.6931                 2.3325                 9.3204

                     22                     23                     24
                      A                      A                      A
 Frequencies --    568.7656               621.6212               624.9348
 Red. masses --      6.2982                 6.1185                 1.0847
 Frc consts  --      1.2004                 1.3930                 0.2496
 IR Inten    --      1.0176                 3.7286                25.5032

                     25                     26                     27
                      A                      A                      A
 Frequencies --    672.8441               703.3050               717.6053
 Red. masses --      4.6391                 6.5875                 2.8019
 Frc consts  --      1.2374                 1.9198                 0.8501
 IR Inten    --      0.0282                 6.3696                50.2721

                     28                     29                     30
                      A                      A                      A
 Frequencies --    743.7791               771.3143               783.3177
 Red. masses --      7.9316                 4.5039                 1.8293
 Frc consts  --      2.5852                 1.5787                 0.6613
 IR Inten    --    113.4636                51.4625                 3.6649

                     31                     32                     33
                      A                      A                      A
 Frequencies --    816.2521               823.5133               834.9827
 Red. masses --      7.0385                 1.7446                 3.4049
 Frc consts  --      2.7630                 0.6971                 1.3987
 IR Inten    --     51.2684                68.0043                 1.6067

                     34                     35                     36
                      A                      A                      A
 Frequencies --    896.3633               917.9732               929.2765
 Red. masses --      6.8718                 1.4614                 6.4258
 Frc consts  --      3.2531                 0.7255                 3.2694
 IR Inten    --     42.9709                 0.7715                14.8896

                     37                     38                     39
                      A                      A                      A
 Frequencies --    951.1609              1004.0831              1018.0961
 Red. masses --      1.3833                 1.3236                 1.3548
 Frc consts  --      0.7374                 0.7862                 0.8273
 IR Inten    --      0.0554                 0.4831                 3.2596

                     40                     41                     42
                      A                      A                      A
 Frequencies --   1020.8263              1063.9798              1093.6294
 Red. masses --      2.4054                 2.7077                 2.2100
 Frc consts  --      1.4768                 1.8060                 1.5573
 IR Inten    --    109.7368                25.6406                 2.6968

                     43                     44                     45
                      A                      A                      A
 Frequencies --   1127.5249              1140.8953              1186.9528
 Red. masses --      1.8829                 3.3500                 1.3648
 Frc consts  --      1.4103                 2.5691                 1.1329
 IR Inten    --     32.9144                65.0964                24.9309

                     46                     47                     48
                      A                      A                      A
 Frequencies --   1192.0465              1202.6674              1227.2783
 Red. masses --      1.2767                 1.8210                 2.0728
 Frc consts  --      1.0688                 1.5519                 1.8394
 IR Inten    --     56.5934                 4.5751               143.7536

                     49                     50                     51
                      A                      A                      A
 Frequencies --   1268.5032              1308.3422              1333.8479
 Red. masses --      4.1742                 2.6218                 9.1624
 Frc consts  --      3.9573                 2.6442                 9.6044
 IR Inten    --   1316.8757               124.0756               126.2568

                     52                     53                     54
                      A                      A                      A
 Frequencies --   1364.1834              1401.6706              1445.4451
 Red. masses --      4.1338                 5.7149                 3.3819
 Frc consts  --      4.5326                 6.6153                 4.1631
 IR Inten    --      3.7719               101.2884                86.2065

                     55                     56                     57
                      A                      A                      A
 Frequencies --   1468.7062              1473.8391              1485.1527
 Red. masses --      2.4013                 2.7077                 3.0693
 Frc consts  --      3.0519                 3.4654                 3.9887
 IR Inten    --      6.9637               109.4541                12.1996

                     58                     59                     60
                      A                      A                      A
 Frequencies --   1568.2842              1591.4557              1596.8800
 Red. masses --      3.6862                 4.8925                 2.3046
 Frc consts  --      5.3417                 7.3008                 3.4626
 IR Inten    --    514.8211               154.6006                85.7954

                     61                     62                     63
                      A                      A                      A
 Frequencies --   1608.1942              1628.5196              1656.7130
 Red. masses --      4.3968                 3.9577                 7.4265
 Frc consts  --      6.6999                 6.1841                12.0096
 IR Inten    --    154.9790               415.1119               406.0890

                     64                     65                     66
                      A                      A                      A
 Frequencies --   1698.8065              3170.6311              3187.1119
 Red. masses --     11.8364                 1.0881                 1.0943
 Frc consts  --     20.1259                 6.4447                 6.5489
 IR Inten    --    350.6830                 9.5149                25.1743

                     67                     68                     69
                      A                      A                      A
 Frequencies --   3188.8690              3206.9818              3216.2230
 Red. masses --      1.0889                 1.0937                 1.0923
 Frc consts  --      6.5243                 6.6276                 6.6573
 IR Inten    --      6.3911                 2.4640                 6.4048

                     70                     71                     72
                      A                      A                      A
 Frequencies --   3216.5905              3537.2956              3693.1808
 Red. masses --      1.0936                 1.0492                 1.1026
 Frc consts  --      6.6664                 7.7351                 8.8603
 IR Inten    --      4.7663               138.6164               165.3572

 - Thermochemistry -
 -------------------
 Temperature   298.150 Kelvin.  Pressure   1.00000 Atm.
 Atom     1 has atomic number  7 and mass  14.00307

 Molecular mass:   257.02436 amu.
 Principal axes and moments of inertia in atomic units:
                           1         2         3
     Eigenvalues --  2540.578706031.729248554.96222
           X            0.97932  -0.19940  -0.03421
           Y            0.18915   0.96242  -0.19487
           Z            0.07178   0.18437   0.98023
 This molecule is an asymmetric top.
 Rotational symmetry number  1.
 Warning -- assumption of classical behavior for rotation
           may cause significant error
 Rotational temperatures (Kelvin)      0.03409     0.01436     0.01012
 Rotational constants (GHZ):           0.71037     0.29921     0.21096
 Zero-point vibrational energy     487102.7 (Joules/Mol)
                                  116.42034 (Kcal/Mol)
 Warning -- explicit consideration of  22 degrees of freedom as
           vibrations may cause significant error
 Vibrational temperatures:     34.50    64.54   117.03   201.88   255.98
          (Kelvin)            261.54   294.30   315.21   365.20   373.19
                              504.96   514.30   558.94   598.15   613.31
                              624.75   670.40   691.40   699.00   742.43
                              803.26   818.33   894.37   899.14   968.07
                             1011.90  1032.47  1070.13  1109.75  1127.02
                             1174.40  1184.85  1201.35  1289.67  1320.76
                             1337.02  1368.51  1444.65  1464.81  1468.74
                             1530.83  1573.49  1622.26  1641.49  1707.76
                             1715.09  1730.37  1765.78  1825.09  1882.41
                             1919.11  1962.76  2016.69  2079.67  2113.14
                             2120.53  2136.80  2256.41  2289.75  2297.55
                             2313.83  2343.08  2383.64  2444.20  4561.83
                             4585.54  4588.07  4614.13  4627.43  4627.96
                             5089.38  5313.66

 Zero-point correction=                           0.185528 (Hartree/Particle)
 Thermal correction to Energy=                    0.199621
 Thermal correction to Enthalpy=                  0.200565
 Thermal correction to Gibbs Free Energy=         0.143556
 Sum of electronic and zero-point Energies=          -1203.774950
 Sum of electronic and thermal Energies=             -1203.760857
 Sum of electronic and thermal Enthalpies=           -1203.759913
 Sum of electronic and thermal Free Energies=        -1203.816922

                     E (Thermal)             CV                S
                      KCal/Mol        Cal/Mol-Kelvin    Cal/Mol-Kelvin
 Total                  125.264             55.539            119.985
 Electronic               0.000              0.000              0.000
 Translational            0.889              2.981             42.532
 Rotational               0.889              2.981             33.238
 Vibrational            123.486             49.577             44.215
 Vibration     1          0.593              1.985              6.274
 Vibration     2          0.595              1.979              5.032
 Vibration     3          0.600              1.962              3.858
 Vibration     4          0.615              1.913              2.800
 Vibration     5          0.628              1.870              2.350
 Vibration     6          0.630              1.865              2.310
 Vibration     7          0.640              1.833              2.092
 Vibration     8          0.647              1.812              1.967
 Vibration     9          0.665              1.756              1.704
 Vibration    10          0.668              1.747              1.666
 Vibration    11          0.728              1.573              1.162
 Vibration    12          0.733              1.560              1.133
 Vibration    13          0.757              1.495              1.006
 Vibration    14          0.779              1.436              0.907
 Vibration    15          0.788              1.413              0.871
 Vibration    16          0.795              1.396              0.845
 Vibration    17          0.823              1.326              0.749
 Vibration    18          0.837              1.293              0.709
 Vibration    19          0.842              1.281              0.695
 Vibration    20          0.871              1.215              0.619
 Vibration    21          0.914              1.122              0.527
 Vibration    22          0.925              1.099              0.507

 Optimization completed.
    -- Stationary point found.
 Normal termination of Gaussian 16 at Sun Feb 11 04:35:35 2024.
