 Q-Chem 5.4, Q-Chem, Inc., Pleasanton, CA (2021)
 Q-Chem 5.4.0 for Intel X86 EM64T Linux

User input:
--------------------------------------------------------------
$molecule
-1 2
C                 -0.8439240000      2.7826340000      0.3480160000
C                 -1.5106560000      2.8853880000     -0.8584420000
C                 -0.9988580000      2.2477690000     -2.0050400000
C                  0.3536590000      2.0414180000      0.4491550000
C                  0.8711820000      1.3975730000     -0.7069040000
C                  0.1749960000      1.5160140000     -1.9210820000
C                  1.0483770000      1.9337550000      1.7139000000
C                  2.2672980000      1.1517350000      1.7355010000
C                  2.7939620000      0.5172860000      0.6184100000
C                  2.1270700000      0.6029660000     -0.6711070000
O                  0.6682170000      2.4671090000      2.8062530000
O                  2.5535510000      0.0438840000     -1.6995950000
O                  2.8475660000      1.0984490000      2.9525210000
H                 -1.2183870000      3.2640000000      1.2440800000
H                 -2.4308470000      3.4586250000     -0.9228510000
H                 -1.5237560000      2.3291200000     -2.9518520000
H                  0.5923610000      1.0137050000     -2.7861090000
H                  2.2297950000      1.6385230000      3.4966470000
S                  4.3626160000     -0.3179090000      0.7299800000
C                  3.9560210000     -2.0533590000      0.8056690000
C                  2.6515530000     -2.5528350000      0.8500800000
C                  5.0204070000     -2.9653330000      0.8408230000
C                  2.4260530000     -3.9249790000      0.9257000000
C                  4.7809130000     -4.3334730000      0.9182540000
C                  3.4787790000     -4.8445330000      0.9591300000
C                  3.2212180000     -6.3326730000      1.0020610000
H                  1.8164060000     -1.8642940000      0.8239810000
H                  6.0415960000     -2.5986970000      0.8090500000
H                  1.4013730000     -4.2855030000      0.9589330000
H                  5.6258370000     -5.0166970000      0.9472530000
H                  4.0187130000     -6.8612440000      1.5327760000
H                  3.1620560000     -6.7612950000     -0.0060390000
H                  2.2771150000     -6.5586690000      1.5058450000
$end

$rem
BASIS  =  6-311++G(d,p)
GUI  =  2
JOB_TYPE  =  SP
METHOD  =  B3LYP
SCF_CONVERGENCE  = 8
SOLVENT_METHOD = sm12
$end

$smx
solvent dimethylformamide
charges CM5
$end

--------------------------------------------------------------

             Standard Nuclear Orientation (Angstroms)
    I     Atom           X                Y                Z
 ----------------------------------------------------------------
    1      C      -0.8439240000     2.7826340000     0.3480160000
    2      C      -1.5106560000     2.8853880000    -0.8584420000
    3      C      -0.9988580000     2.2477690000    -2.0050400000
    4      C       0.3536590000     2.0414180000     0.4491550000
    5      C       0.8711820000     1.3975730000    -0.7069040000
    6      C       0.1749960000     1.5160140000    -1.9210820000
    7      C       1.0483770000     1.9337550000     1.7139000000
    8      C       2.2672980000     1.1517350000     1.7355010000
    9      C       2.7939620000     0.5172860000     0.6184100000
   10      C       2.1270700000     0.6029660000    -0.6711070000
   11      O       0.6682170000     2.4671090000     2.8062530000
   12      O       2.5535510000     0.0438840000    -1.6995950000
   13      O       2.8475660000     1.0984490000     2.9525210000
   14      H      -1.2183870000     3.2640000000     1.2440800000
   15      H      -2.4308470000     3.4586250000    -0.9228510000
   16      H      -1.5237560000     2.3291200000    -2.9518520000
   17      H       0.5923610000     1.0137050000    -2.7861090000
   18      H       2.2297950000     1.6385230000     3.4966470000
   19      S       4.3626160000    -0.3179090000     0.7299800000
   20      C       3.9560210000    -2.0533590000     0.8056690000
   21      C       2.6515530000    -2.5528350000     0.8500800000
   22      C       5.0204070000    -2.9653330000     0.8408230000
   23      C       2.4260530000    -3.9249790000     0.9257000000
   24      C       4.7809130000    -4.3334730000     0.9182540000
   25      C       3.4787790000    -4.8445330000     0.9591300000
   26      C       3.2212180000    -6.3326730000     1.0020610000
   27      H       1.8164060000    -1.8642940000     0.8239810000
   28      H       6.0415960000    -2.5986970000     0.8090500000
   29      H       1.4013730000    -4.2855030000     0.9589330000
   30      H       5.6258370000    -5.0166970000     0.9472530000
   31      H       4.0187130000    -6.8612440000     1.5327760000
   32      H       3.1620560000    -6.7612950000    -0.0060390000
   33      H       2.2771150000    -6.5586690000     1.5058450000
 ----------------------------------------------------------------

   18   -1279.2391296973      6.92e-09  Convergence criterion met
 Total energy in the final basis set =    -1279.3279847823

                    Orbital Energies (a.u.)
 --------------------------------------------------------------

 Alpha MOs
 -- Occupied --
-88.8493 -19.1522 -19.0926 -19.0790 -10.2402 -10.2360 -10.2277 -10.2098
-10.1916 -10.1863 -10.1862 -10.1851 -10.1841 -10.1834 -10.1827 -10.1819
-10.1812 -10.1810 -10.1809 -10.1801 -10.1704  -7.9349  -5.8989  -5.8948
 -5.8889  -1.0765  -1.0094  -1.0030  -0.8720  -0.8688  -0.8243  -0.7954
 -0.7625  -0.7604  -0.7553  -0.7224  -0.6859  -0.6639  -0.6299  -0.6206
 -0.6092  -0.5835  -0.5790  -0.5466  -0.5192  -0.5030  -0.4891  -0.4779
 -0.4689  -0.4626  -0.4536  -0.4453  -0.4368  -0.4295  -0.4236  -0.4222
 -0.4147  -0.4061  -0.3964  -0.3916  -0.3860  -0.3777  -0.3728  -0.3706
 -0.3561  -0.3505  -0.3495  -0.3476  -0.3287  -0.2866  -0.2759  -0.2671
 -0.2656  -0.2649  -0.2461  -0.2431  -0.2087  -0.1591

 Beta MOs
 -- Occupied --
-88.8493 -19.1514 -19.0854 -19.0741 -10.2386 -10.2354 -10.2250 -10.2097
-10.1909 -10.1863 -10.1862 -10.1852 -10.1829 -10.1827 -10.1825 -10.1814
-10.1813 -10.1812 -10.1809 -10.1800 -10.1704  -7.9349  -5.8990  -5.8949
 -5.8889  -1.0737  -1.0011  -0.9909  -0.8717  -0.8668  -0.8217  -0.7935
 -0.7607  -0.7590  -0.7552  -0.7208  -0.6804  -0.6607  -0.6282  -0.6201
 -0.6070  -0.5828  -0.5768  -0.5450  -0.5175  -0.5015  -0.4868  -0.4774
 -0.4677  -0.4622  -0.4529  -0.4363  -0.4348  -0.4274  -0.4233  -0.4177
 -0.4105  -0.4028  -0.3912  -0.3872  -0.3839  -0.3737  -0.3714  -0.3602
 -0.3549  -0.3499  -0.3460  -0.3324  -0.3265  -0.2862  -0.2653  -0.2603
 -0.2594  -0.2559  -0.2393  -0.2357  -0.2082

          Ground-State Mulliken Net Atomic Charges

     Atom                 Charge (a.u.)    Spin (a.u.)
  --------------------------------------------------------
      1 C                     0.164739       0.083720
      2 C                     0.756795      -0.016728
      3 C                     0.771337       0.079535
      4 C                    -0.543353      -0.024279
      5 C                    -0.615136       0.093422
      6 C                    -0.176876      -0.016189
      7 C                    -1.301809       0.173166
      8 C                    -0.842534       0.095259
      9 C                     1.564492       0.030624
     10 C                    -2.055858       0.032251
     11 O                    -0.363527       0.267224
     12 O                    -0.279615       0.183317
     13 O                    -0.090028       0.026919
     14 H                     0.204794      -0.004763
     15 H                     0.361233       0.000431
     16 H                     0.341806      -0.005411
     17 H                     0.169461       0.000385
     18 H                     0.299576      -0.004021
     19 S                     0.496374       0.004524
     20 C                    -1.945885       0.003245
     21 C                    -2.183577      -0.007860
     22 C                     0.429110       0.004397
     23 C                    -0.075435      -0.003095
     24 C                     0.128870       0.000781
     25 C                     1.358833       0.000292
     26 C                     0.972999      -0.000882
     27 H                    -0.034205       0.003454
     28 H                     0.266498       0.000003
     29 H                     0.240569       0.000046
     30 H                     0.277556       0.000253
     31 H                     0.244362       0.000017
     32 H                     0.218559      -0.000027
     33 H                     0.239877      -0.000010
  --------------------------------------------------------
  Sum of atomic charges =    -1.000000

                    Cartesian Multipole Moments
 -----------------------------------------------------------------
    Charge (ESU x 10^10)
                -4.8032
    Dipole Moment (Debye)
         X     -10.9104      Y      -4.5318      Z      -2.7981
       Tot      12.1410
    Quadrupole Moments (Debye-Ang)
        XX    -165.8586     XY      -3.4689     YY    -140.1560
        XZ      -0.5518     YZ     -10.8086     ZZ    -157.5283

 Total job time:  1191.41s(wall), 8943.18s(cpu)
        *  Thank you very much for using Q-Chem.  Have a nice day.  *
