 Gaussian 16, Revision A.03,
 Gaussian 16:  ES64L-G16RevA.03 25-Dec-2016

 ----------------------------------------------------------------------
 #P UB3LYP/6-311++G(d,p) nosym opt freq SCRF=(PCM,Solvent=n,n-DiMethylF
 ormamide)
 ----------------------------------------------------------------------

 -------
 Reduced
 -------
 Symbolic Z-matrix:
 Charge = -2 Multiplicity = 1

 SCF Done:  E(UB3LYP) =  -917.148138051     A.U. after   16 cycles
 SCF Done:  E(UB3LYP) =  -917.149170036     A.U. after   14 cycles
 SCF Done:  E(UB3LYP) =  -917.149344442     A.U. after   12 cycles
 SCF Done:  E(UB3LYP) =  -917.149993925     A.U. after   12 cycles
 SCF Done:  E(UB3LYP) =  -917.150181901     A.U. after   13 cycles
 SCF Done:  E(UB3LYP) =  -917.150288996     A.U. after   11 cycles
 SCF Done:  E(UB3LYP) =  -917.150292406     A.U. after   11 cycles
 SCF Done:  E(UB3LYP) =  -917.150297326     A.U. after   10 cycles
 SCF Done:  E(UB3LYP) =  -917.150298575     A.U. after   10 cycles
 SCF Done:  E(UB3LYP) =  -917.150299476     A.U. after   10 cycles
 SCF Done:  E(UB3LYP) =  -917.150300278     A.U. after   10 cycles
 SCF Done:  E(UB3LYP) =  -917.150300664     A.U. after    9 cycles
 SCF Done:  E(UB3LYP) =  -917.150300855     A.U. after   10 cycles
 SCF Done:  E(UB3LYP) =  -917.150300899     A.U. after    8 cycles
 Optimization completed.
    -- Stationary point found.
 Normal termination of Gaussian 16 at Sat Feb 10 18:45:23 2024.

 ----------------------------------------------------------------------
 #P Geom=AllCheck Guess=TCheck SCRF=Check GenChk UB3LYP/6-311++G(d,p) F
 req
 ----------------------------------------------------------------------

 Structure from the checkpoint file:  "143-an.chk"
 -------
 Reduced
 -------
 Charge = -2 Multiplicity = 1

                          Input orientation:
 ---------------------------------------------------------------------
 Center     Atomic      Atomic             Coordinates (Angstroms)
 Number     Number       Type             X           Y           Z
 ---------------------------------------------------------------------
      1          6           0        3.358592    2.374089    0.293512
      2          6           0        2.201625    1.506512    0.710212
      3          8           0        2.032161    1.076384    1.832702
      4          8           0        2.973762   -0.840360   -0.569352
      5          6           0        1.930865   -1.591720   -0.501610
      6          6           0        2.019979   -2.998772   -0.612545
      7          6           0        0.900459   -3.848168   -0.545543
      8          6           0       -0.365960   -3.337236   -0.358838
      9          6           0       -0.560723   -1.933004   -0.232996
     10          6           0       -1.919396   -1.448497   -0.041152
     11          8           0       -2.913488   -2.251616    0.034385
     12          6           0       -2.097454   -0.017478    0.054799
     13          6           0       -3.394496    0.532023    0.223136
     14          6           0       -3.607182    1.888840    0.315322
     15          6           0       -2.496563    2.773469    0.241635
     16          6           0       -1.223541    2.285040    0.082210
     17          6           0       -0.968669    0.877373   -0.017582
     18          6           0        0.316478    0.349957   -0.182637
     19          8           0        1.359164    1.302851   -0.317662
     20          6           0        0.567477   -1.033645   -0.302323
     21          1           0        3.848124    2.793223    1.171104
     22          1           0        3.029118    3.172160   -0.373523
     23          1           0        4.067815    1.748098   -0.253100
     24          1           0        3.012884   -3.417088   -0.757473
     25          1           0        1.043572   -4.922207   -0.642659
     26          1           0       -1.236260   -3.978305   -0.307076
     27          1           0       -4.225188   -0.162725    0.276787
     28          1           0       -4.609246    2.284475    0.442404
     29          1           0       -2.656599    3.844912    0.312273
     30          1           0       -0.387312    2.971408    0.025591
 ---------------------------------------------------------------------

 SCF Done:  E(UB3LYP) =  -917.150300899     A.U. after    1 cycles

 Alpha  occ. eigenvalues --  -19.15157 -19.10128 -19.03649 -19.02570 -10.29508
 Alpha  occ. eigenvalues --  -10.19528 -10.19154 -10.19118 -10.16589 -10.16134
 Alpha  occ. eigenvalues --  -10.15996 -10.15749 -10.15567 -10.15392 -10.15312
 Alpha  occ. eigenvalues --  -10.14651 -10.14188 -10.14170 -10.12538 -10.12133
 Alpha  occ. eigenvalues --   -1.09446  -1.01133  -0.95591  -0.94316  -0.84355
 Alpha  occ. eigenvalues --   -0.81009  -0.77513  -0.74650  -0.73296  -0.71241
 Alpha  occ. eigenvalues --   -0.69490  -0.66132  -0.61355  -0.59557  -0.59369
 Alpha  occ. eigenvalues --   -0.55334  -0.51700  -0.50849  -0.49431  -0.48350
 Alpha  occ. eigenvalues --   -0.47103  -0.45979  -0.43918  -0.43788  -0.43361
 Alpha  occ. eigenvalues --   -0.42360  -0.41027  -0.40400  -0.38842  -0.38810
 Alpha  occ. eigenvalues --   -0.37521  -0.37417  -0.37037  -0.36741  -0.35428
 Alpha  occ. eigenvalues --   -0.35166  -0.33018  -0.32801  -0.32132  -0.31383
 Alpha  occ. eigenvalues --   -0.29986  -0.28216  -0.27646  -0.27232  -0.23892
 Alpha  occ. eigenvalues --   -0.22196  -0.21502  -0.19589  -0.17894  -0.13056
 Alpha virt. eigenvalues --   -0.03072  -0.00079   0.00013   0.00740   0.00874
 Alpha virt. eigenvalues --    0.01366   0.02266   0.02672   0.02923   0.03454
 Alpha virt. eigenvalues --    0.03944   0.04673   0.04862   0.05193   0.06192

  Beta  occ. eigenvalues --  -19.15157 -19.10128 -19.03649 -19.02570 -10.29508
  Beta  occ. eigenvalues --  -10.19528 -10.19154 -10.19118 -10.16589 -10.16134
  Beta  occ. eigenvalues --  -10.15996 -10.15749 -10.15567 -10.15392 -10.15312
  Beta  occ. eigenvalues --  -10.14651 -10.14188 -10.14170 -10.12538 -10.12133
  Beta  occ. eigenvalues --   -1.09446  -1.01133  -0.95591  -0.94316  -0.84355
  Beta  occ. eigenvalues --   -0.81009  -0.77513  -0.74650  -0.73296  -0.71241
  Beta  occ. eigenvalues --   -0.69490  -0.66132  -0.61355  -0.59557  -0.59369
  Beta  occ. eigenvalues --   -0.55334  -0.51700  -0.50849  -0.49431  -0.48350
  Beta  occ. eigenvalues --   -0.47103  -0.45979  -0.43918  -0.43788  -0.43361
  Beta  occ. eigenvalues --   -0.42360  -0.41027  -0.40400  -0.38842  -0.38810
  Beta  occ. eigenvalues --   -0.37521  -0.37417  -0.37037  -0.36741  -0.35428
  Beta  occ. eigenvalues --   -0.35166  -0.33018  -0.32801  -0.32132  -0.31383
  Beta  occ. eigenvalues --   -0.29986  -0.28216  -0.27646  -0.27232  -0.23892
  Beta  occ. eigenvalues --   -0.22196  -0.21502  -0.19589  -0.17894  -0.13056
  Beta virt. eigenvalues --   -0.03072  -0.00079   0.00013   0.00740   0.00874
  Beta virt. eigenvalues --    0.01366   0.02266   0.02672   0.02923   0.03454
  Beta virt. eigenvalues --    0.03944   0.04673   0.04862   0.05193   0.06192

 Mulliken charges and spin densities:
               1          2
     1  C   -0.514069   0.000000
     2  C    0.070834  -0.000000
     3  O   -0.329609   0.000000
     4  O   -0.626573   0.000000
     5  C   -0.175323  -0.000000
     6  C   -0.271575   0.000000
     7  C   -0.389531  -0.000000
     8  C   -0.245154  -0.000000
     9  C    0.386720  -0.000000
    10  C   -0.409583  -0.000000
    11  O   -0.593611   0.000000
    12  C    0.412270   0.000000
    13  C   -0.040019  -0.000000
    14  C   -0.468130   0.000000
    15  C   -0.483448   0.000000
    16  C   -0.113905   0.000000
    17  C    0.314007   0.000000
    18  C   -0.335154  -0.000000
    19  O   -0.038955   0.000000
    20  C    0.277741  -0.000000
    21  H    0.161141   0.000000
    22  H    0.163204   0.000000
    23  H    0.197450  -0.000000
    24  H    0.132440   0.000000
    25  H    0.151242  -0.000000
    26  H    0.133441   0.000000
    27  H    0.158505   0.000000
    28  H    0.160011   0.000000
    29  H    0.172347   0.000000
    30  H    0.143286   0.000000
 Sum of Mulliken charges =  -2.00000   0.00000

 Dipole moment (field-independent basis, Debye):
    X=              0.1101    Y=             12.4682    Z=             -0.4459  Tot=             12.4767
 Quadrupole moment (field-independent basis, Debye-Ang):
   XX=           -179.9834   YY=           -151.5773   ZZ=           -137.6157
   XY=             -4.0267   XZ=              0.6183   YZ=             -4.8553

  Exact polarizability: 461.461 -53.119 464.792 -27.079  26.394 192.279
 Approx polarizability: 515.261 -36.311 520.198 -33.749  21.394 218.867

                      1                      2                      3
                      A                      A                      A
 Frequencies --     55.4780                63.7246                82.5976
 Red. masses --      7.1792                 6.1057                 4.5676
 Frc consts  --      0.0130                 0.0146                 0.0184
 IR Inten    --      2.6807                 4.6231                 8.4710

                      4                      5                      6
                      A                      A                      A
 Frequencies --     91.0157               119.8750               137.6514
 Red. masses --      3.3876                 5.9231                 1.1452
 Frc consts  --      0.0165                 0.0501                 0.0128
 IR Inten    --      9.8584                 3.2549                 1.4803

                      7                      8                      9
                      A                      A                      A
 Frequencies --    153.2934               185.3983               206.7117
 Red. masses --      5.5921                 6.1356                 5.6917
 Frc consts  --      0.0774                 0.1243                 0.1433
 IR Inten    --      3.4349                 1.8999                 6.2694

                     10                     11                     12
                      A                      A                      A
 Frequencies --    223.1058               281.4098               298.4520
 Red. masses --      5.7465                 5.5106                 5.8816
 Frc consts  --      0.1685                 0.2571                 0.3087
 IR Inten    --      4.7570                 0.5932                17.7768

                     13                     14                     15
                      A                      A                      A
 Frequencies --    328.2200               360.8529               377.6667
 Red. masses --      6.1730                 6.1764                 9.2702
 Frc consts  --      0.3918                 0.4739                 0.7790
 IR Inten    --      6.3207                 2.5438                 3.1822

                     16                     17                     18
                      A                      A                      A
 Frequencies --    392.8296               400.6340               443.6508
 Red. masses --      8.3271                 7.3210                 3.3251
 Frc consts  --      0.7571                 0.6923                 0.3856
 IR Inten    --      1.1624                 2.6699                 2.8043

                     19                     20                     21
                      A                      A                      A
 Frequencies --    489.5276               508.6280               517.3424
 Red. masses --      8.0559                 4.0882                 5.4538
 Frc consts  --      1.1374                 0.6231                 0.8600
 IR Inten    --     13.6254                 5.1182                45.1621

                     22                     23                     24
                      A                      A                      A
 Frequencies --    563.4170               577.0692               580.1803
 Red. masses --      6.2831                 3.7250                 3.7904
 Frc consts  --      1.1751                 0.7309                 0.7517
 IR Inten    --      9.6810                16.3107                14.6175

                     25                     26                     27
                      A                      A                      A
 Frequencies --    590.9240               597.3864               651.2079
 Red. masses --      5.1992                 4.4369                 6.1621
 Frc consts  --      1.0697                 0.9329                 1.5396
 IR Inten    --     11.3659                14.0804                 3.1232

                     28                     29                     30
                      A                      A                      A
 Frequencies --    680.0895               694.0752               711.5486
 Red. masses --      6.8873                 5.6156                 2.4594
 Frc consts  --      1.8769                 1.5939                 0.7336
 IR Inten    --     16.8216                14.5935                99.5399

                     31                     32                     33
                      A                      A                      A
 Frequencies --    732.6198               753.4067               770.8339
 Red. masses --      1.5869                 2.1585                 2.0853
 Frc consts  --      0.5018                 0.7219                 0.7300
 IR Inten    --     15.9182               151.9924                 1.6918

                     34                     35                     36
                      A                      A                      A
 Frequencies --    796.1406               815.3028               830.2639
 Red. masses --      5.2928                 4.5484                 1.8204
 Frc consts  --      1.9766                 1.7813                 0.7393
 IR Inten    --     12.1021                13.7065                 3.5719

                     37                     38                     39
                      A                      A                      A
 Frequencies --    849.7419               855.7379               916.4381
 Red. masses --      1.6525                 7.1503                 6.6828
 Frc consts  --      0.7030                 3.0850                 3.3068
 IR Inten    --      2.0215                60.7248                37.1272

                     40                     41                     42
                      A                      A                      A
 Frequencies --    926.8629               942.5498               973.9724
 Red. masses --      6.6918                 1.2362                 1.3193
 Frc consts  --      3.3871                 0.6471                 0.7374
 IR Inten    --     50.5654                 0.9465                 1.1493

                     43                     44                     45
                      A                      A                      A
 Frequencies --    985.7709              1002.6785              1025.4401
 Red. masses --      1.2699                 2.7047                 2.5777
 Frc consts  --      0.7271                 1.6021                 1.5970
 IR Inten    --      1.2341                53.6655                34.6010

                     46                     47                     48
                      A                      A                      A
 Frequencies --   1038.4382              1050.8633              1060.9155
 Red. masses --      2.5699                 1.7993                 3.2608
 Frc consts  --      1.6328                 1.1707                 2.1624
 IR Inten    --    278.4091                14.2345               237.2790

                     49                     50                     51
                      A                      A                      A
 Frequencies --   1078.0196              1123.2269              1147.3387
 Red. masses --      1.9438                 1.9706                 1.2696
 Frc consts  --      1.3309                 1.4648                 0.9847
 IR Inten    --     74.5636                28.2406                92.5048

                     52                     53                     54
                      A                      A                      A
 Frequencies --   1166.3812              1197.7470              1216.1047
 Red. masses --      1.2481                 1.8778                 2.6954
 Frc consts  --      1.0004                 1.5872                 2.3487
 IR Inten    --     15.6162                 3.0731               128.6153

                     55                     56                     57
                      A                      A                      A
 Frequencies --   1244.5924              1266.9816              1290.7794
 Red. masses --      4.0270                 2.3732                 4.2611
 Frc consts  --      3.6752                 2.2445                 4.1829
 IR Inten    --    801.8697               132.6099               437.3051

                     58                     59                     60
                      A                      A                      A
 Frequencies --   1322.2927              1353.0919              1363.2311
 Red. masses --      5.7708                 2.7005                 5.8683
 Frc consts  --      5.9449                 2.9130                 6.4254
 IR Inten    --     20.1510               299.1557               307.5424

                     61                     62                     63
                      A                      A                      A
 Frequencies --   1382.1667              1394.5205              1422.3880
 Red. masses --      1.3806                 3.6132                 3.1214
 Frc consts  --      1.5539                 4.1399                 3.7208
 IR Inten    --    111.0276               197.6664               747.5554

                     64                     65                     66
                      A                      A                      A
 Frequencies --   1448.6785              1463.8169              1465.9665
 Red. masses --      3.9043                 2.1131                 1.4626
 Frc consts  --      4.8277                 2.6678                 1.8519
 IR Inten    --     17.6885              1135.1079               634.1385

                     67                     68                     69
                      A                      A                      A
 Frequencies --   1468.6680              1485.7330              1533.3134
 Red. masses --      1.0595                 2.6940                 5.2798
 Frc consts  --      1.3464                 3.5037                 7.3136
 IR Inten    --      9.1907                 8.3313               374.9733

                     70                     71                     72
                      A                      A                      A
 Frequencies --   1542.0836              1566.0306              1584.4810
 Red. masses --      6.1166                 6.7306                 5.7445
 Frc consts  --      8.5699                 9.7253                 8.4972
 IR Inten    --    114.1436                13.9905                27.7638

                     73                     74                     75
                      A                      A                      A
 Frequencies --   1629.3840              1735.8572              3051.4193
 Red. masses --      5.6840                11.1479                 1.0352
 Frc consts  --      8.8910                19.7911                 5.6793
 IR Inten    --     75.4744               525.1115                 8.4125

                     76                     77                     78
                      A                      A                      A
 Frequencies --   3117.6119              3117.7310              3141.1855
 Red. masses --      1.0970                 1.0881                 1.0915
 Frc consts  --      6.2821                 6.2316                 6.3452
 IR Inten    --     34.9720                36.5858               122.0814

                     79                     80                     81
                      A                      A                      A
 Frequencies --   3145.5052              3147.8298              3163.2041
 Red. masses --      1.1042                 1.0855                 1.0889
 Frc consts  --      6.4371                 6.3371                 6.4192
 IR Inten    --     19.8358                18.6651                23.1300

                     82                     83                     84
                      A                      A                      A
 Frequencies --   3180.4212              3185.2998              3192.5232
 Red. masses --      1.0920                 1.0938                 1.0905
 Frc consts  --      6.5076                 6.5388                 6.5488
 IR Inten    --     47.3582                61.4833                29.5042

 - Thermochemistry -
 -------------------
 Temperature   298.150 Kelvin.  Pressure   1.00000 Atm.
 Atom     1 has atomic number  6 and mass  12.00000

 Molecular mass:   266.05791 amu.
 Principal axes and moments of inertia in atomic units:
                           1         2         3
     Eigenvalues --  4051.796424855.652868468.07869
           X            0.94655   0.32257   0.00167
           Y           -0.31817   0.93446  -0.15984
           Z           -0.05312   0.15076   0.98714
 This molecule is an asymmetric top.
 Rotational symmetry number  1.
 Warning -- assumption of classical behavior for rotation
           may cause significant error
 Rotational temperatures (Kelvin)      0.02138     0.01784     0.01023
 Rotational constants (GHZ):           0.44542     0.37168     0.21312
 Zero-point vibrational energy     568391.0 (Joules/Mol)
                                  135.84870 (Kcal/Mol)
 Warning -- explicit consideration of  26 degrees of freedom as
           vibrations may cause significant error
 Vibrational temperatures:     79.82    91.69   118.84   130.95   172.47
          (Kelvin)            198.05   220.55   266.75   297.41   321.00
                              404.89   429.41   472.24   519.19   543.38
                              565.19   576.42   638.31   704.32   731.80
                              744.34   810.63   830.27   834.75   850.21
                              859.51   936.94   978.50   998.62  1023.76
                             1054.08  1083.98  1109.06  1145.47  1173.04
                             1194.56  1222.59  1231.22  1318.55  1333.55
                             1356.12  1401.33  1418.30  1442.63  1475.38
                             1494.08  1511.96  1526.42  1551.03  1616.07
                             1650.76  1678.16  1723.29  1749.70  1790.69
                             1822.90  1857.14  1902.48  1946.80  1961.39
                             1988.63  2006.40  2046.50  2084.33  2106.11
                             2109.20  2113.09  2137.64  2206.10  2218.71
                             2253.17  2279.71  2344.32  2497.51  4390.31
                             4485.55  4485.72  4519.47  4525.68  4529.03
                             4551.15  4575.92  4582.94  4593.33

 Zero-point correction=                           0.216489 (Hartree/Particle)
 Thermal correction to Energy=                    0.232229
 Thermal correction to Enthalpy=                  0.233173
 Thermal correction to Gibbs Free Energy=         0.173552
 Sum of electronic and zero-point Energies=           -916.933812
 Sum of electronic and thermal Energies=              -916.918072
 Sum of electronic and thermal Enthalpies=            -916.917128
 Sum of electronic and thermal Free Energies=         -916.976748

                     E (Thermal)             CV                S
                      KCal/Mol        Cal/Mol-Kelvin    Cal/Mol-Kelvin
 Total                  145.726             62.463            125.482
 Electronic               0.000              0.000              0.000
 Translational            0.889              2.981             42.635
 Rotational               0.889              2.981             33.476
 Vibrational            143.948             56.502             49.370
 Vibration     1          0.596              1.975              4.612
 Vibration     2          0.597              1.972              4.338
 Vibration     3          0.600              1.961              3.828
 Vibration     4          0.602              1.956              3.638
 Vibration     5          0.609              1.933              3.102
 Vibration     6          0.614              1.916              2.836
 Vibration     7          0.619              1.899              2.631
 Vibration     8          0.631              1.860              2.273
 Vibration     9          0.641              1.830              2.073
 Vibration    10          0.649              1.806              1.934
 Vibration    11          0.681              1.708              1.525
 Vibration    12          0.692              1.677              1.426
 Vibration    13          0.711              1.619              1.269
 Vibration    14          0.735              1.553              1.118
 Vibration    15          0.748              1.518              1.048
 Vibration    16          0.760              1.486              0.989
 Vibration    17          0.766              1.469              0.960
 Vibration    18          0.803              1.375              0.815
 Vibration    19          0.845              1.273              0.685
 Vibration    20          0.864              1.231              0.637
 Vibration    21          0.872              1.212              0.616
 Vibration    22          0.919              1.110              0.517
 Vibration    23          0.934              1.081              0.491
 Vibration    24          0.937              1.074              0.485
 Vibration    25          0.948              1.051              0.466
 Vibration    26          0.955              1.037              0.454

 Optimization completed.
    -- Stationary point found.
 Normal termination of Gaussian 16 at Sat Feb 10 19:30:23 2024.
