 Gaussian 16, Revision A.03,
 Gaussian 16:  ES64L-G16RevA.03 25-Dec-2016

 --------------------------------------
 #P UB3LYP/6-311++G(d,p) nosym opt freq
 --------------------------------------

 -------
 Radical
 -------
 Symbolic Z-matrix:
 Charge = -1 Multiplicity = 2

 SCF Done:  E(UB3LYP) =  -880.969083519     A.U. after   26 cycles
 SCF Done:  E(UB3LYP) =  -880.969084440     A.U. after   12 cycles
 SCF Done:  E(UB3LYP) =  -880.969091174     A.U. after   15 cycles
 SCF Done:  E(UB3LYP) =  -880.937751734     A.U. after   21 cycles
 SCF Done:  E(UB3LYP) =  -880.968123864     A.U. after   18 cycles
 SCF Done:  E(UB3LYP) =  -880.969096183     A.U. after   12 cycles
 SCF Done:  E(UB3LYP) =  -880.969898502     A.U. after   22 cycles
 SCF Done:  E(UB3LYP) =  -880.933918320     A.U. after   22 cycles
 SCF Done:  E(UB3LYP) =  -880.970304684     A.U. after   18 cycles
 SCF Done:  E(UB3LYP) =  -880.966707047     A.U. after   21 cycles
 SCF Done:  E(UB3LYP) =  -880.970704209     A.U. after   16 cycles
 SCF Done:  E(UB3LYP) =  -880.970734721     A.U. after   18 cycles
 SCF Done:  E(UB3LYP) =  -880.970838726     A.U. after   18 cycles
 SCF Done:  E(UB3LYP) =  -880.970871179     A.U. after   17 cycles
 SCF Done:  E(UB3LYP) =  -880.970887936     A.U. after   15 cycles
 SCF Done:  E(UB3LYP) =  -880.970894583     A.U. after   16 cycles
 SCF Done:  E(UB3LYP) =  -880.970894962     A.U. after   12 cycles
 SCF Done:  E(UB3LYP) =  -880.970895011     A.U. after   10 cycles
 Optimization completed.
    -- Stationary point found.
 Normal termination of Gaussian 16 at Fri Jan 12 21:09:25 2024.

 ----------------------------------------------------------------------
 #P Geom=AllCheck Guess=TCheck SCRF=Check GenChk UB3LYP/6-311++G(d,p) F
 req
 ----------------------------------------------------------------------

 Structure from the checkpoint file:  "328-rad.chk"
 -------
 Radical
 -------
 Charge = -1 Multiplicity = 2

                          Input orientation:
 ---------------------------------------------------------------------
 Center     Atomic      Atomic             Coordinates (Angstroms)
 Number     Number       Type             X           Y           Z
 ---------------------------------------------------------------------
      1          6           0       -1.261944    2.542557   -0.808804
      2          6           0       -2.319425    1.900155   -0.215186
      3          6           0       -2.151103    0.597918    0.333400
      4          6           0        0.024591    1.931855   -0.893415
      5          6           0        0.193216    0.612727   -0.336825
      6          6           0       -0.926797   -0.021930    0.270677
      7          6           0        1.125407    2.562227   -1.494739
      8          6           0        2.379746    1.962209   -1.575072
      9          6           0        2.541532    0.639094   -1.013578
     10          6           0        1.459351    0.003218   -0.415866
     11          6           0        3.485643    2.690465   -2.222499
     12          6           0        4.805039    2.001701   -2.282606
     13          6           0        4.890361    0.668876   -1.695546
     14          6           0        3.843771    0.026445   -1.100189
     15          8           0        3.314343    3.834545   -2.697607
     16          8           0        5.811476    2.522299   -2.808961
     17          1           0       -1.388511    3.536255   -1.228240
     18          1           0       -3.290153    2.382923   -0.161520
     19          1           0       -2.993708    0.098148    0.800443
     20          1           0       -0.794756   -1.016410    0.687999
     21          1           0        1.022390    3.554703   -1.920664
     22          1           0        1.594590   -0.989099   -0.001362
     23          1           0        5.870113    0.212241   -1.769797
     24          8           0        3.919117   -1.236802   -0.537557
     25          6           0        5.180075   -1.886745   -0.530301
     26          6           0        5.033360   -3.176965    0.217112
     27          6           0        5.464052   -4.356588   -0.222447
     28          1           0        5.921466   -1.246597   -0.029133
     29          1           0        5.534294   -2.066888   -1.553287
     30          1           0        4.554208   -3.096874    1.190234
     31          1           0        5.931335   -4.463715   -1.196956
     32          1           0        5.366104   -5.256448    0.375025
 ---------------------------------------------------------------------

 SCF Done:  E(UB3LYP) =  -880.970895011     A.U. after    2 cycles

 Alpha  occ. eigenvalues --  -19.05413 -18.93862 -18.93666 -10.14530 -10.11854
 Alpha  occ. eigenvalues --  -10.11044 -10.10238 -10.08622 -10.08221 -10.07741
 Alpha  occ. eigenvalues --  -10.07673 -10.07633 -10.07509 -10.07468 -10.07264
 Alpha  occ. eigenvalues --  -10.06943 -10.06329 -10.05445 -10.05291 -10.04284
 Alpha  occ. eigenvalues --   -0.96776  -0.87459  -0.84786  -0.76927  -0.73529
 Alpha  occ. eigenvalues --   -0.71721  -0.67802  -0.66909  -0.63020  -0.61962
 Alpha  occ. eigenvalues --   -0.60716  -0.55000  -0.53024  -0.50038  -0.49289
 Alpha  occ. eigenvalues --   -0.48847  -0.46251  -0.42410  -0.41710  -0.40924
 Alpha  occ. eigenvalues --   -0.40577  -0.38183  -0.36941  -0.35205  -0.35021
 Alpha  occ. eigenvalues --   -0.33640  -0.33148  -0.31474  -0.30915  -0.29951
 Alpha  occ. eigenvalues --   -0.29591  -0.28809  -0.27944  -0.27503  -0.26830
 Alpha  occ. eigenvalues --   -0.25581  -0.25262  -0.25042  -0.23149  -0.22302
 Alpha  occ. eigenvalues --   -0.21966  -0.20572  -0.19876  -0.18262  -0.15815
 Alpha  occ. eigenvalues --   -0.11820  -0.11802  -0.10653  -0.08541  -0.01598
 Alpha virt. eigenvalues --    0.04839   0.05961   0.06074   0.06864   0.07950
 Alpha virt. eigenvalues --    0.08559   0.08956   0.09583   0.09947   0.10668
 Alpha virt. eigenvalues --    0.11107   0.11944   0.12149   0.12498   0.13947

  Beta  occ. eigenvalues --  -19.05340 -18.93158 -18.93089 -10.14534 -10.11655
  Beta  occ. eigenvalues --  -10.11044 -10.10239 -10.08526 -10.08086 -10.07761
  Beta  occ. eigenvalues --  -10.07652 -10.07594 -10.07499 -10.07400 -10.07231
  Beta  occ. eigenvalues --  -10.06869 -10.06353 -10.05367 -10.05244 -10.04320
  Beta  occ. eigenvalues --   -0.96612  -0.86386  -0.83613  -0.76806  -0.73364
  Beta  occ. eigenvalues --   -0.71640  -0.67577  -0.66787  -0.62798  -0.61825
  Beta  occ. eigenvalues --   -0.60653  -0.54347  -0.52917  -0.49869  -0.49225
  Beta  occ. eigenvalues --   -0.48716  -0.46000  -0.42251  -0.41595  -0.40863
  Beta  occ. eigenvalues --   -0.40419  -0.38078  -0.36842  -0.35112  -0.34875
  Beta  occ. eigenvalues --   -0.33533  -0.33047  -0.31400  -0.30810  -0.29564
  Beta  occ. eigenvalues --   -0.29198  -0.28694  -0.27689  -0.26792  -0.26419
  Beta  occ. eigenvalues --   -0.25185  -0.24740  -0.24063  -0.22947  -0.21840
  Beta  occ. eigenvalues --   -0.21490  -0.20237  -0.18600  -0.17173  -0.14864
  Beta  occ. eigenvalues --   -0.11164  -0.10761  -0.09813  -0.07951
  Beta virt. eigenvalues --    0.04624   0.05272   0.05960   0.06092   0.06860
  Beta virt. eigenvalues --    0.07950   0.08556   0.08961   0.09925   0.10808
  Beta virt. eigenvalues --    0.10954   0.11119   0.11977   0.12157   0.12513

 Mulliken charges and spin densities:
               1          2
     1  C   -0.141069   0.010953
     2  C   -0.256559   0.007417
     3  C   -0.337776   0.046068
     4  C    0.175782   0.027496
     5  C    0.059708   0.050346
     6  C   -0.163641  -0.022930
     7  C    0.016606   0.058925
     8  C    0.628783   0.075542
     9  C    0.203126   0.043395
    10  C   -0.090256  -0.014393
    11  C   -0.641211   0.077395
    12  C   -0.169939   0.111377
    13  C    0.239229  -0.051421
    14  C   -0.571940   0.084834
    15  O   -0.361544   0.268248
    16  O   -0.373485   0.211647
    17  H    0.119244   0.000066
    18  H    0.128224  -0.000930
    19  H    0.130632  -0.003596
    20  H    0.110463   0.001814
    21  H    0.129450  -0.005717
    22  H    0.080970   0.001291
    23  H    0.181262   0.000263
    24  O   -0.072611   0.017090
    25  C   -0.369192   0.002212
    26  C    0.090163   0.001431
    27  C   -0.435726  -0.002417
    28  H    0.144805   0.001430
    29  H    0.123895   0.001837
    30  H    0.173427   0.000194
    31  H    0.120632   0.000028
    32  H    0.128550   0.000104
 Sum of Mulliken charges =  -1.00000   1.00000

 Dipole moment (field-independent basis, Debye):
    X=            -15.9511    Y=            -12.3517    Z=             10.4085  Tot=             22.7010
 Quadrupole moment (field-independent basis, Debye-Ang):
   XX=           -203.2312   YY=           -161.8280   ZZ=           -150.8060
   XY=            -52.2127   XZ=             46.1519   YZ=             31.8906

  Exact polarizability: 388.361 -24.621 256.201 -70.350 -47.307 162.431
 Approx polarizability: 631.565   1.238 405.100-133.486 -85.362 271.319

                      1                      2                      3
                      A                      A                      A
 Frequencies --     32.4068                52.7219                61.7018
 Red. masses --      4.8463                 3.8615                 5.9111
 Frc consts  --      0.0030                 0.0063                 0.0133
 IR Inten    --      0.0275                 0.4867                 0.7347

                      4                      5                      6
                      A                      A                      A
 Frequencies --     81.5050                96.3023               104.8485
 Red. masses --      4.3601                 2.6308                 4.2269
 Frc consts  --      0.0171                 0.0144                 0.0274
 IR Inten    --      1.8054                 1.2722                 0.3063

                      7                      8                      9
                      A                      A                      A
 Frequencies --    129.3404               181.3653               199.9171
 Red. masses --      3.6962                 5.6734                 7.1025
 Frc consts  --      0.0364                 0.1100                 0.1672
 IR Inten    --      0.3372                 1.0653                 5.0798

                     10                     11                     12
                      A                      A                      A
 Frequencies --    244.2981               264.3040               266.2356
 Red. masses --      4.4649                 4.6142                 4.6025
 Frc consts  --      0.1570                 0.1899                 0.1922
 IR Inten    --      0.0573                 4.8443                 5.3106

                     13                     14                     15
                      A                      A                      A
 Frequencies --    283.2037               337.7207               357.7137
 Red. masses --      4.6112                 5.7470                10.7418
 Frc consts  --      0.2179                 0.3862                 0.8098
 IR Inten    --      0.1599                 3.4202                 0.1125

                     16                     17                     18
                      A                      A                      A
 Frequencies --    388.8326               397.8865               447.7827
 Red. masses --      6.7015                 3.7074                 6.3832
 Frc consts  --      0.5970                 0.3458                 0.7541
 IR Inten    --      1.4436                 0.0401                 0.8829

                     19                     20                     21
                      A                      A                      A
 Frequencies --    455.0110               475.9881               503.4787
 Red. masses --      3.0298                 2.6315                 5.4547
 Frc consts  --      0.3696                 0.3513                 0.8147
 IR Inten    --      7.9933                18.8945                10.8877

                     22                     23                     24
                      A                      A                      A
 Frequencies --    534.1524               544.0482               591.5032
 Red. masses --      4.1559                 5.9829                 6.5481
 Frc consts  --      0.6986                 1.0434                 1.3498
 IR Inten    --      0.3951                 5.1494                14.3995

                     25                     26                     27
                      A                      A                      A
 Frequencies --    592.3404               603.1201               636.0243
 Red. masses --      4.0069                 2.8684                 4.6039
 Frc consts  --      0.8283                 0.6147                 1.0973
 IR Inten    --      1.6546                18.9060                 1.6779

                     28                     29                     30
                      A                      A                      A
 Frequencies --    679.0197               704.5271               722.2096
 Red. masses --      2.8168                 5.5764                 6.4746
 Frc consts  --      0.7652                 1.6308                 1.9897
 IR Inten    --      5.0175                 0.4870                 1.8554

                     31                     32                     33
                      A                      A                      A
 Frequencies --    740.5099               750.0824               758.9342
 Red. masses --      1.4805                 3.8170                 4.2924
 Frc consts  --      0.4783                 1.2653                 1.4567
 IR Inten    --     41.3207                14.6541                 1.0502

                     34                     35                     36
                      A                      A                      A
 Frequencies --    777.9519               788.1728               833.4280
 Red. masses --      5.8301                 4.5756                 1.4268
 Frc consts  --      2.0789                 1.6747                 0.5839
 IR Inten    --     33.3633                 6.4541                 0.0124

                     37                     38                     39
                      A                      A                      A
 Frequencies --    840.2396               896.0659               915.8540
 Red. masses --      1.4646                 1.4406                 4.9801
 Frc consts  --      0.6092                 0.6815                 2.4612
 IR Inten    --     21.5081                13.8574                10.4795

                     40                     41                     42
                      A                      A                      A
 Frequencies --    921.5914               938.9154               942.0481
 Red. masses --      1.3599                 1.3606                 1.4146
 Frc consts  --      0.6805                 0.7067                 0.7397
 IR Inten    --     11.3577                26.2439                26.5654

                     43                     44                     45
                      A                      A                      A
 Frequencies --    951.3917               961.0049               982.1096
 Red. masses --      1.3486                 1.3055                 3.8102
 Frc consts  --      0.7192                 0.7103                 2.1653
 IR Inten    --      7.9565                 3.7485                 2.3568

                     46                     47                     48
                      A                      A                      A
 Frequencies --    997.9979              1016.6272              1025.3637
 Red. masses --      1.9523                 2.8852                 2.2807
 Frc consts  --      1.1457                 1.7569                 1.4128
 IR Inten    --      5.0523                12.1075                17.5669

                     49                     50                     51
                      A                      A                      A
 Frequencies --   1034.0423              1102.9238              1145.4904
 Red. masses --      1.3609                 4.6043                 2.9318
 Frc consts  --      0.8573                 3.2999                 2.2665
 IR Inten    --     24.3156                33.6497               324.5728

                     52                     53                     54
                      A                      A                      A
 Frequencies --   1157.7941              1164.7965              1171.1535
 Red. masses --      1.7781                 1.4272                 1.7048
 Frc consts  --      1.4043                 1.1409                 1.3777
 IR Inten    --    131.7034                33.6459                14.6451

                     55                     56                     57
                      A                      A                      A
 Frequencies --   1180.1018              1230.1596              1250.4619
 Red. masses --      1.8366                 1.9445                 1.8015
 Frc consts  --      1.5070                 1.7337                 1.6596
 IR Inten    --    137.8062                43.8524                20.9071

                     58                     59                     60
                      A                      A                      A
 Frequencies --   1257.0343              1260.3669              1280.3114
 Red. masses --      3.2119                 1.1852                 1.8238
 Frc consts  --      2.9902                 1.1093                 1.7614
 IR Inten    --     25.0993                 6.3576                 9.8846

                     61                     62                     63
                      A                      A                      A
 Frequencies --   1311.2590              1340.1450              1368.0124
 Red. masses --      1.2739                 3.2557                 1.5352
 Frc consts  --      1.2905                 3.4450                 1.6927
 IR Inten    --      0.3249                22.6216               173.6985

                     64                     65                     66
                      A                      A                      A
 Frequencies --   1387.3816              1400.6896              1408.8594
 Red. masses --      5.1766                 2.7754                 2.9950
 Frc consts  --      5.8707                 3.2081                 3.5025
 IR Inten    --      0.5001                 7.5868                88.1533

                     67                     68                     69
                      A                      A                      A
 Frequencies --   1450.8063              1457.4056              1472.4899
 Red. masses --      2.7157                 1.3381                 4.0836
 Frc consts  --      3.3678                 1.6745                 5.2168
 IR Inten    --    130.8702                50.2625               211.8257

                     70                     71                     72
                      A                      A                      A
 Frequencies --   1497.4036              1506.0356              1524.1060
 Red. masses --      2.4032                 1.1818                 4.8899
 Frc consts  --      3.1748                 1.5794                 6.6924
 IR Inten    --     13.3867                10.3554               243.6406

                     73                     74                     75
                      A                      A                      A
 Frequencies --   1546.8996              1583.2586              1594.5187
 Red. masses --      7.5635                 7.6468                 7.6012
 Frc consts  --     10.6634                11.2936                11.3866
 IR Inten    --    323.7735                62.8151               386.8361

                     76                     77                     78
                      A                      A                      A
 Frequencies --   1616.0254              1637.2762              1704.6883
 Red. masses --      6.7241                 5.9187                 4.7166
 Frc consts  --     10.3463                 9.3480                 8.0755
 IR Inten    --     51.0110                34.8741                11.7284

                     79                     80                     81
                      A                      A                      A
 Frequencies --   2967.9759              3013.7701              3121.1764
 Red. masses --      1.0610                 1.0986                 1.0580
 Frc consts  --      5.5068                 5.8793                 6.0726
 IR Inten    --     48.1221                30.2758                16.5034

                     82                     83                     84
                      A                      A                      A
 Frequencies --   3135.6923              3139.8580              3143.7051
 Red. masses --      1.0838                 1.0919                 1.0867
 Frc consts  --      6.2784                 6.3426                 6.3279
 IR Inten    --      1.5461                 6.1029                 4.3221

                     85                     86                     87
                      A                      A                      A
 Frequencies --   3157.0013              3169.4419              3171.3977
 Red. masses --      1.0931                 1.0960                 1.0899
 Frc consts  --      6.4186                 6.4868                 6.4583
 IR Inten    --     49.5502                48.9808                19.6540

                     88                     89                     90
                      A                      A                      A
 Frequencies --   3177.8022              3179.9403              3204.1828
 Red. masses --      1.0891                 1.0886                 1.1150
 Frc consts  --      6.4799                 6.4858                 6.7449
 IR Inten    --     10.2149                27.7284                20.9385

 - Thermochemistry -
 -------------------
 Temperature   298.150 Kelvin.  Pressure   1.00000 Atm.
 Atom     1 has atomic number  6 and mass  12.00000

 Molecular mass:   264.07864 amu.
 Principal axes and moments of inertia in atomic units:
                           1         2         3
     Eigenvalues --  4143.954327504.87819**********
           X            0.89073   0.37549   0.25615
           Y           -0.45022   0.80629   0.38367
           Z           -0.06246  -0.45707   0.88724
 This molecule is an asymmetric top.
 Rotational symmetry number  1.
 Warning -- assumption of classical behavior for rotation
           may cause significant error
 Rotational temperatures (Kelvin)      0.02090     0.01154     0.00747
 Rotational constants (GHZ):           0.43551     0.24048     0.15572
 Zero-point vibrational energy     631817.5 (Joules/Mol)
                                  151.00801 (Kcal/Mol)
 Warning -- explicit consideration of  26 degrees of freedom as
           vibrations may cause significant error
 Vibrational temperatures:     46.63    75.86    88.78   117.27   138.56
          (Kelvin)            150.85   186.09   260.94   287.64   351.49
                              380.27   383.05   407.47   485.90   514.67
                              559.44   572.47   644.26   654.66   684.84
                              724.39   768.53   782.76   851.04   852.25
                              867.76   915.10   976.96  1013.66  1039.10
                             1065.43  1079.20  1091.94  1119.30  1134.00
                             1199.12  1208.92  1289.24  1317.71  1325.96
                             1350.89  1355.40  1368.84  1382.67  1413.04
                             1435.90  1462.70  1475.27  1487.76  1586.86
                             1648.11  1665.81  1675.88  1685.03  1697.90
                             1769.93  1799.14  1808.59  1813.39  1842.08
                             1886.61  1928.17  1968.26  1996.13  2015.28
                             2027.03  2087.39  2096.88  2118.58  2154.43
                             2166.85  2192.85  2225.64  2277.96  2294.16
                             2325.10  2355.68  2452.67  4270.26  4336.14
                             4490.68  4511.56  4517.56  4523.09  4542.22
                             4560.12  4562.93  4572.15  4575.22  4610.10

 Zero-point correction=                           0.240647 (Hartree/Particle)
 Thermal correction to Energy=                    0.257023
 Thermal correction to Enthalpy=                  0.257967
 Thermal correction to Gibbs Free Energy=         0.195066
 Sum of electronic and zero-point Energies=           -880.730248
 Sum of electronic and thermal Energies=              -880.713872
 Sum of electronic and thermal Enthalpies=            -880.712928
 Sum of electronic and thermal Free Energies=         -880.775829

                     E (Thermal)             CV                S
                      KCal/Mol        Cal/Mol-Kelvin    Cal/Mol-Kelvin
 Total                  161.284             64.167            132.387
 Electronic               0.000              0.000              1.377
 Translational            0.889              2.981             42.613
 Rotational               0.889              2.981             34.243
 Vibrational            159.507             58.205             54.153
 Vibration     1          0.594              1.983              5.676
 Vibration     2          0.596              1.977              4.713
 Vibration     3          0.597              1.973              4.402
 Vibration     4          0.600              1.962              3.854
 Vibration     5          0.603              1.952              3.528
 Vibration     6          0.605              1.945              3.362
 Vibration     7          0.612              1.924              2.956
 Vibration     8          0.630              1.865              2.314
 Vibration     9          0.638              1.840              2.134
 Vibration    10          0.660              1.772              1.771
 Vibration    11          0.671              1.738              1.633
 Vibration    12          0.672              1.735              1.621
 Vibration    13          0.682              1.705              1.514
 Vibration    14          0.718              1.600              1.223
 Vibration    15          0.733              1.559              1.132
 Vibration    16          0.757              1.494              1.005
 Vibration    17          0.764              1.475              0.970
 Vibration    18          0.807              1.366              0.803
 Vibration    19          0.813              1.350              0.781
 Vibration    20          0.833              1.303              0.721
 Vibration    21          0.859              1.242              0.649
 Vibration    22          0.889              1.174              0.578
 Vibration    23          0.899              1.153              0.557
 Vibration    24          0.949              1.050              0.465
 Vibration    25          0.950              1.048              0.463
 Vibration    26          0.962              1.025              0.444

 Optimization completed.
    -- Stationary point found.
 Normal termination of Gaussian 16 at Fri Jan 12 21:53:12 2024.
