 Gaussian 16, Revision A.03,
 Gaussian 16:  ES64L-G16RevA.03 25-Dec-2016

 ----------------------------------------------------------------
 #P UB3LYP/6-311++G(d,p) SCRF=(PCM,Solvent=n,n-DiMethylFormamide)
 ----------------------------------------------------------------

 ------------------
 Radical PCM in DMF
 ------------------
 Symbolic Z-matrix:
 Charge = -1 Multiplicity = 2

                         Standard orientation:
 ---------------------------------------------------------------------
 Center     Atomic      Atomic             Coordinates (Angstroms)
 Number     Number       Type             X           Y           Z
 ---------------------------------------------------------------------
      1          6           0        4.162097   -0.028925    0.045134
      2          6           0        4.818628   -1.234003    0.035970
      3          6           0        4.082557   -2.451498    0.004294
      4          6           0        2.737299    0.040093    0.023335
      5          6           0        1.993379   -1.194355   -0.009056
      6          6           0        2.709284   -2.424675   -0.017436
      7          6           0        2.036568    1.256498    0.032806
      8          6           0        0.645360    1.319148    0.011395
      9          6           0       -0.094180    0.076553   -0.022065
     10          6           0        0.587373   -1.135107   -0.031013
     11          6           0       -0.015889    2.636396    0.023010
     12          6           0       -1.505266    2.645385    0.000897
     13          6           0       -2.180840    1.352765   -0.031884
     14          6           0       -1.533814    0.151227   -0.045379
     15          8           0        0.651736    3.693513    0.050776
     16          8           0       -2.171087    3.702545    0.010107
     17          1           0        4.722080    0.901238    0.069557
     18          1           0        5.903556   -1.263976    0.053037
     19          1           0        4.611103   -3.399379   -0.002355
     20          1           0        2.144008   -3.352299   -0.041090
     21          1           0        2.574928    2.198090    0.057403
     22          1           0        0.020164   -2.058444   -0.053815
     23          1           0       -3.262392    1.416522   -0.043005
     24          8           0       -2.168948   -1.078973   -0.080549
     25          6           0       -3.585142   -1.093428   -0.162280
     26          6           0       -4.028317   -2.518579   -0.294036
     27          6           0       -4.987357   -3.080993    0.436821
     28          1           0       -3.909115   -0.518274   -1.042540
     29          1           0       -4.033854   -0.625901    0.723439
     30          1           0       -3.519556   -3.092669   -1.065108
     31          1           0       -5.498533   -2.532475    1.222521
     32          1           0       -5.296431   -4.108118    0.276190
 ---------------------------------------------------------------------

 SCF Done:  E(UB3LYP) =  -881.058020460     A.U. after   20 cycles

 The electronic state is 2-A.
 Alpha  occ. eigenvalues --  -19.15938 -19.07453 -19.07277 -10.23744 -10.23122
 Alpha  occ. eigenvalues --  -10.21783 -10.21399 -10.18589 -10.18556 -10.18484
 Alpha  occ. eigenvalues --  -10.18380 -10.17821 -10.17772 -10.17720 -10.17687
 Alpha  occ. eigenvalues --  -10.17686 -10.17561 -10.17389 -10.17086 -10.15984
 Alpha  occ. eigenvalues --   -1.07209  -1.01226  -0.98558  -0.88013  -0.84250
 Alpha  occ. eigenvalues --   -0.80533  -0.78492  -0.77871  -0.73688  -0.73251
 Alpha  occ. eigenvalues --   -0.70273  -0.66536  -0.63795  -0.61071  -0.59759
 Alpha  occ. eigenvalues --   -0.57615  -0.56810  -0.53245  -0.52549  -0.51720
 Alpha  occ. eigenvalues --   -0.49523  -0.48635  -0.46352  -0.46032  -0.45137
 Alpha  occ. eigenvalues --   -0.44081  -0.43068  -0.42579  -0.42058  -0.41589
 Alpha  occ. eigenvalues --   -0.41185  -0.40060  -0.39594  -0.39245  -0.37403
 Alpha  occ. eigenvalues --   -0.36812  -0.36437  -0.35109  -0.34910  -0.34144
 Alpha  occ. eigenvalues --   -0.33005  -0.32035  -0.29356  -0.27930  -0.26879
 Alpha  occ. eigenvalues --   -0.25802  -0.23346  -0.22419  -0.22192  -0.14605
 Alpha virt. eigenvalues --   -0.06294  -0.01691  -0.01184  -0.00359  -0.00007
 Alpha virt. eigenvalues --    0.00235   0.00903   0.01622   0.01788   0.02466
 Alpha virt. eigenvalues --    0.03138   0.03824   0.03948   0.04042   0.04783

  Beta  occ. eigenvalues --  -19.15843 -19.06803 -19.06760 -10.23529 -10.23126
  Beta  occ. eigenvalues --  -10.21618 -10.21167 -10.18536 -10.18512 -10.18472
  Beta  occ. eigenvalues --  -10.18380 -10.17840 -10.17760 -10.17697 -10.17696
  Beta  occ. eigenvalues --  -10.17651 -10.17553 -10.17390 -10.16988 -10.16066
  Beta  occ. eigenvalues --   -1.07004  -1.00204  -0.97476  -0.87892  -0.84045
  Beta  occ. eigenvalues --   -0.80457  -0.78305  -0.77735  -0.73473  -0.73130
  Beta  occ. eigenvalues --   -0.70161  -0.65825  -0.63686  -0.60771  -0.59692
  Beta  occ. eigenvalues --   -0.57530  -0.56614  -0.53066  -0.52374  -0.51609
  Beta  occ. eigenvalues --   -0.49397  -0.48481  -0.46268  -0.45813  -0.45034
  Beta  occ. eigenvalues --   -0.43948  -0.42828  -0.42361  -0.41835  -0.40947
  Beta  occ. eigenvalues --   -0.40546  -0.39807  -0.39383  -0.38232  -0.37309
  Beta  occ. eigenvalues --   -0.36549  -0.35536  -0.35045  -0.34044  -0.33285
  Beta  occ. eigenvalues --   -0.32952  -0.30763  -0.28836  -0.27853  -0.26097
  Beta  occ. eigenvalues --   -0.25223  -0.22483  -0.21878  -0.21643
  Beta virt. eigenvalues --   -0.08150  -0.05734  -0.01299  -0.00501  -0.00351
  Beta virt. eigenvalues --    0.00235   0.00350   0.00923   0.01636   0.01795
  Beta virt. eigenvalues --    0.02514   0.03166   0.03865   0.04057   0.04748

 Mulliken charges and spin densities:
               1          2
     1  C   -0.148555   0.026811
     2  C   -0.304424  -0.003745
     3  C   -0.368605   0.041042
     4  C    0.131470  -0.000647
     5  C    0.035518   0.040992
     6  C   -0.153207  -0.017989
     7  C    0.016132   0.102572
     8  C    0.560586   0.010018
     9  C    0.146977   0.031771
    10  C   -0.103537  -0.003678
    11  C   -0.536498   0.147328
    12  C   -0.021933   0.155369
    13  C    0.176351  -0.084483
    14  C   -0.571656   0.102318
    15  O   -0.491442   0.245975
    16  O   -0.505882   0.185839
    17  H    0.161767  -0.000941
    18  H    0.184898  -0.000117
    19  H    0.188993  -0.002946
    20  H    0.162487   0.001422
    21  H    0.138327  -0.007864
    22  H    0.125815   0.000423
    23  H    0.217606   0.002254
    24  O   -0.095408   0.023767
    25  C   -0.388834   0.001090
    26  C    0.086487   0.000401
    27  C   -0.481582  -0.001445
    28  H    0.167673   0.002039
    29  H    0.159678   0.002232
    30  H    0.197289   0.000068
    31  H    0.148354   0.000041
    32  H    0.165155   0.000079
 Sum of Mulliken charges =  -1.00000   1.00000

 Dipole moment (field-independent basis, Debye):
    X=              1.3282    Y=            -17.4850    Z=             -0.3226  Tot=             17.5384
 Quadrupole moment (field-independent basis, Debye-Ang):
   XX=           -117.2176   YY=           -183.6149   ZZ=           -122.9791
   XY=             16.8024   XZ=             -0.6829   YZ=              0.3966

 Normal termination of Gaussian 16 at Sat Jan 13 19:23:45 2024.
