 Gaussian 16, Revision A.03,
 Gaussian 16:  ES64L-G16RevA.03 25-Dec-2016

 --------------------------------------
 #P UB3LYP/6-311++G(d,p) nosym opt freq
 --------------------------------------

 -------
 Radical
 -------
 Symbolic Z-matrix:
 Charge = -1 Multiplicity = 2

 SCF Done:  E(UB3LYP) =  -1051.50617256     A.U. after   24 cycles
 SCF Done:  E(UB3LYP) =  -1051.52132689     A.U. after   20 cycles
 SCF Done:  E(UB3LYP) =  -1051.52252275     A.U. after   21 cycles
 SCF Done:  E(UB3LYP) =  -1051.52218002     A.U. after   19 cycles
 SCF Done:  E(UB3LYP) =  -1051.52330093     A.U. after   19 cycles
 SCF Done:  E(UB3LYP) =  -1051.52427588     A.U. after   20 cycles
 SCF Done:  E(UB3LYP) =  -1051.52451879     A.U. after   17 cycles
 SCF Done:  E(UB3LYP) =  -1051.52460733     A.U. after   16 cycles
 SCF Done:  E(UB3LYP) =  -1051.52463693     A.U. after   16 cycles
 SCF Done:  E(UB3LYP) =  -1051.52466374     A.U. after   14 cycles
 SCF Done:  E(UB3LYP) =  -1051.52469528     A.U. after   15 cycles
 SCF Done:  E(UB3LYP) =  -1051.52471144     A.U. after   15 cycles
 SCF Done:  E(UB3LYP) =  -1051.52471752     A.U. after   15 cycles
 SCF Done:  E(UB3LYP) =  -1051.52471840     A.U. after   13 cycles
 SCF Done:  E(UB3LYP) =  -1051.52471856     A.U. after   12 cycles
 SCF Done:  E(UB3LYP) =  -1051.52471858     A.U. after   10 cycles
 Optimization completed.
    -- Stationary point found.
 Normal termination of Gaussian 16 at Tue Dec 26 22:07:04 2023.

 ----------------------------------------------------------------------
 #P Geom=AllCheck Guess=TCheck SCRF=Check GenChk UB3LYP/6-311++G(d,p) F
 req
 ----------------------------------------------------------------------

 Structure from the checkpoint file:  "278-rad.chk"
 -------
 Radical
 -------
 Charge = -1 Multiplicity = 2

                          Input orientation:
 ---------------------------------------------------------------------
 Center     Atomic      Atomic             Coordinates (Angstroms)
 Number     Number       Type             X           Y           Z
 ---------------------------------------------------------------------
      1          6           0        0.256185    3.935811    0.326639
      2          6           0       -0.908071    3.544099    0.963355
      3          6           0       -1.266771    2.182456    0.994613
      4          6           0        1.096244    2.990195   -0.293862
      5          6           0        0.735091    1.622155   -0.263997
      6          6           0       -0.454819    1.241133    0.387505
      7          6           0        2.320471    3.447516   -0.975234
      8          6           0        3.146786    2.405929   -1.557929
      9          6           0        2.803769    1.052720   -1.530671
     10          6           0        1.578257    0.599252   -0.899681
     11          8           0        2.605434    4.670912   -1.027171
     12          8           0        1.244300   -0.617345   -0.877177
     13          1           0        0.556746    4.976234    0.282990
     14          1           0       -1.545138    4.284698    1.438168
     15          1           0       -2.180901    1.873249    1.493234
     16          1           0       -0.705567    0.186652    0.392855
     17         16           0        4.616983    2.915461   -2.457149
     18          6           0        3.662861   -0.015857   -2.156871
     19          1           0        3.555433   -0.029826   -3.249215
     20          1           0        3.348755   -0.990512   -1.782667
     21          1           0        4.721865    0.153468   -1.948457
     22          6           0        5.532691    3.933832   -1.220756
     23          6           0        6.770174    4.541883   -1.874908
     24          1           0        5.812061    3.286690   -0.385471
     25          1           0        4.844449    4.700029   -0.868046
     26          1           0        7.440939    3.771670   -2.269364
     27          1           0        7.331613    5.134795   -1.144647
     28          1           0        6.491778    5.202270   -2.701096
 ---------------------------------------------------------------------

 SCF Done:  E(UB3LYP) =  -1051.52471858     A.U. after    2 cycles

 Alpha  occ. eigenvalues --  -88.71521 -18.94494 -18.94449 -10.09731 -10.09143
 Alpha  occ. eigenvalues --  -10.07819 -10.07033 -10.06551 -10.05910 -10.05858
 Alpha  occ. eigenvalues --  -10.05176 -10.05145 -10.05100 -10.05019 -10.04944
 Alpha  occ. eigenvalues --  -10.03438  -7.80125  -5.76517  -5.76152  -5.75510
 Alpha  occ. eigenvalues --   -0.87239  -0.86805  -0.73776  -0.70338  -0.67572
 Alpha  occ. eigenvalues --   -0.63693  -0.62987  -0.60434  -0.56137  -0.53443
 Alpha  occ. eigenvalues --   -0.50191  -0.47718  -0.46156  -0.43042  -0.39096
 Alpha  occ. eigenvalues --   -0.37264  -0.35134  -0.34227  -0.33692  -0.32064
 Alpha  occ. eigenvalues --   -0.30593  -0.30516  -0.29159  -0.28551  -0.27989
 Alpha  occ. eigenvalues --   -0.27321  -0.26376  -0.25833  -0.25497  -0.24538
 Alpha  occ. eigenvalues --   -0.24171  -0.23007  -0.22506  -0.21599  -0.19598
 Alpha  occ. eigenvalues --   -0.14502  -0.13553  -0.13281  -0.11552  -0.10621
 Alpha  occ. eigenvalues --   -0.09634  -0.02393
 Alpha virt. eigenvalues --    0.07508   0.08237   0.08644   0.09845   0.09890
 Alpha virt. eigenvalues --    0.10228   0.10514   0.11299   0.12101   0.12639
 Alpha virt. eigenvalues --    0.13025   0.13829   0.14383   0.15255   0.15459

  Beta  occ. eigenvalues --  -88.71520 -18.93904 -18.93758 -10.09602 -10.09018
  Beta  occ. eigenvalues --  -10.07809 -10.07033 -10.06427 -10.05877 -10.05823
  Beta  occ. eigenvalues --  -10.05152 -10.05102 -10.04976 -10.04958 -10.04886
  Beta  occ. eigenvalues --  -10.03453  -7.80124  -5.76520  -5.76154  -5.75499
  Beta  occ. eigenvalues --   -0.86211  -0.85616  -0.73587  -0.70030  -0.67363
  Beta  occ. eigenvalues --   -0.63506  -0.62839  -0.60171  -0.55963  -0.52801
  Beta  occ. eigenvalues --   -0.50082  -0.47581  -0.45875  -0.42808  -0.38881
  Beta  occ. eigenvalues --   -0.37047  -0.35084  -0.34027  -0.33619  -0.31966
  Beta  occ. eigenvalues --   -0.30497  -0.29798  -0.28860  -0.28312  -0.27557
  Beta  occ. eigenvalues --   -0.26711  -0.26189  -0.25660  -0.25346  -0.24299
  Beta  occ. eigenvalues --   -0.22928  -0.22113  -0.21438  -0.21252  -0.19292
  Beta  occ. eigenvalues --   -0.13118  -0.12713  -0.12010  -0.10914  -0.10045
  Beta  occ. eigenvalues --   -0.08991
  Beta virt. eigenvalues --    0.04166   0.07514   0.08231   0.09258   0.09857
  Beta virt. eigenvalues --    0.10214   0.10424   0.10909   0.11375   0.12202
  Beta virt. eigenvalues --    0.12667   0.13058   0.13831   0.14437   0.15271

 Mulliken charges and spin densities:
               1          2
     1  C   -0.049218   0.018182
     2  C   -0.455482   0.027514
     3  C   -0.356113   0.022542
     4  C    0.229670   0.010570
     5  C    0.892852   0.031180
     6  C   -0.008753   0.016899
     7  C   -1.407266   0.081079
     8  C    1.397480   0.091560
     9  C    0.990973   0.154417
    10  C   -1.488953   0.054711
    11  O   -0.355672   0.219025
    12  O   -0.365526   0.256437
    13  H    0.169394  -0.001758
    14  H    0.121851  -0.002340
    15  H    0.126662  -0.002139
    16  H    0.155619  -0.002335
    17  S   -0.654081   0.008354
    18  C   -0.291848  -0.004067
    19  H    0.146902   0.009879
    20  H    0.183496  -0.001141
    21  H    0.127083   0.004259
    22  C   -0.274845   0.004442
    23  C   -0.586286   0.002623
    24  H    0.152489   0.000809
    25  H    0.202611  -0.001325
    26  H    0.130996  -0.000118
    27  H    0.118490   0.000005
    28  H    0.147473   0.000738
 Sum of Mulliken charges =  -1.00000   1.00000

 Dipole moment (field-independent basis, Debye):
    X=             -9.7128    Y=             -9.9956    Z=              5.6568  Tot=             15.0416
 Quadrupole moment (field-independent basis, Debye-Ang):
   XX=           -137.8645   YY=           -156.3107   ZZ=           -119.6088
   XY=            -26.5056   XZ=             18.9248   YZ=             14.2968

  Exact polarizability: 259.718  21.729 227.966 -69.078  11.172 156.199
 Approx polarizability: 352.569  34.373 409.580 -87.133  17.108 241.227

                      1                      2                      3
                      A                      A                      A
 Frequencies --     39.9729                51.1663                60.7348
 Red. masses --      3.0190                 5.2171                 2.4695
 Frc consts  --      0.0028                 0.0080                 0.0054
 IR Inten    --      0.4240                 2.4751                 1.6946

                      4                      5                      6
                      A                      A                      A
 Frequencies --     78.7903                98.1408               128.1484
 Red. masses --      1.3387                 2.2079                 4.1417
 Frc consts  --      0.0049                 0.0125                 0.0401
 IR Inten    --      1.5051                 3.0718                 0.9728

                      7                      8                      9
                      A                      A                      A
 Frequencies --    161.4762               182.0924               222.4522
 Red. masses --      4.3569                 6.8533                 3.1356
 Frc consts  --      0.0669                 0.1339                 0.0914
 IR Inten    --      0.8167                 1.7879                 1.7309

                     10                     11                     12
                      A                      A                      A
 Frequencies --    241.5610               250.8200               282.8987
 Red. masses --      1.4162                 3.8866                 5.1102
 Frc consts  --      0.0487                 0.1441                 0.2410
 IR Inten    --      0.3316                 0.4609                 3.2872

                     13                     14                     15
                      A                      A                      A
 Frequencies --    294.5919               350.7396               388.1152
 Red. masses --      4.9930                 3.7119                 8.1013
 Frc consts  --      0.2553                 0.2690                 0.7190
 IR Inten    --      0.4397                 1.1179                 7.6320

                     16                     17                     18
                      A                      A                      A
 Frequencies --    392.4040               420.9697               427.7482
 Red. masses --      7.0882                 6.7624                 6.3582
 Frc consts  --      0.6431                 0.7061                 0.6854
 IR Inten    --      3.8397                 3.8745                 0.4472

                     19                     20                     21
                      A                      A                      A
 Frequencies --    449.6349               503.7882               528.6997
 Red. masses --      3.5091                10.1776                 4.8407
 Frc consts  --      0.4180                 1.5219                 0.7972
 IR Inten    --      0.8523                 0.2551                 0.2361

                     22                     23                     24
                      A                      A                      A
 Frequencies --    575.5990               661.7056               663.3461
 Red. masses --      6.6828                 5.4487                 4.9964
 Frc consts  --      1.3045                 1.4056                 1.2953
 IR Inten    --      9.1593                 7.3494                 2.1446

                     25                     26                     27
                      A                      A                      A
 Frequencies --    684.1965               695.7612               703.6966
 Red. masses --      4.8545                 4.4890                 3.1122
 Frc consts  --      1.3389                 1.2803                 0.9080
 IR Inten    --      2.7644                11.5334                40.9836

                     28                     29                     30
                      A                      A                      A
 Frequencies --    778.7341               790.7819               796.0037
 Red. masses --      1.7363                 4.1701                 1.1557
 Frc consts  --      0.6204                 1.5364                 0.4315
 IR Inten    --     27.0212                 0.0838                 4.4872

                     31                     32                     33
                      A                      A                      A
 Frequencies --    813.0568               851.0873               875.2474
 Red. masses --      6.0074                 4.9189                 1.4649
 Frc consts  --      2.3398                 2.0992                 0.6612
 IR Inten    --     31.1188                 2.9080                 0.0448

                     34                     35                     36
                      A                      A                      A
 Frequencies --    973.5426               980.6183               983.8476
 Red. masses --      6.0295                 1.3642                 1.2569
 Frc consts  --      3.3670                 0.7729                 0.7168
 IR Inten    --      9.0647                 2.5834                 0.0201

                     37                     38                     39
                      A                      A                      A
 Frequencies --    987.8057              1035.2709              1039.2028
 Red. masses --      2.0069                 1.8809                 1.2110
 Frc consts  --      1.1538                 1.1878                 0.7705
 IR Inten    --     13.1829                15.0831                10.8945

                     40                     41                     42
                      A                      A                      A
 Frequencies --   1039.5110              1046.2787              1069.1866
 Red. masses --      2.0714                 1.5107                 1.9638
 Frc consts  --      1.3188                 0.9743                 1.3227
 IR Inten    --     17.6288                 6.4596                14.4650

                     43                     44                     45
                      A                      A                      A
 Frequencies --   1109.0508              1134.4873              1151.7430
 Red. masses --      2.0461                 3.0523                 1.5378
 Frc consts  --      1.4828                 2.3146                 1.2019
 IR Inten    --     15.2065                 2.4947                 9.1386

                     46                     47                     48
                      A                      A                      A
 Frequencies --   1205.3141              1222.5949              1255.9596
 Red. masses --      2.2766                 3.0482                 1.3261
 Frc consts  --      1.9486                 2.6844                 1.2325
 IR Inten    --      2.1759                21.8220                24.4564

                     49                     50                     51
                      A                      A                      A
 Frequencies --   1263.8123              1281.1786              1357.4927
 Red. masses --      1.8600                 1.2976                 7.2882
 Frc consts  --      1.7503                 1.2549                 7.9130
 IR Inten    --     23.5543                11.3703                 3.7393

                     52                     53                     54
                      A                      A                      A
 Frequencies --   1364.4811              1389.6229              1400.7234
 Red. masses --      2.9138                 1.4508                 1.2338
 Frc consts  --      3.1963                 1.6506                 1.4263
 IR Inten    --      8.5132                60.6354                 1.3445

                     55                     56                     57
                      A                      A                      A
 Frequencies --   1448.4730              1461.4901              1475.4430
 Red. masses --      3.6014                 1.7790                 1.5015
 Frc consts  --      4.4518                 2.2388                 1.9259
 IR Inten    --     84.7698                73.3738                 4.0711

                     58                     59                     60
                      A                      A                      A
 Frequencies --   1486.4663              1488.8304              1500.6806
 Red. masses --      2.3390                 1.0424                 1.0522
 Frc consts  --      3.0450                 1.3614                 1.3961
 IR Inten    --      8.9095                 9.9940                 0.9150

                     61                     62                     63
                      A                      A                      A
 Frequencies --   1503.4377              1504.5435              1523.7250
 Red. masses --      1.0881                 1.3924                 5.2344
 Frc consts  --      1.4490                 1.8570                 7.1603
 IR Inten    --      3.7725                12.1449               376.4987

                     64                     65                     66
                      A                      A                      A
 Frequencies --   1541.2864              1608.0529              1627.9382
 Red. masses --      6.6430                 7.9933                 6.0260
 Frc consts  --      9.2978                12.1780                 9.4092
 IR Inten    --     38.7723                20.9888                 6.7088

                     67                     68                     69
                      A                      A                      A
 Frequencies --   2998.2250              3009.8299              3038.2923
 Red. masses --      1.0524                 1.0352                 1.0662
 Frc consts  --      5.5737                 5.5252                 5.7987
 IR Inten    --     70.5051                81.7504                25.0410

                     70                     71                     72
                      A                      A                      A
 Frequencies --   3060.7015              3062.7338              3078.5880
 Red. masses --      1.0809                 1.1012                 1.0978
 Frc consts  --      5.9661                 6.0860                 6.1303
 IR Inten    --     30.1290                37.3125                41.6698

                     73                     74                     75
                      A                      A                      A
 Frequencies --   3116.0383              3122.4221              3132.7287
 Red. masses --      1.1003                 1.1018                 1.0847
 Frc consts  --      6.2944                 6.3288                 6.2721
 IR Inten    --      7.8584                16.5887                15.5406

                     76                     77                     78
                      A                      A                      A
 Frequencies --   3152.1445              3182.9582              3185.3705
 Red. masses --      1.0915                 1.0912                 1.0926
 Frc consts  --      6.3898                 6.5135                 6.5320
 IR Inten    --     54.8416                10.2112                27.3567

 - Thermochemistry -
 -------------------
 Temperature   298.150 Kelvin.  Pressure   1.00000 Atm.
 Atom     1 has atomic number  6 and mass  12.00000

 Molecular mass:   232.05580 amu.
 Principal axes and moments of inertia in atomic units:
                           1         2         3
     Eigenvalues --  2146.217965398.918127303.42585
           X            0.89630  -0.13467   0.42250
           Y            0.23878   0.94942  -0.20394
           Z           -0.37366   0.28367   0.88312
 This molecule is an asymmetric top.
 Rotational symmetry number  1.
 Warning -- assumption of classical behavior for rotation
           may cause significant error
 Rotational temperatures (Kelvin)      0.04036     0.01604     0.01186
 Rotational constants (GHZ):           0.84089     0.33428     0.24711
 Zero-point vibrational energy     562521.7 (Joules/Mol)
                                  134.44592 (Kcal/Mol)
 Warning -- explicit consideration of  22 degrees of freedom as
           vibrations may cause significant error
 Vibrational temperatures:     57.51    73.62    87.38   113.36   141.20
          (Kelvin)            184.38   232.33   261.99   320.06   347.55
                              360.87   407.03   423.85   504.64   558.41
                              564.58   605.68   615.43   646.92   724.84
                              760.68   828.16   952.05   954.41   984.41
                             1001.05  1012.46  1120.42  1137.76  1145.27
                             1169.81  1224.52  1259.29  1400.71  1410.89
                             1415.54  1421.23  1489.52  1495.18  1495.62
                             1505.36  1538.32  1595.68  1632.27  1657.10
                             1734.18  1759.04  1807.05  1818.34  1843.33
                             1953.13  1963.18  1999.36  2015.33  2084.03
                             2102.76  2122.83  2138.69  2142.09  2159.14
                             2163.11  2164.70  2192.30  2217.57  2313.63
                             2342.24  4313.78  4330.47  4371.42  4403.67
                             4406.59  4429.40  4483.28  4492.47  4507.30
                             4535.23  4579.57  4583.04

 Zero-point correction=                           0.214253 (Hartree/Particle)
 Thermal correction to Energy=                    0.229394
 Thermal correction to Enthalpy=                  0.230338
 Thermal correction to Gibbs Free Energy=         0.170413
 Sum of electronic and zero-point Energies=          -1051.310465
 Sum of electronic and thermal Energies=             -1051.295324
 Sum of electronic and thermal Enthalpies=           -1051.294380
 Sum of electronic and thermal Free Energies=        -1051.354306

                     E (Thermal)             CV                S
                      KCal/Mol        Cal/Mol-Kelvin    Cal/Mol-Kelvin
 Total                  143.947             56.770            126.123
 Electronic               0.000              0.000              1.377
 Translational            0.889              2.981             42.227
 Rotational               0.889              2.981             32.803
 Vibrational            142.170             50.808             49.715
 Vibration     1          0.594              1.981              5.260
 Vibration     2          0.595              1.977              4.772
 Vibration     3          0.597              1.973              4.433
 Vibration     4          0.600              1.963              3.921
 Vibration     5          0.604              1.950              3.491
 Vibration     6          0.611              1.925              2.974
 Vibration     7          0.622              1.890              2.532
 Vibration     8          0.630              1.864              2.307
 Vibration     9          0.648              1.807              1.939
 Vibration    10          0.658              1.777              1.791
 Vibration    11          0.663              1.761              1.725
 Vibration    12          0.682              1.705              1.516
 Vibration    13          0.689              1.684              1.447
 Vibration    14          0.728              1.574              1.163
 Vibration    15          0.756              1.496              1.007
 Vibration    16          0.760              1.486              0.991
 Vibration    17          0.783              1.425              0.889
 Vibration    18          0.789              1.410              0.866
 Vibration    19          0.809              1.362              0.797
 Vibration    20          0.859              1.242              0.649
 Vibration    21          0.884              1.186              0.590
 Vibration    22          0.932              1.084              0.494

 Optimization completed.
    -- Stationary point found.
 Normal termination of Gaussian 16 at Tue Dec 26 23:03:24 2023.
