 Q-Chem 5.4, Q-Chem, Inc., Pleasanton, CA (2021)
 Q-Chem 5.4.0 for Intel X86 EM64T Linux

User input:
--------------------------------------------------------------
$molecule
-1 2
N                 -2.8223150000      1.5163910000      1.2052100000
C                 -2.4829800000      0.5248780000      0.3310390000
C                 -3.4518600000     -0.2019410000     -0.3620320000
Br                -5.3241000000      0.2469000000     -0.1444110000
C                 -3.1382620000     -1.2544890000     -1.2194840000
C                 -1.8211590000     -1.6223040000     -1.3974440000
Br                -1.6068700000     -3.0979960000     -2.6361610000
C                 -0.7561040000     -0.9454720000     -0.7460000000
C                  0.6490710000     -1.3462970000     -0.9228570000
O                  0.9948250000     -2.3409890000     -1.5943800000
C                  1.6681110000     -0.5199450000     -0.2668580000
C                  3.0294280000     -0.8484250000     -0.4430390000
C                  4.0242430000     -0.0971750000      0.1503700000
C                  3.6839410000      1.0153570000      0.9487990000
C                  2.3578250000      1.3501460000      1.1345100000
C                  1.3277120000      0.5927760000      0.5334420000
C                 -0.0629300000      0.9708000000      0.7594820000
O                 -0.3142200000      1.9779760000      1.4929010000
C                 -1.0980960000      0.1688300000      0.1141500000
H                 -2.0303960000      2.0745050000      1.5356460000
H                 -3.7582350000      1.8836770000      1.1626550000
H                 -3.9253960000     -1.7807320000     -1.7398310000
H                  3.2585380000     -1.7085390000     -1.0605820000
H                  5.0672510000     -0.3610950000      0.0037500000
H                  4.4652850000      1.6063350000      1.4171790000
H                  2.0666950000      2.1968310000      1.7439470000
$end
$rem
MAX_SCF_CYCLES=200
BASIS  =  6-311++G(d,p)
GUI  =  2
JOB_TYPE  =  SP
METHOD  =  B3LYP
SOLVENT_METHOD = COSMO
$end
$solvent
dielectric 37.219
opticaldielectric 1.43
$end

--------------------------------------------------------------

             Standard Nuclear Orientation (Angstroms)
    I     Atom           X                Y                Z
 ----------------------------------------------------------------
    1      N      -1.3135615860    -2.8283017986    -0.1297097981
    2      C      -1.1053996367    -1.4819297281    -0.0498846186
    3      C      -2.1685235984    -0.5788708995    -0.0099607134
    4      Br     -3.9888657411    -1.2422661638     0.0090384342
    5      C      -1.9870229413     0.8023346794     0.0174908893
    6      C      -0.7111620274     1.3250175055    -0.0089579323
    7      Br     -0.6843448335     3.2625804026     0.0470538373
    8      C       0.4413070765     0.4958701955    -0.0429093257
    9      C       1.8033781659     1.0520324174    -0.0865188468
   10      O       2.0375543482     2.2762369654    -0.1664305686
   11      C       2.9171653212     0.0990123920    -0.0329852938
   12      C       4.2389017481     0.5941228298    -0.0341262991
   13      C       5.3191693091    -0.2639209420     0.0201928533
   14      C       5.1080166059    -1.6579953454     0.0748999258
   15      C       3.8224878473    -2.1605600640     0.0742595730
   16      C       2.7061071086    -1.2963752395     0.0203755712
   17      C       1.3622742111    -1.8637606035     0.0121057070
   18      O       1.2286105260    -3.1269507343     0.0561318522
   19      C       0.2345748323    -0.9378974726    -0.0353231098
   20      H      -0.4692366750    -3.3924603180    -0.0006536111
   21      H      -2.2319741737    -3.1778922795     0.0869950581
   22      H      -2.8437087696     1.4594693693     0.0566829839
   23      H       4.3683343036     1.6688230420    -0.0778699757
   24      H       6.3301739124     0.1321677564     0.0207532376
   25      H       5.9567429072    -2.3340716163     0.1163463820
   26      H       3.6300065815    -3.2256899208     0.1129244597
 ----------------------------------------------------------------

   11   -5891.4785769472      5.98e-06  Convergence criterion met
 Total energy in the final basis set =    -5891.4785769472
    4   -5891.5527695615      8.25e-06  Convergence criterion met
 Total energy in the final basis set =    -5891.5527695615

                    Orbital Energies (a.u.)
 --------------------------------------------------------------

 Alpha MOs
 -- Occupied --
********-482.8230 -62.4888 -62.4758 -56.3091 -56.3054 -56.3053 -56.2963
-56.2926 -56.2921 -19.0867 -19.0812 -14.3137 -10.2367 -10.2360 -10.2344
-10.2270 -10.2255 -10.1955 -10.1910 -10.1907 -10.1769 -10.1761 -10.1751
-10.1746 -10.1722 -10.1718  -8.6974  -8.6845  -6.5285  -6.5161  -6.5160
 -6.5159  -6.5035  -6.5023  -2.6396  -2.6357  -2.6357  -2.6269  -2.6260
 -2.6260  -2.6235  -2.6227  -2.6127  -2.6127  -1.0160  -1.0134  -0.9314
 -0.8701  -0.8592  -0.8187  -0.8016  -0.7680  -0.7538  -0.7392  -0.7215
 -0.6719  -0.6409  -0.6285  -0.5871  -0.5653  -0.5568  -0.5259  -0.5153
 -0.4879  -0.4778  -0.4568  -0.4535  -0.4482  -0.4369  -0.4261  -0.4205
 -0.4191  -0.4064  -0.4003  -0.3922  -0.3855  -0.3694  -0.3556  -0.3546
 -0.3433  -0.3407  -0.3178  -0.3021  -0.2943  -0.2919  -0.2691  -0.2596
 -0.2548  -0.2528  -0.2351  -0.2182  -0.1471

 Beta MOs
 -- Occupied --
********-482.8230 -62.4888 -62.4758 -56.3091 -56.3054 -56.3053 -56.2963
-56.2925 -56.2921 -19.0818 -19.0756 -14.3135 -10.2361 -10.2348 -10.2330
-10.2267 -10.2241 -10.1943 -10.1908 -10.1901 -10.1763 -10.1755 -10.1748
-10.1743 -10.1721 -10.1718  -8.6974  -8.6845  -6.5285  -6.5160  -6.5159
 -6.5159  -6.5034  -6.5023  -2.6396  -2.6357  -2.6356  -2.6268  -2.6260
 -2.6259  -2.6234  -2.6227  -2.6127  -2.6126  -1.0072  -1.0039  -0.9303
 -0.8679  -0.8578  -0.8170  -0.7994  -0.7664  -0.7518  -0.7376  -0.7188
 -0.6658  -0.6388  -0.6261  -0.5862  -0.5634  -0.5551  -0.5242  -0.5141
 -0.4856  -0.4756  -0.4556  -0.4524  -0.4473  -0.4272  -0.4256  -0.4180
 -0.4149  -0.4038  -0.3925  -0.3845  -0.3740  -0.3685  -0.3540  -0.3470
 -0.3400  -0.3352  -0.3141  -0.3020  -0.2931  -0.2861  -0.2541  -0.2528
 -0.2505  -0.2479  -0.2308  -0.2102

          Ground-State Mulliken Net Atomic Charges

     Atom                 Charge (a.u.)    Spin (a.u.)
  --------------------------------------------------------
      1 N                    -0.368402       0.010373
      2 C                    -0.321160       0.003352
      3 C                     0.247726       0.082116
      4 Br                   -0.244596       0.003344
      5 C                    -0.287619       0.048499
      6 C                     0.241063       0.042864
      7 Br                   -0.253219       0.005165
      8 C                     0.737740       0.094636
      9 C                    -0.889380       0.077368
     10 O                    -0.375251       0.203309
     11 C                     0.005431       0.021767
     12 C                     0.106614       0.024276
     13 C                    -0.529598       0.030448
     14 C                    -0.576572       0.023336
     15 C                     0.111081       0.030822
     16 C                    -0.058367      -0.005115
     17 C                    -0.290590       0.113684
     18 O                    -0.468374       0.178209
     19 C                     0.544691       0.025950
     20 H                     0.347209      -0.002091
     21 H                     0.268481      -0.000800
     22 H                     0.277087      -0.004031
     23 H                     0.183684      -0.001517
     24 H                     0.204113      -0.002578
     25 H                     0.204221      -0.002127
     26 H                     0.183986      -0.001259
  --------------------------------------------------------
  Sum of atomic charges =    -1.000000

                    Cartesian Multipole Moments
 -----------------------------------------------------------------
    Charge (ESU x 10^10)
                -4.8032
    Dipole Moment (Debye)
         X      -4.5062      Y      -1.8529      Z       0.8467
       Tot       4.9453
    Quadrupole Moments (Debye-Ang)
        XX    -145.7986     XY      -1.3678     YY    -168.1950
        XZ      -0.2893     YZ      -0.8231     ZZ    -142.6390

 Total job time:  118.10s(wall), 906.90s(cpu)
        *  Thank you very much for using Q-Chem.  Have a nice day.  *
