 Gaussian 16, Revision A.03,
 Gaussian 16:  ES64L-G16RevA.03 25-Dec-2016

 --------------------------------------
 #P UB3LYP/6-311++G(d,p) nosym opt freq
 --------------------------------------

 -------
 Radical
 -------
 Symbolic Z-matrix:
 Charge = -1 Multiplicity = 2

 SCF Done:  E(UB3LYP) =  -5891.48208367     A.U. after   23 cycles
 Optimization completed.
    -- Stationary point found.
 Normal termination of Gaussian 16 at Wed Dec 27 19:55:56 2023.

 ----------------------------------------------------------------------
 #P Geom=AllCheck Guess=TCheck SCRF=Check GenChk UB3LYP/6-311++G(d,p) F
 req
 ----------------------------------------------------------------------

 Structure from the checkpoint file:  "159-rad.chk"
 -------
 Radical
 -------
 Charge = -1 Multiplicity = 2

                          Input orientation:
 ---------------------------------------------------------------------
 Center     Atomic      Atomic             Coordinates (Angstroms)
 Number     Number       Type             X           Y           Z
 ---------------------------------------------------------------------
      1          7           0       -2.822315    1.516391    1.205210
      2          6           0       -2.482980    0.524878    0.331039
      3          6           0       -3.451860   -0.201941   -0.362032
      4         35           0       -5.324100    0.246900   -0.144411
      5          6           0       -3.138262   -1.254489   -1.219484
      6          6           0       -1.821159   -1.622304   -1.397444
      7         35           0       -1.606870   -3.097996   -2.636161
      8          6           0       -0.756104   -0.945472   -0.746000
      9          6           0        0.649071   -1.346297   -0.922857
     10          8           0        0.994825   -2.340989   -1.594380
     11          6           0        1.668111   -0.519945   -0.266858
     12          6           0        3.029428   -0.848425   -0.443039
     13          6           0        4.024243   -0.097175    0.150370
     14          6           0        3.683941    1.015357    0.948799
     15          6           0        2.357825    1.350146    1.134510
     16          6           0        1.327712    0.592776    0.533442
     17          6           0       -0.062930    0.970800    0.759482
     18          8           0       -0.314220    1.977976    1.492901
     19          6           0       -1.098096    0.168830    0.114150
     20          1           0       -2.030396    2.074505    1.535646
     21          1           0       -3.758235    1.883677    1.162655
     22          1           0       -3.925396   -1.780732   -1.739831
     23          1           0        3.258538   -1.708539   -1.060582
     24          1           0        5.067251   -0.361095    0.003750
     25          1           0        4.465285    1.606335    1.417179
     26          1           0        2.066695    2.196831    1.743947
 ---------------------------------------------------------------------

 SCF Done:  E(UB3LYP) =  -5891.48208367     A.U. after    1 cycles

 Alpha  occ. eigenvalues -- -482.73654-482.70656 -62.38941 -62.35928 -56.20952
 Alpha  occ. eigenvalues --  -56.20599 -56.20594 -56.17968 -56.17590 -56.17551
 Alpha  occ. eigenvalues --  -18.96599 -18.95764 -14.20560 -10.12472 -10.11741
 Alpha  occ. eigenvalues --  -10.11670 -10.11381 -10.11303 -10.08040 -10.07950
 Alpha  occ. eigenvalues --  -10.07630 -10.07018 -10.06960 -10.06342 -10.06292
 Alpha  occ. eigenvalues --  -10.06243 -10.06189  -8.59909  -8.56893  -6.42970
 Alpha  occ. eigenvalues --   -6.41801  -6.41777  -6.40039  -6.38781  -6.38669
 Alpha  occ. eigenvalues --   -2.54078  -2.53746  -2.53724  -2.52797  -2.52795
 Alpha  occ. eigenvalues --   -2.51129  -2.50792  -2.50708  -2.49705  -2.49704
 Alpha  occ. eigenvalues --   -0.89433  -0.88912  -0.82169  -0.75750  -0.74817
 Alpha  occ. eigenvalues --   -0.71253  -0.68748  -0.65805  -0.64257  -0.62948
 Alpha  occ. eigenvalues --   -0.60767  -0.55832  -0.52983  -0.51787  -0.47734
 Alpha  occ. eigenvalues --   -0.45270  -0.44792  -0.41506  -0.40633  -0.37601
 Alpha  occ. eigenvalues --   -0.36376  -0.34909  -0.34376  -0.33906  -0.31980
 Alpha  occ. eigenvalues --   -0.31624  -0.30768  -0.29592  -0.29002  -0.28596
 Alpha  occ. eigenvalues --   -0.27870  -0.27028  -0.25795  -0.24633  -0.24264
 Alpha  occ. eigenvalues --   -0.23018  -0.22659  -0.21234  -0.20345  -0.17540
 Alpha  occ. eigenvalues --   -0.17450  -0.15479  -0.14684  -0.14222  -0.13444
 Alpha  occ. eigenvalues --   -0.11254  -0.10458  -0.02868
 Alpha virt. eigenvalues --    0.05915   0.06604   0.07718   0.07909   0.08729
 Alpha virt. eigenvalues --    0.09449   0.09696   0.10272   0.10583   0.11450
 Alpha virt. eigenvalues --    0.12690   0.12887   0.13072   0.13699   0.14651

  Beta  occ. eigenvalues -- -482.73654-482.70655 -62.38941 -62.35927 -56.20953
  Beta  occ. eigenvalues --  -56.20597 -56.20593 -56.17968 -56.17586 -56.17550
  Beta  occ. eigenvalues --  -18.96063 -18.95151 -14.20548 -10.12483 -10.11560
  Beta  occ. eigenvalues --  -10.11540 -10.11377 -10.11211 -10.07963 -10.07806
  Beta  occ. eigenvalues --  -10.07592 -10.06986 -10.06914 -10.06330 -10.06253
  Beta  occ. eigenvalues --  -10.06240 -10.06114  -8.59909  -8.56890  -6.42973
  Beta  occ. eigenvalues --   -6.41800  -6.41773  -6.40038  -6.38774  -6.38668
  Beta  occ. eigenvalues --   -2.54080  -2.53747  -2.53723  -2.52795  -2.52793
  Beta  occ. eigenvalues --   -2.51127  -2.50788  -2.50708  -2.49701  -2.49700
  Beta  occ. eigenvalues --   -0.88532  -0.87875  -0.82059  -0.75541  -0.74675
  Beta  occ. eigenvalues --   -0.71113  -0.68508  -0.65645  -0.64088  -0.62764
  Beta  occ. eigenvalues --   -0.60526  -0.55209  -0.52795  -0.51555  -0.47650
  Beta  occ. eigenvalues --   -0.45098  -0.44622  -0.41357  -0.40519  -0.37393
  Beta  occ. eigenvalues --   -0.36135  -0.34793  -0.34275  -0.33830  -0.31601
  Beta  occ. eigenvalues --   -0.31136  -0.30643  -0.29056  -0.28708  -0.27895
  Beta  occ. eigenvalues --   -0.27705  -0.25734  -0.25286  -0.24494  -0.23520
  Beta  occ. eigenvalues --   -0.22852  -0.21793  -0.20827  -0.20330  -0.17419
  Beta  occ. eigenvalues --   -0.17005  -0.14122  -0.13663  -0.13469  -0.12971
  Beta  occ. eigenvalues --   -0.10758  -0.09732
  Beta virt. eigenvalues --    0.02869   0.06685   0.06808   0.07712   0.08733
  Beta virt. eigenvalues --    0.08984   0.09461   0.09693   0.10280   0.10842
  Beta virt. eigenvalues --    0.11464   0.12768   0.12890   0.13085   0.13716

 Mulliken charges and spin densities:
               1          2
     1  N   -0.307192   0.007428
     2  C   -0.278101  -0.000219
     3  C    0.142879   0.070162
     4  Br  -0.273330   0.002291
     5  C   -0.149003   0.066955
     6  C    0.289042   0.023345
     7  Br  -0.229878   0.003035
     8  C    0.641478   0.116016
     9  C   -1.009117   0.034733
    10  O   -0.254158   0.226342
    11  C    0.105464   0.042279
    12  C    0.102767   0.009203
    13  C   -0.468299   0.037715
    14  C   -0.519548   0.020929
    15  C    0.103627   0.027499
    16  C    0.078871  -0.000393
    17  C   -0.521388   0.097916
    18  O   -0.370101   0.197326
    19  C    0.525764   0.033517
    20  H    0.324937  -0.002435
    21  H    0.212775  -0.000886
    22  H    0.266530  -0.005150
    23  H    0.171436  -0.001149
    24  H    0.127013  -0.003162
    25  H    0.126714  -0.002078
    26  H    0.160816  -0.001220
 Sum of Mulliken charges =  -1.00000   1.00000

 Dipole moment (field-independent basis, Debye):
    X=              2.1379    Y=              3.3803    Z=              2.1242  Tot=              4.5287
 Quadrupole moment (field-independent basis, Debye-Ang):
   XX=           -162.9607   YY=           -159.9955   ZZ=           -154.3000
   XY=             -1.9553   XZ=             -1.4925   YZ=            -14.1608

  Exact polarizability: 401.067   5.044 224.632  20.713  83.229 185.960
 Approx polarizability: 581.757 -11.596 403.204  14.468 162.215 321.027

                      1                      2                      3
                      A                      A                      A
 Frequencies --     19.8474                32.6648                86.2627
 Red. masses --     11.9391                 8.7672                 7.8007
 Frc consts  --      0.0028                 0.0055                 0.0342
 IR Inten    --      2.3559                 1.4066                 1.2134

                      4                      5                      6
                      A                      A                      A
 Frequencies --    119.0386               127.9949               129.3519
 Red. masses --      8.3373                 5.4741                16.3778
 Frc consts  --      0.0696                 0.0528                 0.1615
 IR Inten    --      0.1763                 0.4355                 0.5579

                      7                      8                      9
                      A                      A                      A
 Frequencies --    137.4374               176.0644               214.7520
 Red. masses --     14.2750                 6.5027                15.4387
 Frc consts  --      0.1589                 0.1188                 0.4195
 IR Inten    --      1.1228                 0.4914                 1.7628

                     10                     11                     12
                      A                      A                      A
 Frequencies --    239.4251               269.8893               293.6799
 Red. masses --     11.6910                 4.4348                 6.8740
 Frc consts  --      0.3949                 0.1903                 0.3493
 IR Inten    --      0.5863                 6.0466                 4.0518

                     13                     14                     15
                      A                      A                      A
 Frequencies --    311.2795               346.7236               370.5419
 Red. masses --      6.7210                 2.8130                 2.3337
 Frc consts  --      0.3837                 0.1992                 0.1888
 IR Inten    --      6.1242                48.0587                68.5614

                     16                     17                     18
                      A                      A                      A
 Frequencies --    393.7983               416.0457               427.6730
 Red. masses --      4.0532                 6.5292                 7.0428
 Frc consts  --      0.3703                 0.6659                 0.7590
 IR Inten    --     27.1947                 1.9044                 5.8610

                     19                     20                     21
                      A                      A                      A
 Frequencies --    441.0865               455.7555               489.4284
 Red. masses --      3.6504                 7.4905                 8.2341
 Frc consts  --      0.4184                 0.9167                 1.1621
 IR Inten    --      4.5508                27.8846                 1.5877

                     22                     23                     24
                      A                      A                      A
 Frequencies --    495.1321               525.8574               576.7381
 Red. masses --      4.5118                 5.9445                 5.8596
 Frc consts  --      0.6517                 0.9685                 1.1484
 IR Inten    --     11.2788                 2.9700                 5.9993

                     25                     26                     27
                      A                      A                      A
 Frequencies --    618.8613               649.5205               664.1628
 Red. masses --      5.8185                 6.2214                 6.1349
 Frc consts  --      1.3130                 1.5464                 1.5944
 IR Inten    --      0.1586                 0.7581                24.8713

                     28                     29                     30
                      A                      A                      A
 Frequencies --    684.2802               712.9076               720.0389
 Red. masses --      8.2308                 3.0841                 6.3703
 Frc consts  --      2.2707                 0.9235                 1.9459
 IR Inten    --     88.0809                19.0175                 8.5949

                     31                     32                     33
                      A                      A                      A
 Frequencies --    729.7387               762.5237               788.1940
 Red. masses --      3.3988                 1.2151                 2.1397
 Frc consts  --      1.0664                 0.4163                 0.7832
 IR Inten    --      3.8496                79.1322                 8.9617

                     34                     35                     36
                      A                      A                      A
 Frequencies --    802.0822               811.4859               849.5880
 Red. masses --      5.0406                 6.9067                 1.3265
 Frc consts  --      1.9106                 2.6797                 0.5641
 IR Inten    --      0.7951                41.6442                11.2839

                     37                     38                     39
                      A                      A                      A
 Frequencies --    875.9474               900.1567               941.2665
 Red. masses --      1.4924                 7.8574                 7.0147
 Frc consts  --      0.6747                 3.7511                 3.6617
 IR Inten    --      0.0147                 6.7890                 9.6847

                     40                     41                     42
                      A                      A                      A
 Frequencies --    985.0741               989.3176              1021.9575
 Red. masses --      1.3381                 1.2889                 4.0632
 Frc consts  --      0.7650                 0.7432                 2.5003
 IR Inten    --      1.7761                 0.5987                24.4101

                     43                     44                     45
                      A                      A                      A
 Frequencies --   1044.4406              1110.6406              1116.4731
 Red. masses --      1.9973                 2.6459                 2.0637
 Frc consts  --      1.2837                 1.9229                 1.5156
 IR Inten    --     19.7865                58.0599                38.6551

                     46                     47                     48
                      A                      A                      A
 Frequencies --   1148.1333              1165.7749              1203.2403
 Red. masses --      1.4103                 3.5266                 2.1281
 Frc consts  --      1.0954                 2.8238                 1.8153
 IR Inten    --     28.1329                 1.9775                14.8162

                     49                     50                     51
                      A                      A                      A
 Frequencies --   1219.9004              1246.0841              1294.7045
 Red. masses --      2.7607                 1.8036                 2.5146
 Frc consts  --      2.4206                 1.6500                 2.4834
 IR Inten    --     50.3387                68.5638                39.3418

                     52                     53                     54
                      A                      A                      A
 Frequencies --   1308.6467              1356.3763              1367.6323
 Red. masses --      5.2709                 2.9524                 5.6599
 Frc consts  --      5.3184                 3.2003                 6.2373
 IR Inten    --     15.5031                 5.0769                60.3425

                     55                     56                     57
                      A                      A                      A
 Frequencies --   1375.7242              1381.5665              1474.9241
 Red. masses --      6.8003                 2.9495                 3.4671
 Frc consts  --      7.5830                 3.3169                 4.4438
 IR Inten    --     51.2884                58.8811                82.0117

                     58                     59                     60
                      A                      A                      A
 Frequencies --   1480.1439              1484.5225              1539.5979
 Red. masses --      4.3808                 2.4448                 6.5130
 Frc consts  --      5.6548                 3.1744                 9.0960
 IR Inten    --    104.8504                40.8232               736.1365

                     61                     62                     63
                      A                      A                      A
 Frequencies --   1551.2267              1565.7627              1593.7863
 Red. masses --      5.8067                 5.3922                 1.7301
 Frc consts  --      8.2325                 7.7887                 2.5893
 IR Inten    --     37.5338                 7.9936               226.6969

                     64                     65                     66
                      A                      A                      A
 Frequencies --   1617.6606              1631.5220              3138.3521
 Red. masses --      8.3929                 6.2855                 1.0851
 Frc consts  --     12.9400                 9.8577                 6.2969
 IR Inten    --     24.8062                 3.9618                16.9092

                     67                     68                     69
                      A                      A                      A
 Frequencies --   3157.2577              3190.3518              3193.6322
 Red. masses --      1.0918                 1.0916                 1.0923
 Frc consts  --      6.4122                 6.5459                 6.5640
 IR Inten    --     54.8483                10.1934                24.9154

                     70                     71                     72
                      A                      A                      A
 Frequencies --   3212.4190              3318.7040              3659.4356
 Red. masses --      1.0912                 1.0653                 1.0860
 Frc consts  --      6.6344                 6.9127                 8.5688
 IR Inten    --      1.3787               155.0543                57.4941

 - Thermochemistry -
 -------------------
 Temperature   298.150 Kelvin.  Pressure   1.00000 Atm.
 Atom     1 has atomic number  7 and mass  14.00307

 Molecular mass:   378.88435 amu.
 Principal axes and moments of inertia in atomic units:
                           1         2         3
     Eigenvalues --  5699.32514********************
           X            0.99667  -0.06515  -0.04901
           Y            0.02028   0.78038  -0.62498
           Z            0.07897   0.62190   0.77910
 This molecule is an asymmetric top.
 Rotational symmetry number  1.
 Warning -- assumption of classical behavior for rotation
           may cause significant error
 Rotational temperatures (Kelvin)      0.01520     0.00823     0.00534
 Rotational constants (GHZ):           0.31666     0.17155     0.11133
 Zero-point vibrational energy     453098.8 (Joules/Mol)
                                  108.29322 (Kcal/Mol)
 Warning -- explicit consideration of  25 degrees of freedom as
           vibrations may cause significant error
 Vibrational temperatures:     28.56    47.00   124.11   171.27   184.16
          (Kelvin)            186.11   197.74   253.32   308.98   344.48
                              388.31   422.54   447.86   498.86   533.13
                              566.59   598.60   615.33   634.63   655.73
                              704.18   712.38   756.59   829.80   890.40
                              934.52   955.58   984.53  1025.72  1035.98
                             1049.93  1097.10  1134.04  1154.02  1167.55
                             1222.37  1260.29  1295.12  1354.27  1417.30
                             1423.41  1470.37  1502.72  1597.96  1606.36
                             1651.91  1677.29  1731.19  1755.16  1792.84
                             1862.79  1882.85  1951.52  1967.72  1979.36
                             1987.77  2122.09  2129.60  2135.90  2215.14
                             2231.87  2252.78  2293.10  2327.45  2347.40
                             4515.39  4542.59  4590.20  4594.92  4621.95
                             4774.87  5265.11

 Zero-point correction=                           0.172576 (Hartree/Particle)
 Thermal correction to Energy=                    0.188329
 Thermal correction to Enthalpy=                  0.189273
 Thermal correction to Gibbs Free Energy=         0.126293
 Sum of electronic and zero-point Energies=          -5891.309507
 Sum of electronic and thermal Energies=             -5891.293755
 Sum of electronic and thermal Enthalpies=           -5891.292810
 Sum of electronic and thermal Free Energies=        -5891.355791

                     E (Thermal)             CV                S
                      KCal/Mol        Cal/Mol-Kelvin    Cal/Mol-Kelvin
 Total                  118.178             60.259            132.553
 Electronic               0.000              0.000              1.377
 Translational            0.889              2.981             43.689
 Rotational               0.889              2.981             35.229
 Vibrational            116.401             54.297             52.258
 Vibration     1          0.593              1.986              6.649
 Vibration     2          0.594              1.983              5.661
 Vibration     3          0.601              1.959              3.743
 Vibration     4          0.609              1.933              3.116
 Vibration     5          0.611              1.925              2.976
 Vibration     6          0.612              1.924              2.956
 Vibration     7          0.614              1.916              2.839
 Vibration     8          0.628              1.872              2.370
 Vibration     9          0.645              1.819              2.003
 Vibration    10          0.657              1.780              1.807
 Vibration    11          0.674              1.729              1.597
 Vibration    12          0.688              1.686              1.453
 Vibration    13          0.700              1.652              1.356
 Vibration    14          0.725              1.582              1.181
 Vibration    15          0.743              1.533              1.078
 Vibration    16          0.761              1.483              0.986
 Vibration    17          0.779              1.435              0.906
 Vibration    18          0.789              1.410              0.866
 Vibration    19          0.801              1.381              0.823
 Vibration    20          0.814              1.348              0.779
 Vibration    21          0.845              1.273              0.685
 Vibration    22          0.851              1.261              0.670
 Vibration    23          0.881              1.193              0.597
 Vibration    24          0.933              1.082              0.491
 Vibration    25          0.979              0.992              0.418

 Optimization completed.
    -- Stationary point found.
 Normal termination of Gaussian 16 at Wed Dec 27 21:21:50 2023.
