 Q-Chem 5.4, Q-Chem, Inc., Pleasanton, CA (2021)
 Q-Chem 5.4.0 for Intel X86 EM64T Linux

User input:
--------------------------------------------------------------
$molecule
-1 2
C                  3.7130260000      2.2247790000     -0.4577410000
O                  2.3683140000      1.8137190000     -0.3760710000
C                  2.0892050000      0.4831960000     -0.2391580000
C                  3.1006510000     -0.4670170000     -0.1792070000
C                  2.7859640000     -1.8340770000     -0.0376500000
C                  1.4756660000     -2.2362420000      0.0422640000
C                  0.4231840000     -1.2937850000     -0.0155060000
C                 -0.9405730000     -1.8197440000      0.0785510000
O                 -1.1683690000     -3.0515540000      0.2049300000
C                 -2.0214020000     -0.8425150000      0.0186520000
C                 -3.3628170000     -1.2795730000      0.1040550000
C                 -4.4094200000     -0.3816910000      0.0506300000
C                 -4.1445930000      0.9979970000     -0.0916660000
C                 -2.8395280000      1.4431250000     -0.1766970000
C                 -1.7531010000      0.5437610000     -0.1242780000
C                 -0.3841370000      1.0875930000     -0.2207860000
O                 -0.2160200000      2.3208220000     -0.3464570000
C                  0.7076650000      0.1052920000     -0.1596420000
H                  4.2243630000      1.7942820000     -1.3294060000
H                  4.2798730000      1.9655930000      0.4467370000
H                  3.6822210000      3.3101350000     -0.5614720000
H                  4.1384420000     -0.1692400000     -0.2401760000
H                  3.5910680000     -2.5617160000      0.0071110000
H                  1.1999150000     -3.2775680000      0.1514190000
H                 -3.5324830000     -2.3446140000      0.2127460000
H                 -5.4348990000     -0.7337640000      0.1176860000
H                 -4.9662860000      1.7071120000     -0.1340690000
H                 -2.6059310000      2.4956910000     -0.2863140000
$end
$rem
MAX_SCF_CYCLES=200
BASIS  =  6-311++G(d,p)
GUI  =  2
JOB_TYPE  =  SP
METHOD  =  B3LYP
SOLVENT_METHOD = PCM
$end
$pcm
theory = CPCM
$end
$solvent
dielectric 37.219
opticaldielectric 1.43
$end

--------------------------------------------------------------

             Standard Nuclear Orientation (Angstroms)
    I     Atom           X                Y                Z
 ----------------------------------------------------------------
    1      C       3.7130260000     2.2247790000    -0.4577410000
    2      O       2.3683140000     1.8137190000    -0.3760710000
    3      C       2.0892050000     0.4831960000    -0.2391580000
    4      C       3.1006510000    -0.4670170000    -0.1792070000
    5      C       2.7859640000    -1.8340770000    -0.0376500000
    6      C       1.4756660000    -2.2362420000     0.0422640000
    7      C       0.4231840000    -1.2937850000    -0.0155060000
    8      C      -0.9405730000    -1.8197440000     0.0785510000
    9      O      -1.1683690000    -3.0515540000     0.2049300000
   10      C      -2.0214020000    -0.8425150000     0.0186520000
   11      C      -3.3628170000    -1.2795730000     0.1040550000
   12      C      -4.4094200000    -0.3816910000     0.0506300000
   13      C      -4.1445930000     0.9979970000    -0.0916660000
   14      C      -2.8395280000     1.4431250000    -0.1766970000
   15      C      -1.7531010000     0.5437610000    -0.1242780000
   16      C      -0.3841370000     1.0875930000    -0.2207860000
   17      O      -0.2160200000     2.3208220000    -0.3464570000
   18      C       0.7076650000     0.1052920000    -0.1596420000
   19      H       4.2243630000     1.7942820000    -1.3294060000
   20      H       4.2798730000     1.9655930000     0.4467370000
   21      H       3.6822210000     3.3101350000    -0.5614720000
   22      H       4.1384420000    -0.1692400000    -0.2401760000
   23      H       3.5910680000    -2.5617160000     0.0071110000
   24      H       1.1999150000    -3.2775680000     0.1514190000
   25      H      -3.5324830000    -2.3446140000     0.2127460000
   26      H      -5.4348990000    -0.7337640000     0.1176860000
   27      H      -4.9662860000     1.7071120000    -0.1340690000
   28      H      -2.6059310000     2.4956910000    -0.2863140000
 ----------------------------------------------------------------

    8    -803.6471933162      8.22e-06  Convergence criterion met
 Total energy in the final basis set =     -803.6471933162

                    Orbital Energies (a.u.)
 --------------------------------------------------------------

 Alpha MOs
 -- Occupied --
-19.1502 -19.0744 -19.0729 -10.2382 -10.2287 -10.2223 -10.2130 -10.1777
-10.1742 -10.1722 -10.1713 -10.1712 -10.1707 -10.1706 -10.1684 -10.1679
-10.1665 -10.1610  -1.0693  -1.0036  -1.0005  -0.8595  -0.8486  -0.7835
 -0.7583  -0.7487  -0.7391  -0.6950  -0.6661  -0.6322  -0.6180  -0.5805
 -0.5574  -0.5373  -0.5300  -0.4898  -0.4794  -0.4675  -0.4667  -0.4581
 -0.4507  -0.4266  -0.4225  -0.4210  -0.4139  -0.4088  -0.3963  -0.3817
 -0.3789  -0.3719  -0.3590  -0.3474  -0.3444  -0.3353  -0.3327  -0.3186
 -0.2677  -0.2557  -0.2488  -0.2445  -0.2315  -0.2308  -0.1400

 Beta MOs
 -- Occupied --
-19.1502 -19.0692 -19.0679 -10.2383 -10.2272 -10.2201 -10.2130 -10.1770
-10.1733 -10.1717 -10.1710 -10.1704 -10.1701 -10.1700 -10.1682 -10.1680
-10.1657 -10.1607  -1.0692  -0.9948  -0.9910  -0.8569  -0.8473  -0.7795
 -0.7567  -0.7468  -0.7371  -0.6939  -0.6588  -0.6305  -0.6155  -0.5797
 -0.5556  -0.5349  -0.5286  -0.4878  -0.4783  -0.4661  -0.4655  -0.4567
 -0.4497  -0.4254  -0.4221  -0.4088  -0.4085  -0.4074  -0.3945  -0.3775
 -0.3700  -0.3588  -0.3582  -0.3463  -0.3347  -0.3340  -0.3321  -0.3132
 -0.2495  -0.2479  -0.2434  -0.2397  -0.2270  -0.2239

          Ground-State Mulliken Net Atomic Charges

     Atom                 Charge (a.u.)    Spin (a.u.)
  --------------------------------------------------------
      1 C                    -0.307109      -0.000304
      2 O                    -0.155280      -0.000202
      3 C                    -0.080372       0.009663
      4 C                    -0.031382       0.069566
      5 C                    -0.442005       0.038384
      6 C                    -0.023782       0.042167
      7 C                     0.485771       0.039444
      8 C                    -0.462438       0.127569
      9 O                    -0.486863       0.201340
     10 C                    -0.061874       0.002875
     11 C                     0.062026       0.040812
     12 C                    -0.523051       0.018709
     13 C                    -0.492136       0.050348
     14 C                     0.087563       0.017593
     15 C                     0.286663       0.052985
     16 C                    -0.377013       0.078228
     17 O                    -0.480052       0.192788
     18 C                     0.166419       0.036380
     19 H                     0.165321       0.000279
     20 H                     0.165190       0.000267
     21 H                     0.199126      -0.000152
     22 H                     0.208614      -0.004447
     23 H                     0.208114      -0.002968
     24 H                     0.159106      -0.002660
     25 H                     0.170319      -0.002236
     26 H                     0.195950      -0.001980
     27 H                     0.197536      -0.003751
     28 H                     0.165638      -0.000697
  --------------------------------------------------------
  Sum of atomic charges =    -1.000000

                    Cartesian Multipole Moments
 -----------------------------------------------------------------
    Charge (ESU x 10^10)
                -4.8032
    Dipole Moment (Debye)
         X       5.3393      Y       2.3775      Z       0.2166
       Tot       5.8487
    Quadrupole Moments (Debye-Ang)
        XX     -92.7657     XY      -4.4057     YY    -140.6188
        XZ      -0.8425     YZ       2.6664     ZZ    -111.7831

 Total job time:  223.36s(wall), 413.03s(cpu)
        *  Thank you very much for using Q-Chem.  Have a nice day.  *
