 Gaussian 16, Revision A.03,
 Gaussian 16:  ES64L-G16RevA.03 25-Dec-2016

 --------------------------------------
 #P UB3LYP/6-311++G(d,p) nosym opt freq
 --------------------------------------

 -------
 Radical
 -------
 Symbolic Z-matrix:
 Charge = -1 Multiplicity = 2

 SCF Done:  E(UB3LYP) =  -2015.42254071     A.U. after   23 cycles
 SCF Done:  E(UB3LYP) =  -2015.44018779     A.U. after   18 cycles
 SCF Done:  E(UB3LYP) =  -2015.44322569     A.U. after   19 cycles
 SCF Done:  E(UB3LYP) =  -2015.44488375     A.U. after   19 cycles
 SCF Done:  E(UB3LYP) =  -2015.44680382     A.U. after   22 cycles
 SCF Done:  E(UB3LYP) =  -2015.44779278     A.U. after   23 cycles
 SCF Done:  E(UB3LYP) =  -2015.44792452     A.U. after   18 cycles
 SCF Done:  E(UB3LYP) =  -2015.44798174     A.U. after   16 cycles
 SCF Done:  E(UB3LYP) =  -2015.44800412     A.U. after   14 cycles
 SCF Done:  E(UB3LYP) =  -2015.44801003     A.U. after   14 cycles
 SCF Done:  E(UB3LYP) =  -2015.44801792     A.U. after   14 cycles
 SCF Done:  E(UB3LYP) =  -2015.44803185     A.U. after   15 cycles
 SCF Done:  E(UB3LYP) =  -2015.44803993     A.U. after   14 cycles
 SCF Done:  E(UB3LYP) =  -2015.44804709     A.U. after   13 cycles
 SCF Done:  E(UB3LYP) =  -2015.44804853     A.U. after   12 cycles
 SCF Done:  E(UB3LYP) =  -2015.44804889     A.U. after   12 cycles
 SCF Done:  E(UB3LYP) =  -2015.44804899     A.U. after   11 cycles
 SCF Done:  E(UB3LYP) =  -2015.44804901     A.U. after   11 cycles
 Optimization completed.
    -- Stationary point found.
 Normal termination of Gaussian 16 at Thu Dec 21 23:45:50 2023.

 ----------------------------------------------------------------------
 #P Geom=AllCheck Guess=TCheck SCRF=Check GenChk UB3LYP/6-311++G(d,p) F
 req
 ----------------------------------------------------------------------

 Structure from the checkpoint file:  "216-rad.chk"
 -------
 Radical
 -------
 Charge = -1 Multiplicity = 2

                          Input orientation:
 ---------------------------------------------------------------------
 Center     Atomic      Atomic             Coordinates (Angstroms)
 Number     Number       Type             X           Y           Z
 ---------------------------------------------------------------------
      1          6           0        5.112188   -2.787256    0.155663
      2          6           0        5.913452   -2.163319   -0.773340
      3          6           0        5.308593   -1.279024   -1.695821
      4          6           0        3.718819   -2.557858    0.200583
      5          6           0        3.129196   -1.664611   -0.740693
      6          6           0        3.950941   -1.028509   -1.688954
      7          6           0        2.919028   -3.247736    1.214736
      8          6           0        1.478849   -2.963259    1.199035
      9          6           0        0.889223   -2.070026    0.257749
     10          6           0        1.689019   -1.380131   -0.756392
     11          6           0        0.657108   -3.599352    2.147304
     12          6           0       -0.504151   -1.840657    0.302642
     13          6           0       -1.305416   -2.464594    1.231646
     14          8           0        3.430714   -4.032342    2.041552
     15          8           0        1.177329   -0.595531   -1.583208
     16          1           0        5.528617   -3.476717    0.880054
     17          1           0        6.979196   -2.346129   -0.817500
     18         16           0        6.333958   -0.444475   -2.873971
     19          1           0       -2.371166   -2.281810    1.275773
     20          1           0        3.491490   -0.355317   -2.401662
     21          1           0        1.116562   -4.272513    2.860039
     22          1           0       -0.920584   -1.151209   -0.421758
     23          6           0       -0.700547   -3.348852    2.154153
     24         16           0       -1.725914   -4.183378    3.332317
     25          8           0       -0.955675   -4.652388    4.481016
     26          8           0       -2.959416   -3.432531    3.567021
     27          8           0       -2.125743   -5.514884    2.421678
     28          6           0       -2.962246   -6.481589    3.082310
     29          1           0       -2.461213   -6.883790    3.966057
     30          1           0       -3.117059   -7.272993    2.350399
     31          1           0       -3.921483   -6.036896    3.359293
     32          8           0        5.563728    0.024724   -4.022601
     33          8           0        7.567423   -1.195344   -3.108788
     34          8           0        6.733911    0.886938   -1.963265
     35          6           0        7.569894    1.853965   -2.624090
     36          1           0        7.068473    2.256035   -3.507674
     37          1           0        8.529209    1.409620   -2.901368
     38          1           0        7.724645    2.645388   -1.892187
 ---------------------------------------------------------------------

 SCF Done:  E(UB3LYP) =  -2015.44804901     A.U. after    2 cycles

 Alpha  occ. eigenvalues --  -88.99406 -88.99406 -19.08931 -19.08930 -19.04232
 Alpha  occ. eigenvalues --  -19.04232 -19.04226 -19.04226 -18.98432 -18.98431
 Alpha  occ. eigenvalues --  -10.16034 -10.16033 -10.13554 -10.13553 -10.12663
 Alpha  occ. eigenvalues --  -10.12663 -10.10216 -10.10216 -10.10150 -10.10150
 Alpha  occ. eigenvalues --  -10.09235 -10.09234 -10.09192 -10.09191 -10.09022
 Alpha  occ. eigenvalues --  -10.09022  -8.05526  -8.05526  -6.01914  -6.01914
 Alpha  occ. eigenvalues --   -6.01721  -6.01720  -6.01562  -6.01562  -1.06284
 Alpha  occ. eigenvalues --   -1.06284  -0.95966  -0.95966  -0.93400  -0.93399
 Alpha  occ. eigenvalues --   -0.91427  -0.91157  -0.78928  -0.78386  -0.72265
 Alpha  occ. eigenvalues --   -0.69777  -0.68115  -0.67373  -0.65862  -0.64911
 Alpha  occ. eigenvalues --   -0.59486  -0.59223  -0.55401  -0.55158  -0.51606
 Alpha  occ. eigenvalues --   -0.51229  -0.48085  -0.48015  -0.45591  -0.45394
 Alpha  occ. eigenvalues --   -0.43484  -0.42832  -0.40926  -0.40787  -0.40044
 Alpha  occ. eigenvalues --   -0.39328  -0.38850  -0.38301  -0.37674  -0.37155
 Alpha  occ. eigenvalues --   -0.36993  -0.35049  -0.34953  -0.34433  -0.33564
 Alpha  occ. eigenvalues --   -0.32903  -0.32737  -0.32349  -0.32158  -0.31048
 Alpha  occ. eigenvalues --   -0.29482  -0.28845  -0.28613  -0.27993  -0.26824
 Alpha  occ. eigenvalues --   -0.26816  -0.26690  -0.26057  -0.25951  -0.25586
 Alpha  occ. eigenvalues --   -0.24256  -0.24215  -0.23958  -0.23939  -0.21361
 Alpha  occ. eigenvalues --   -0.21360  -0.18573  -0.18080  -0.17854  -0.17302
 Alpha  occ. eigenvalues --   -0.15310  -0.14497  -0.05520
 Alpha virt. eigenvalues --    0.01718   0.04418   0.05629   0.06058   0.06806
 Alpha virt. eigenvalues --    0.08149   0.08437   0.09407   0.09458   0.09751
 Alpha virt. eigenvalues --    0.09772   0.10074   0.10474   0.10781   0.11790

  Beta  occ. eigenvalues --  -88.99405 -88.99405 -19.08925 -19.08925 -19.04226
  Beta  occ. eigenvalues --  -19.04226 -19.04225 -19.04224 -18.97823 -18.97822
  Beta  occ. eigenvalues --  -10.16031 -10.16031 -10.13464 -10.13462 -10.12614
  Beta  occ. eigenvalues --  -10.12614 -10.10249 -10.10248 -10.10060 -10.10060
  Beta  occ. eigenvalues --  -10.09146 -10.09145 -10.09080 -10.09080 -10.09032
  Beta  occ. eigenvalues --  -10.09032  -8.05526  -8.05525  -6.01909  -6.01909
  Beta  occ. eigenvalues --   -6.01720  -6.01720  -6.01562  -6.01562  -1.06272
  Beta  occ. eigenvalues --   -1.06271  -0.95954  -0.95954  -0.93392  -0.93391
  Beta  occ. eigenvalues --   -0.90411  -0.90106  -0.78698  -0.78269  -0.71892
  Beta  occ. eigenvalues --   -0.69637  -0.67971  -0.67165  -0.65802  -0.64795
  Beta  occ. eigenvalues --   -0.59107  -0.58914  -0.55220  -0.54951  -0.51494
  Beta  occ. eigenvalues --   -0.51179  -0.48009  -0.47868  -0.45464  -0.45228
  Beta  occ. eigenvalues --   -0.43442  -0.42781  -0.40891  -0.40766  -0.39964
  Beta  occ. eigenvalues --   -0.39212  -0.38650  -0.38272  -0.37615  -0.37123
  Beta  occ. eigenvalues --   -0.36944  -0.35027  -0.34913  -0.34354  -0.32726
  Beta  occ. eigenvalues --   -0.32670  -0.32438  -0.32212  -0.31957  -0.30529
  Beta  occ. eigenvalues --   -0.29177  -0.28421  -0.27933  -0.26827  -0.26781
  Beta  occ. eigenvalues --   -0.26574  -0.26205  -0.26012  -0.25571  -0.25391
  Beta  occ. eigenvalues --   -0.24247  -0.24204  -0.23860  -0.23639  -0.21346
  Beta  occ. eigenvalues --   -0.21346  -0.17882  -0.17070  -0.16502  -0.16003
  Beta  occ. eigenvalues --   -0.14743  -0.13926
  Beta virt. eigenvalues --    0.00294   0.02477   0.05360   0.05718   0.06199
  Beta virt. eigenvalues --    0.06965   0.08159   0.08442   0.09417   0.09458
  Beta virt. eigenvalues --    0.09760   0.09816   0.10295   0.10475   0.11066

 Mulliken charges and spin densities:
               1          2
     1  C   -0.007892   0.000152
     2  C   -0.312846   0.075507
     3  C   -0.939383   0.020736
     4  C    0.676397   0.084810
     5  C    0.268335   0.053059
     6  C    0.119293  -0.008381
     7  C   -0.762114   0.044995
     8  C    0.268318   0.053057
     9  C    0.676464   0.084803
    10  C   -0.762142   0.044994
    11  C    0.119320  -0.008378
    12  C   -0.007830   0.000151
    13  C   -0.312857   0.075504
    14  O   -0.318432   0.227396
    15  O   -0.318429   0.227390
    16  H    0.167345  -0.000524
    17  H    0.209194  -0.004972
    18  S    0.217330   0.004878
    19  H    0.209192  -0.004972
    20  H    0.237045  -0.000079
    21  H    0.237048  -0.000079
    22  H    0.167344  -0.000524
    23  C   -0.939518   0.020735
    24  S    0.217329   0.004876
    25  O   -0.177736   0.002452
    26  O   -0.183384  -0.001491
    27  O   -0.038114   0.000111
    28  C   -0.133175   0.000742
    29  H    0.162132   0.000122
    30  H    0.158607   0.000371
    31  H    0.157445   0.000125
    32  O   -0.177835   0.002452
    33  O   -0.183314  -0.001491
    34  O   -0.038138   0.000111
    35  C   -0.133185   0.000742
    36  H    0.162139   0.000122
    37  H    0.157442   0.000125
    38  H    0.158603   0.000371
 Sum of Mulliken charges =  -1.00000   1.00000

 Dipole moment (field-independent basis, Debye):
    X=            -11.0676    Y=             11.1143    Z=             -1.1008  Tot=             15.7236
 Quadrupole moment (field-independent basis, Debye-Ang):
   XX=           -233.8346   YY=           -194.1464   ZZ=           -228.0361
   XY=             34.4965   XZ=             31.0539   YZ=             21.5396

  Exact polarizability: 463.038  64.517 244.212-116.510 -96.979 280.155
 Approx polarizability: 668.577  -7.153 374.736 -82.596-142.449 440.820

                      1                      2                      3
                      A                      A                      A
 Frequencies --     16.2808                19.6945                21.2592
 Red. masses --      4.9361                 7.2903                 5.0967
 Frc consts  --      0.0008                 0.0017                 0.0014
 IR Inten    --      4.5964                 1.5378                 0.0000

                      4                      5                      6
                      A                      A                      A
 Frequencies --     46.1328                49.5388                55.7241
 Red. masses --      3.3278                 3.2888                 5.9624
 Frc consts  --      0.0042                 0.0048                 0.0109
 IR Inten    --      2.6370                 0.0000                 0.0000

                      7                      8                      9
                      A                      A                      A
 Frequencies --     73.8480                83.9967               119.1456
 Red. masses --      6.8458                 9.4765                 4.4004
 Frc consts  --      0.0220                 0.0394                 0.0368
 IR Inten    --      3.1489                 2.1610                 2.8719

                     10                     11                     12
                      A                      A                      A
 Frequencies --    120.5024               138.4387               144.9361
 Red. masses --      8.7143                 4.7529                 1.1388
 Frc consts  --      0.0746                 0.0537                 0.0141
 IR Inten    --      0.0000                 0.0000                 1.2554

                     13                     14                     15
                      A                      A                      A
 Frequencies --    145.6422               161.1787               183.3828
 Red. masses --      1.2016                 7.4904                 9.2926
 Frc consts  --      0.0150                 0.1146                 0.1841
 IR Inten    --      0.0001                 9.0927                 0.0000

                     16                     17                     18
                      A                      A                      A
 Frequencies --    204.2656               219.8902               242.5108
 Red. masses --      6.1258                10.0850                 5.2243
 Frc consts  --      0.1506                 0.2873                 0.1810
 IR Inten    --      0.0000                 3.2742                34.7230

                     19                     20                     21
                      A                      A                      A
 Frequencies --    265.1520               265.6446               267.8980
 Red. masses --      9.9817                12.7485                 5.0680
 Frc consts  --      0.4135                 0.5300                 0.2143
 IR Inten    --      2.1513                 0.0000                 0.0000

                     22                     23                     24
                      A                      A                      A
 Frequencies --    333.4361               342.8878               365.4956
 Red. masses --      5.6577                 5.7592                 7.2208
 Frc consts  --      0.3706                 0.3989                 0.5683
 IR Inten    --      2.0475                 0.0000                14.1147

                     25                     26                     27
                      A                      A                      A
 Frequencies --    369.1742               400.7079               409.5702
 Red. masses --      7.6302                10.3996                 7.2184
 Frc consts  --      0.6127                 0.9838                 0.7134
 IR Inten    --      0.0000                 5.3819                 0.0000

                     28                     29                     30
                      A                      A                      A
 Frequencies --    425.9179               451.6646               463.1454
 Red. masses --      3.4654                 8.3918                10.6099
 Frc consts  --      0.3704                 1.0086                 1.3409
 IR Inten    --      2.1265                 0.0000                 0.0000

                     31                     32                     33
                      A                      A                      A
 Frequencies --    468.9879               473.7057               480.0634
 Red. masses --      3.4565                11.0821                 9.9506
 Frc consts  --      0.4479                 1.4652                 1.3511
 IR Inten    --      0.0000                28.6700                12.9551

                     34                     35                     36
                      A                      A                      A
 Frequencies --    486.4608               496.5142               523.1458
 Red. masses --     10.3852                10.5501                 8.0449
 Frc consts  --      1.4480                 1.5324                 1.2972
 IR Inten    --      0.0000                 0.0000                 0.0000

                     37                     38                     39
                      A                      A                      A
 Frequencies --    553.7259               602.8553               626.3676
 Red. masses --      5.2951                 9.3775                 8.0646
 Frc consts  --      0.9566                 2.0080                 1.8642
 IR Inten    --     65.3074               409.4075                 0.0000

                     40                     41                     42
                      A                      A                      A
 Frequencies --    645.9983               648.1569               661.3163
 Red. masses --      6.0449                 7.4666                 8.8628
 Frc consts  --      1.4863                 1.8481                 2.2837
 IR Inten    --      0.0000                14.3544               460.8302

                     43                     44                     45
                      A                      A                      A
 Frequencies --    679.6086               696.4214               697.7278
 Red. masses --      7.8716                 8.4705                 6.8648
 Frc consts  --      2.1420                 2.4205                 1.9690
 IR Inten    --      0.0000               544.9356                 0.0000

                     46                     47                     48
                      A                      A                      A
 Frequencies --    721.2026               737.8497               741.7577
 Red. masses --      4.3799                 5.1103                 8.9529
 Frc consts  --      1.3422                 1.6392                 2.9023
 IR Inten    --     25.4775                 6.0208                 0.0000

                     49                     50                     51
                      A                      A                      A
 Frequencies --    801.1979               836.6418               839.1543
 Red. masses --      2.4688                 1.5367                 2.0146
 Frc consts  --      0.9337                 0.6338                 0.8358
 IR Inten    --      0.0000                33.5802                 0.0000

                     52                     53                     54
                      A                      A                      A
 Frequencies --    843.2115               958.3079               958.9120
 Red. masses --      6.8253                 1.4630                 2.0193
 Frc consts  --      2.8592                 0.7916                 1.0940
 IR Inten    --     97.7728                 0.0001                35.3919

                     55                     56                     57
                      A                      A                      A
 Frequencies --    962.5622               968.1708               995.7677
 Red. masses --      2.5258                 6.1974                 1.3114
 Frc consts  --      1.3788                 3.4227                 0.7661
 IR Inten    --     65.4167                 0.0000                 0.0000

                     58                     59                     60
                      A                      A                      A
 Frequencies --    998.0147              1003.2710              1005.7671
 Red. masses --      1.3316                 8.9595                 9.8093
 Frc consts  --      0.7814                 5.3134                 5.8463
 IR Inten    --      2.3835               775.3616                 0.0013

                     61                     62                     63
                      A                      A                      A
 Frequencies --   1064.6239              1067.8339              1098.7027
 Red. masses --      2.1899                 2.4195                 6.9296
 Frc consts  --      1.4624                 1.6255                 4.9286
 IR Inten    --    122.3625                 0.0000               925.5314

                     64                     65                     66
                      A                      A                      A
 Frequencies --   1115.7734              1134.6209              1138.1270
 Red. masses --      5.0686                 2.3653                 1.7258
 Frc consts  --      3.7179                 1.7941                 1.3171
 IR Inten    --      0.0000               155.8862                 0.0000

                     67                     68                     69
                      A                      A                      A
 Frequencies --   1164.0485              1167.7117              1167.8079
 Red. masses --      4.3991                 1.2673                 1.2897
 Frc consts  --      3.5120                 1.0182                 1.0363
 IR Inten    --    293.0634                 0.0047                14.1193

                     70                     71                     72
                      A                      A                      A
 Frequencies --   1184.6724              1185.2100              1187.3237
 Red. masses --      1.7533                 1.3445                 2.6674
 Frc consts  --      1.4498                 1.1128                 2.2155
 IR Inten    --      0.0003                25.1267                 0.0000

                     73                     74                     75
                      A                      A                      A
 Frequencies --   1213.4682              1222.2473              1254.0312
 Red. masses --      2.5057                 1.6293                 1.6712
 Frc consts  --      2.1739                 1.4341                 1.5484
 IR Inten    --     89.2744                 0.0000               130.1074

                     76                     77                     78
                      A                      A                      A
 Frequencies --   1282.7790              1283.5660              1307.1246
 Red. masses --     18.8676                14.8657                 2.0438
 Frc consts  --     18.2924                14.4302                 2.0574
 IR Inten    --      0.0002               266.4020                 0.0000

                     79                     80                     81
                      A                      A                      A
 Frequencies --   1365.3681              1369.1696              1387.0103
 Red. masses --     11.2229                10.8707                 3.6631
 Frc consts  --     12.3269                12.0066                 4.1520
 IR Inten    --    113.2894                 0.0000               162.3435

                     82                     83                     84
                      A                      A                      A
 Frequencies --   1454.7602              1456.9390              1457.0958
 Red. masses --      4.9216                 1.1418                 1.1451
 Frc consts  --      6.1367                 1.4279                 1.4324
 IR Inten    --      0.0000                12.4169                 0.0000

                     85                     86                     87
                      A                      A                      A
 Frequencies --   1460.3818              1483.1747              1483.2040
 Red. masses --      2.3789                 1.0464                 1.0465
 Frc consts  --      2.9892                 1.3562                 1.3564
 IR Inten    --    102.4009                13.4258                 0.0000

                     88                     89                     90
                      A                      A                      A
 Frequencies --   1483.4668              1505.9239              1505.9362
 Red. masses --      2.7095                 1.0491                 1.0489
 Frc consts  --      3.5131                 1.4018                 1.4015
 IR Inten    --      0.0000                23.5248                 0.0030

                     91                     92                     93
                      A                      A                      A
 Frequencies --   1510.6835              1542.2779              1547.6502
 Red. masses --      6.2260                 9.1181                 6.6867
 Frc consts  --      8.3716                12.7785                 9.4364
 IR Inten    --    543.3294                 0.0000               208.9362

                     94                     95                     96
                      A                      A                      A
 Frequencies --   1600.8694              1623.7406              1624.7509
 Red. masses --      6.6823                 9.0679                 7.9122
 Frc consts  --     10.0900                14.0860                12.3061
 IR Inten    --      0.0000                 0.0004               135.0695

                     97                     98                     99
                      A                      A                      A
 Frequencies --   3028.4422              3028.5764              3100.6918
 Red. masses --      1.0298                 1.0298                 1.1075
 Frc consts  --      5.5646                 5.5652                 6.2734
 IR Inten    --    167.4722                 0.0001                 0.3790

                    100                    101                    102
                      A                      A                      A
 Frequencies --   3100.6961              3133.8349              3133.8367
 Red. masses --      1.1075                 1.1039                 1.1039
 Frc consts  --      6.2734                 6.3874                 6.3874
 IR Inten    --     33.8711                 8.6211                17.8029

                    103                    104                    105
                      A                      A                      A
 Frequencies --   3188.2706              3188.4357              3205.1396
 Red. masses --      1.0873                 1.0874                 1.0942
 Frc consts  --      6.5119                 6.5131                 6.6227
 IR Inten    --      8.7442                 0.0002                 4.1000

                    106                    107                    108
                      A                      A                      A
 Frequencies --   3205.1650              3206.2277              3206.4114
 Red. masses --      1.0936                 1.0908                 1.0914
 Frc consts  --      6.6193                 6.6066                 6.6110
 IR Inten    --      0.0036                10.5747                 0.0004

 - Thermochemistry -
 -------------------
 Temperature   298.150 Kelvin.  Pressure   1.00000 Atm.
 Atom     1 has atomic number  6 and mass  12.00000

 Molecular mass:   395.99736 amu.
 Principal axes and moments of inertia in atomic units:
                           1         2         3
     Eigenvalues --  2958.54292********************
           X            0.75915   0.63855   0.12628
           Y            0.39211  -0.60347   0.69431
           Z           -0.51956   0.47758   0.70851
 This molecule is an asymmetric top.
 Rotational symmetry number  1.
 Warning -- assumption of classical behavior for rotation
           may cause significant error
 Rotational temperatures (Kelvin)      0.02928     0.00306     0.00291
 Rotational constants (GHZ):           0.61001     0.06386     0.06056
 Zero-point vibrational energy     683951.2 (Joules/Mol)
                                  163.46826 (Kcal/Mol)
 Warning -- explicit consideration of  38 degrees of freedom as
           vibrations may cause significant error
 Vibrational temperatures:     23.42    28.34    30.59    66.37    71.28
          (Kelvin)             80.17   106.25   120.85   171.42   173.38
                              199.18   208.53   209.55   231.90   263.85
                              293.89   316.37   348.92   381.49   382.20
                              385.45   479.74   493.34   525.87   531.16
                              576.53   589.28   612.80   649.84   666.36
                              674.77   681.56   690.70   699.91   714.37
                              752.69   796.69   867.37   901.20   929.45
                              932.55   951.49   977.81  1002.00  1003.87
                             1037.65  1061.60  1067.22  1152.75  1203.74
                             1207.36  1213.19  1378.79  1379.66  1384.91
                             1392.98  1432.69  1435.92  1443.48  1447.07
                             1531.76  1536.37  1580.79  1605.35  1632.47
                             1637.51  1674.81  1680.08  1680.22  1704.48
                             1705.25  1708.29  1745.91  1758.54  1804.27
                             1845.63  1846.77  1880.66  1964.46  1969.93
                             1995.60  2093.08  2096.21  2096.44  2101.16
                             2133.96  2134.00  2134.38  2166.69  2166.71
                             2173.54  2218.99  2226.72  2303.29  2336.20
                             2337.65  4357.25  4357.45  4461.20  4461.21
                             4508.89  4508.89  4587.21  4587.45  4611.48
                             4611.52  4613.05  4613.31

 Zero-point correction=                           0.260503 (Hartree/Particle)
 Thermal correction to Energy=                    0.284458
 Thermal correction to Enthalpy=                  0.285402
 Thermal correction to Gibbs Free Energy=         0.202819
 Sum of electronic and zero-point Energies=          -2015.187546
 Sum of electronic and thermal Energies=             -2015.163591
 Sum of electronic and thermal Enthalpies=           -2015.162647
 Sum of electronic and thermal Free Energies=        -2015.245230

                     E (Thermal)             CV                S
                      KCal/Mol        Cal/Mol-Kelvin    Cal/Mol-Kelvin
 Total                  178.500             88.493            173.810
 Electronic               0.000              0.000              1.377
 Translational            0.889              2.981             43.820
 Rotational               0.889              2.981             36.164
 Vibrational            176.723             82.532             92.448
 Vibration     1          0.593              1.986              7.043
 Vibration     2          0.593              1.986              6.665
 Vibration     3          0.593              1.985              6.513
 Vibration     4          0.595              1.979              4.977
 Vibration     5          0.595              1.978              4.836
 Vibration     6          0.596              1.975              4.603
 Vibration     7          0.599              1.966              4.048
 Vibration     8          0.601              1.960              3.795
 Vibration     9          0.609              1.933              3.114
 Vibration    10          0.609              1.932              3.092
 Vibration    11          0.614              1.915              2.825
 Vibration    12          0.616              1.908              2.738
 Vibration    13          0.617              1.907              2.728
 Vibration    14          0.622              1.890              2.536
 Vibration    15          0.631              1.862              2.294
 Vibration    16          0.640              1.834              2.094
 Vibration    17          0.647              1.811              1.960
 Vibration    18          0.659              1.775              1.784
 Vibration    19          0.671              1.737              1.628
 Vibration    20          0.671              1.736              1.624
 Vibration    21          0.673              1.732              1.610
 Vibration    22          0.715              1.609              1.243
 Vibration    23          0.722              1.590              1.199
 Vibration    24          0.739              1.543              1.099
 Vibration    25          0.741              1.536              1.083
 Vibration    26          0.767              1.469              0.960
 Vibration    27          0.774              1.449              0.928
 Vibration    28          0.788              1.414              0.872
 Vibration    29          0.810              1.357              0.791
 Vibration    30          0.821              1.332              0.757
 Vibration    31          0.826              1.319              0.740
 Vibration    32          0.830              1.308              0.727
 Vibration    33          0.836              1.294              0.710
 Vibration    34          0.842              1.280              0.693
 Vibration    35          0.852              1.258              0.667
 Vibration    36          0.878              1.199              0.603
 Vibration    37          0.909              1.132              0.537
 Vibration    38          0.961              1.026              0.445

 Optimization completed.
    -- Stationary point found.
 Normal termination of Gaussian 16 at Fri Dec 22 04:08:39 2023.
