 Gaussian 16, Revision A.03,
 Gaussian 16:  ES64L-G16RevA.03 25-Dec-2016

 ----------------------------------------------------------------------
 #P UB3LYP/6-311++G(d,p) nosym opt freq SCRF=(PCM,Solvent=n,n-DiMethylF
 ormamide)
 ----------------------------------------------------------------------

 -------
 Radical
 -------
 Symbolic Z-matrix:
 Charge = -1 Multiplicity = 2

 SCF Done:  E(UB3LYP) =  -1451.48745369     A.U. after   18 cycles
 SCF Done:  E(UB3LYP) =  -1451.48775596     A.U. after   14 cycles
 SCF Done:  E(UB3LYP) =  -1451.48780097     A.U. after   14 cycles
 SCF Done:  E(UB3LYP) =  -1451.48780427     A.U. after   13 cycles
 SCF Done:  E(UB3LYP) =  -1451.48780477     A.U. after   10 cycles
 Optimization completed.
    -- Stationary point found.
 Normal termination of Gaussian 16 at Sat Feb 10 11:37:49 2024.

 ----------------------------------------------------------------------
 #P Geom=AllCheck Guess=TCheck SCRF=Check GenChk UB3LYP/6-311++G(d,p) F
 req
 ----------------------------------------------------------------------

 Structure from the checkpoint file:  "112-rad.chk"
 -------
 Radical
 -------
 Charge = -1 Multiplicity = 2

                          Input orientation:
 ---------------------------------------------------------------------
 Center     Atomic      Atomic             Coordinates (Angstroms)
 Number     Number       Type             X           Y           Z
 ---------------------------------------------------------------------
      1          8           0        2.547216   -0.989291   -0.251806
      2          6           0        1.316389   -0.452436   -0.125276
      3          6           0        1.099306    0.897191   -0.002350
      4         17           0        2.452308    2.016943   -0.004844
      5          6           0       -0.223889    1.425012    0.130002
      6          8           0       -0.535323    2.646236    0.248692
      7          6           0       -1.316366    0.452439    0.125394
      8          6           0       -1.099289   -0.897198    0.002434
      9         17           0       -2.452340   -2.016890    0.004358
     10          6           0        0.223920   -1.425049   -0.129461
     11          8           0        0.535315   -2.646190   -0.249134
     12          8           0       -2.547228    0.989280    0.251696
     13          1           0        2.376491   -1.952902   -0.317037
     14          1           0       -2.376508    1.952855    0.317334
 ---------------------------------------------------------------------

 SCF Done:  E(UB3LYP) =  -1451.48780477     A.U. after    1 cycles

 Alpha  occ. eigenvalues -- -101.55615-101.55615 -19.16320 -19.16320 -19.10112
 Alpha  occ. eigenvalues --  -19.10112 -10.24854 -10.24852 -10.24719 -10.24718
 Alpha  occ. eigenvalues --  -10.22683 -10.22682  -9.47050  -9.47049  -7.23505
 Alpha  occ. eigenvalues --   -7.23505  -7.22547  -7.22547  -7.22496  -7.22496
 Alpha  occ. eigenvalues --   -1.08718  -1.08495  -1.01692  -1.01658  -0.88426
 Alpha  occ. eigenvalues --   -0.86955  -0.81149  -0.73122  -0.69824  -0.62660
 Alpha  occ. eigenvalues --   -0.59773  -0.57353  -0.52417  -0.51508  -0.46528
 Alpha  occ. eigenvalues --   -0.46319  -0.45232  -0.43307  -0.42665  -0.42650
 Alpha  occ. eigenvalues --   -0.39729  -0.39398  -0.37294  -0.36987  -0.34609
 Alpha  occ. eigenvalues --   -0.34015  -0.32155  -0.31938  -0.27941  -0.27409
 Alpha  occ. eigenvalues --   -0.27298  -0.23021  -0.17461
 Alpha virt. eigenvalues --   -0.01448  -0.00415   0.00872   0.01344   0.01579
 Alpha virt. eigenvalues --    0.02241   0.03995   0.04224   0.05032   0.05620
 Alpha virt. eigenvalues --    0.06089   0.07093   0.08192   0.08531   0.09090

  Beta  occ. eigenvalues -- -101.55616-101.55616 -19.16204 -19.16204 -19.09502
  Beta  occ. eigenvalues --  -19.09502 -10.24622 -10.24621 -10.24511 -10.24510
  Beta  occ. eigenvalues --  -10.22734 -10.22733  -9.47051  -9.47050  -7.23506
  Beta  occ. eigenvalues --   -7.23506  -7.22549  -7.22549  -7.22498  -7.22498
  Beta  occ. eigenvalues --   -1.08379  -1.08174  -1.00664  -1.00652  -0.88235
  Beta  occ. eigenvalues --   -0.86927  -0.80727  -0.72846  -0.68799  -0.62303
  Beta  occ. eigenvalues --   -0.59395  -0.57100  -0.52066  -0.51345  -0.46217
  Beta  occ. eigenvalues --   -0.45150  -0.45098  -0.42737  -0.42229  -0.41346
  Beta  occ. eigenvalues --   -0.39169  -0.38296  -0.37034  -0.35809  -0.33587
  Beta  occ. eigenvalues --   -0.32952  -0.32119  -0.31889  -0.27388  -0.26712
  Beta  occ. eigenvalues --   -0.25191  -0.22477
  Beta virt. eigenvalues --   -0.10280  -0.01373   0.00880   0.01011   0.01388
  Beta virt. eigenvalues --    0.02250   0.04021   0.04261   0.04339   0.05134
  Beta virt. eigenvalues --    0.05660   0.06163   0.07123   0.08207   0.08543

 Mulliken charges and spin densities:
               1          2
     1  O   -0.229496   0.034503
     2  C   -1.411345   0.178897
     3  C    2.136571  -0.023621
     4  Cl   0.156654  -0.002669
     5  C   -0.983510   0.094983
     6  O   -0.466052   0.220835
     7  C   -1.411299   0.178922
     8  C    2.136585  -0.023617
     9  Cl   0.156651  -0.002669
    10  C   -0.983596   0.094986
    11  O   -0.466057   0.220826
    12  O   -0.229492   0.034507
    13  H    0.297194  -0.002942
    14  H    0.297192  -0.002942
 Sum of Mulliken charges =  -1.00000   1.00000

 Dipole moment (field-independent basis, Debye):
    X=              0.0000    Y=             -0.0002    Z=              0.0024  Tot=              0.0025
 Quadrupole moment (field-independent basis, Debye-Ang):
   XX=           -100.8623   YY=           -115.3757   ZZ=            -84.5544
   XY=             -5.4936   XZ=              0.6812   YZ=             -2.1276

  Exact polarizability: 191.120   0.268 249.509  -7.314  13.361  84.284
 Approx polarizability: 206.940 -15.808 293.661  -8.941  17.118  95.716

                      1                      2                      3
                      A                      A                      A
 Frequencies --     81.7827               125.5064               148.9272
 Red. masses --     19.8016                13.2555                15.7033
 Frc consts  --      0.0780                 0.1230                 0.2052
 IR Inten    --      0.7869                 4.9320                 0.0000

                      4                      5                      6
                      A                      A                      A
 Frequencies --    196.0762               198.5299               217.6218
 Red. masses --      9.2871                20.4977                13.8204
 Frc consts  --      0.2104                 0.4760                 0.3856
 IR Inten    --      2.6453                 0.5786                 0.0000

                      7                      8                      9
                      A                      A                      A
 Frequencies --    286.8393               309.7658               334.0727
 Red. masses --     12.3663                 6.0406                11.2643
 Frc consts  --      0.5995                 0.3415                 0.7407
 IR Inten    --      0.0000                46.9427                 0.0001

                     10                     11                     12
                      A                      A                      A
 Frequencies --    359.7600               360.5624               425.8010
 Red. masses --     12.2903                 8.9425                10.9102
 Frc consts  --      0.9372                 0.6850                 1.1655
 IR Inten    --     55.8864                 0.0016                 0.0001

                     13                     14                     15
                      A                      A                      A
 Frequencies --    438.2385               532.6742               533.8509
 Red. masses --     12.4814                15.9388                12.4268
 Frc consts  --      1.4123                 2.6646                 2.0866
 IR Inten    --      0.0000                 5.4129                 0.0000

                     16                     17                     18
                      A                      A                      A
 Frequencies --    585.5099               649.5465               651.3662
 Red. masses --      8.5113                 1.1492                 1.0789
 Frc consts  --      1.7192                 0.2857                 0.2697
 IR Inten    --      0.0023               296.0544                 0.2361

                     19                     20                     21
                      A                      A                      A
 Frequencies --    717.3178               744.0892               775.1782
 Red. masses --      9.3200                11.9857                 7.5259
 Frc consts  --      2.8255                 3.9099                 2.6645
 IR Inten    --     19.9317                 0.0000                 0.0000

                     22                     23                     24
                      A                      A                      A
 Frequencies --    816.6840               911.0316              1010.9435
 Red. masses --      9.4801                12.6971                 8.2453
 Frc consts  --      3.7254                 6.2090                 4.9649
 IR Inten    --    338.1723                 0.0000               363.1286

                     25                     26                     27
                      A                      A                      A
 Frequencies --   1198.8654              1216.1833              1224.7401
 Red. masses --      4.0654                 8.4230                 7.9191
 Frc consts  --      3.4426                 7.3403                 6.9986
 IR Inten    --    151.6363                 0.0001                92.7607

                     28                     29                     30
                      A                      A                      A
 Frequencies --   1279.3587              1360.2032              1428.8629
 Red. masses --      1.8004                 2.1508                 4.5669
 Frc consts  --      1.7362                 2.3445                 5.4935
 IR Inten    --      0.0001              1615.5330                 0.0000

                     31                     32                     33
                      A                      A                      A
 Frequencies --   1514.0961              1554.7574              1573.2964
 Red. masses --     10.9191                 8.1955                 4.9230
 Frc consts  --     14.7483                11.6722                 7.1796
 IR Inten    --   1273.9072                 0.0000               174.6703

                     34                     35                     36
                      A                      A                      A
 Frequencies --   1642.2719              3528.9951              3529.4193
 Red. masses --      7.1904                 1.0639                 1.0638
 Frc consts  --     11.4259                 7.8063                 7.8079
 IR Inten    --      0.0000                 9.9891               426.1964

 - Thermochemistry -
 -------------------
 Temperature   298.150 Kelvin.  Pressure   1.00000 Atm.
 Atom     1 has atomic number  8 and mass  15.99491

 Molecular mass:   207.93301 amu.
 Principal axes and moments of inertia in atomic units:
                           1         2         3
     Eigenvalues --  1633.069343173.488654806.55786
           X            0.78420  -0.61683   0.06742
           Y            0.62049   0.78014  -0.07979
           Z           -0.00338   0.10440   0.99453
 This molecule is an asymmetric top.
 Rotational symmetry number  1.
 Warning -- assumption of classical behavior for rotation
           may cause significant error
 Rotational temperatures (Kelvin)      0.05304     0.02729     0.01802
 Rotational constants (GHZ):           1.10512     0.56869     0.37547
 Zero-point vibrational energy     194170.2 (Joules/Mol)
                                   46.40780 (Kcal/Mol)
 Warning -- explicit consideration of  16 degrees of freedom as
           vibrations may cause significant error
 Vibrational temperatures:    117.67   180.58   214.27   282.11   285.64
          (Kelvin)            313.11   412.70   445.68   480.66   517.61
                              518.77   612.63   630.53   766.40   768.09
                              842.42   934.55   937.17  1032.06  1070.58
                             1115.31  1175.03  1310.77  1454.52  1724.90
                             1749.82  1762.13  1840.71  1957.03  2055.82
                             2178.45  2236.95  2263.62  2362.86  5077.44
                             5078.05

 Zero-point correction=                           0.073956 (Hartree/Particle)
 Thermal correction to Energy=                    0.084414
 Thermal correction to Enthalpy=                  0.085358
 Thermal correction to Gibbs Free Energy=         0.036639
 Sum of electronic and zero-point Energies=          -1451.413849
 Sum of electronic and thermal Energies=             -1451.403391
 Sum of electronic and thermal Enthalpies=           -1451.402446
 Sum of electronic and thermal Free Energies=        -1451.451166

                     E (Thermal)             CV                S
                      KCal/Mol        Cal/Mol-Kelvin    Cal/Mol-Kelvin
 Total                   52.971             38.307            102.538
 Electronic               0.000              0.000              1.377
 Translational            0.889              2.981             41.900
 Rotational               0.889              2.981             31.588
 Vibrational             51.193             32.346             27.672
 Vibration     1          0.600              1.962              3.848
 Vibration     2          0.610              1.928              3.014
 Vibration     3          0.618              1.904              2.686
 Vibration     4          0.636              1.845              2.170
 Vibration     5          0.637              1.842              2.147
 Vibration     6          0.646              1.814              1.979
 Vibration     7          0.684              1.698              1.493
 Vibration     8          0.699              1.655              1.364
 Vibration     9          0.716              1.607              1.240
 Vibration    10          0.734              1.555              1.123
 Vibration    11          0.735              1.554              1.120
 Vibration    12          0.788              1.414              0.872
 Vibration    13          0.798              1.387              0.832
 Vibration    14          0.888              1.178              0.581
 Vibration    15          0.889              1.175              0.579
 Vibration    16          0.943              1.063              0.475

 Optimization completed.
    -- Stationary point found.
 Normal termination of Gaussian 16 at Sat Feb 10 11:51:20 2024.
