 Gaussian 16, Revision A.03,
 Gaussian 16:  ES64L-G16RevA.03 25-Dec-2016

 ----------------------------------------------------------------
 #P UB3LYP/6-311++G(d,p) SCRF=(PCM,Solvent=n,n-DiMethylFormamide)
 ----------------------------------------------------------------

 -------
 Reduced
 -------
 Symbolic Z-matrix:
 Charge = -3 Multiplicity = 1

                         Standard orientation:
 ---------------------------------------------------------------------
 Center     Atomic      Atomic             Coordinates (Angstroms)
 Number     Number       Type             X           Y           Z
 ---------------------------------------------------------------------
      1          8           0        2.907513   -1.620410    1.262630
      2         16           0        3.055988   -0.853081   -0.001191
      3          8           0        2.898498   -1.623149   -1.262086
      4          8           0        4.350759   -0.077760   -0.006566
      5          6           0        1.741783    0.501942    0.002460
      6          6           0        2.319033    1.762695    0.009819
      7          6           0        1.535013    2.934365    0.013074
      8          6           0        0.164355    2.836723    0.001431
      9          6           0       -0.482095    1.579637   -0.007837
     10          6           0       -1.945050    1.616847   -0.020076
     11          8           0       -2.588523    2.723140   -0.028687
     12          6           0       -2.613176    0.336333   -0.001749
     13          6           0       -4.031980    0.271053    0.031494
     14          6           0       -4.706124   -0.933403    0.023141
     15          6           0       -3.969169   -2.143891   -0.013900
     16          6           0       -2.584713   -2.102693   -0.020804
     17          6           0       -1.867701   -0.886583    0.000402
     18          6           0       -0.391129   -0.938419    0.007217
     19          8           0        0.200780   -2.038138    0.010706
     20          6           0        0.308283    0.358610   -0.000067
     21          1           0        3.399322    1.818264    0.011795
     22          1           0        2.023066    3.908936    0.021392
     23          1           0       -0.480198    3.709280   -0.000077
     24          1           0       -4.566949    1.214685    0.057613
     25          1           0       -5.796241   -0.960639    0.041920
     26          1           0       -4.496053   -3.096754   -0.028467
     27          1           0       -1.994956   -3.013222   -0.040725
 ---------------------------------------------------------------------

 SCF Done:  E(UB3LYP) =  -1312.62883722     A.U. after   18 cycles

 The electronic state is 1-A.
 Alpha  occ. eigenvalues --  -89.02136 -19.06766 -19.06759 -19.06285 -19.01287
 Alpha  occ. eigenvalues --  -19.01074 -10.17402 -10.17333 -10.16618 -10.14669
 Alpha  occ. eigenvalues --  -10.14439 -10.14365 -10.14292 -10.14269 -10.14246
 Alpha  occ. eigenvalues --  -10.14232 -10.14185 -10.13294 -10.12992 -10.12947
 Alpha  occ. eigenvalues --   -8.07980  -6.04261  -6.04254  -6.04137  -1.08105
 Alpha  occ. eigenvalues --   -0.95129  -0.94861  -0.93919  -0.93467  -0.82464
 Alpha  occ. eigenvalues --   -0.81885  -0.74558  -0.72675  -0.71744  -0.70330
 Alpha  occ. eigenvalues --   -0.62753  -0.61221  -0.58646  -0.58075  -0.54176
 Alpha  occ. eigenvalues --   -0.51322  -0.50018  -0.49184  -0.45013  -0.43857
 Alpha  occ. eigenvalues --   -0.43125  -0.42888  -0.42593  -0.42227  -0.41484
 Alpha  occ. eigenvalues --   -0.39503  -0.37715  -0.37178  -0.36645  -0.36316
 Alpha  occ. eigenvalues --   -0.34464  -0.33937  -0.33449  -0.32524  -0.31315
 Alpha  occ. eigenvalues --   -0.31249  -0.30680  -0.30138  -0.30061  -0.28020
 Alpha  occ. eigenvalues --   -0.26642  -0.26017  -0.23297  -0.22939  -0.22250
 Alpha  occ. eigenvalues --   -0.21847  -0.21430  -0.19463  -0.18557  -0.09442
 Alpha virt. eigenvalues --   -0.02615   0.00356   0.00729   0.01054   0.01740
 Alpha virt. eigenvalues --    0.01907   0.02781   0.02949   0.04747   0.04819
 Alpha virt. eigenvalues --    0.04965   0.05150   0.06147   0.06773   0.06860

  Beta  occ. eigenvalues --  -89.02136 -19.06766 -19.06759 -19.06285 -19.01287
  Beta  occ. eigenvalues --  -19.01074 -10.17402 -10.17333 -10.16618 -10.14669
  Beta  occ. eigenvalues --  -10.14439 -10.14365 -10.14292 -10.14269 -10.14246
  Beta  occ. eigenvalues --  -10.14232 -10.14185 -10.13294 -10.12992 -10.12947
  Beta  occ. eigenvalues --   -8.07980  -6.04261  -6.04254  -6.04137  -1.08105
  Beta  occ. eigenvalues --   -0.95129  -0.94861  -0.93919  -0.93467  -0.82464
  Beta  occ. eigenvalues --   -0.81885  -0.74558  -0.72675  -0.71744  -0.70330
  Beta  occ. eigenvalues --   -0.62753  -0.61221  -0.58646  -0.58075  -0.54176
  Beta  occ. eigenvalues --   -0.51322  -0.50018  -0.49184  -0.45013  -0.43857
  Beta  occ. eigenvalues --   -0.43125  -0.42888  -0.42593  -0.42227  -0.41484
  Beta  occ. eigenvalues --   -0.39503  -0.37715  -0.37178  -0.36645  -0.36316
  Beta  occ. eigenvalues --   -0.34464  -0.33937  -0.33449  -0.32524  -0.31315
  Beta  occ. eigenvalues --   -0.31249  -0.30680  -0.30138  -0.30061  -0.28020
  Beta  occ. eigenvalues --   -0.26642  -0.26017  -0.23297  -0.22939  -0.22250
  Beta  occ. eigenvalues --   -0.21847  -0.21430  -0.19463  -0.18557  -0.09442
  Beta virt. eigenvalues --   -0.02615   0.00356   0.00729   0.01054   0.01740
  Beta virt. eigenvalues --    0.01907   0.02781   0.02949   0.04747   0.04819
  Beta virt. eigenvalues --    0.04965   0.05150   0.06147   0.06773   0.06860

 Mulliken charges and spin densities:
               1          2
     1  O   -0.428991   0.000000
     2  S    0.654636  -0.000000
     3  O   -0.427907   0.000000
     4  O   -0.472470   0.000000
     5  C   -0.855708   0.000000
     6  C    0.512903   0.000000
     7  C   -0.401543  -0.000000
     8  C   -0.444190  -0.000000
     9  C    0.669229   0.000000
    10  C   -0.498934  -0.000000
    11  O   -0.651179  -0.000000
    12  C    0.072224   0.000000
    13  C   -0.034280   0.000000
    14  C   -0.505134   0.000000
    15  C   -0.538217  -0.000000
    16  C    0.063054   0.000000
    17  C    0.379293   0.000000
    18  C   -0.788481  -0.000000
    19  O   -0.534090   0.000000
    20  C    0.115745   0.000000
    21  H    0.222782   0.000000
    22  H    0.166392   0.000000
    23  H    0.135037  -0.000000
    24  H    0.141700  -0.000000
    25  H    0.153905   0.000000
    26  H    0.154448  -0.000000
    27  H    0.139775   0.000000
 Sum of Mulliken charges =  -3.00000  -0.00000

 Dipole moment (field-independent basis, Debye):
    X=             -7.3822    Y=              3.1246    Z=              0.0772  Tot=              8.0166
 Quadrupole moment (field-independent basis, Debye-Ang):
   XX=           -247.4014   YY=           -187.9342   ZZ=           -146.0819
   XY=             39.8237   XZ=             -0.3009   YZ=              0.4720

 Normal termination of Gaussian 16 at Tue Jan 16 16:54:28 2024.
