 Q-Chem 5.4, Q-Chem, Inc., Pleasanton, CA (2021)
 Q-Chem 5.4.0 for Intel X86 EM64T Linux

User input:
--------------------------------------------------------------
$molecule
-2 1
C                 -0.5688350000      2.1128880000     -0.0763840000
C                 -1.7734310000      1.3135780000     -0.0613500000
C                 -1.7165630000     -0.0949990000     -0.0068860000
C                 -0.4638410000     -0.7998920000      0.0280940000
C                  0.7348180000     -0.0058480000      0.0159180000
C                  0.6900990000      1.4031890000     -0.0373120000
O                 -0.6156800000      3.4179160000     -0.1306380000
O                 -0.4164140000     -2.1115990000      0.0714850000
C                  1.9097490000      2.3286060000     -0.0725070000
C                  2.7527970000      2.3506880000      1.2221940000
C                  2.7940310000      2.2048320000     -1.3321040000
C                  2.0631030000     -0.7662830000      0.0743070000
C                  2.2119300000     -1.5826770000      1.3772270000
C                  2.2751340000     -1.6712390000     -1.1591380000
C                 -3.0562820000      2.1477640000     -0.1236370000
C                 -3.9209550000      2.1140330000      1.1565880000
C                 -3.9071600000      1.9543920000     -1.3973310000
C                 -2.9870800000     -0.9496850000      0.0294470000
C                 -3.1125220000     -1.8667150000     -1.2068730000
C                 -3.0985020000     -1.7757360000      1.3300880000
H                  1.4413630000      3.3164480000     -0.1353370000
H                  3.5038750000      3.1572610000      1.1863520000
H                  3.2874730000      1.4137260000      1.4110000000
H                  2.1022640000      2.5375700000      2.0820090000
H                  3.3353970000      1.2554300000     -1.3961700000
H                  3.5408290000      3.0132170000     -1.3630840000
H                  2.1717860000      2.2898700000     -2.2284960000
H                  2.8769210000     -0.0407950000      0.0705090000
H                  2.1731060000     -0.9197780000      2.2493390000
H                  3.1735110000     -2.1197350000      1.4003070000
H                  1.3906180000     -2.2998070000      1.4424780000
H                  1.4615150000     -2.3981800000     -1.2096120000
H                  3.2407290000     -2.1999610000     -1.1003950000
H                  2.2713570000     -1.0733970000     -2.0776330000
H                 -2.6600320000      3.1668050000     -0.1837640000
H                 -4.7306960000      2.8607140000      1.1024750000
H                 -3.3013370000      2.3552310000      2.0256850000
H                 -4.3859210000      1.1402010000      1.3434190000
H                 -4.7078630000      2.7081900000     -1.4470510000
H                 -4.3798440000      0.9692020000     -1.4637670000
H                 -3.2767390000      2.0771730000     -2.2836230000
H                 -3.8509660000     -0.2848990000      0.0119650000
H                 -4.0393890000     -2.4621950000     -1.1650420000
H                 -2.2489180000     -2.5344760000     -1.2422740000
H                 -3.1344350000     -1.2696800000     -2.1256170000
H                 -4.0183850000     -2.3817470000      1.3364430000
H                 -3.1240870000     -1.1124300000      2.2024130000
H                 -2.2281880000     -2.4308830000      1.4102820000
$end

$rem
BASIS  =  6-311++G(d,p)
GUI  =  2
JOB_TYPE  =  SP
METHOD  =  B3LYP
SCF_CONVERGENCE  = 8
SOLVENT_METHOD = sm12
$end

$smx
solvent dimethylformamide
charges CM5
$end

--------------------------------------------------------------

             Standard Nuclear Orientation (Angstroms)
    I     Atom           X                Y                Z
 ----------------------------------------------------------------
    1      C      -0.5688350000     2.1128880000    -0.0763840000
    2      C      -1.7734310000     1.3135780000    -0.0613500000
    3      C      -1.7165630000    -0.0949990000    -0.0068860000
    4      C      -0.4638410000    -0.7998920000     0.0280940000
    5      C       0.7348180000    -0.0058480000     0.0159180000
    6      C       0.6900990000     1.4031890000    -0.0373120000
    7      O      -0.6156800000     3.4179160000    -0.1306380000
    8      O      -0.4164140000    -2.1115990000     0.0714850000
    9      C       1.9097490000     2.3286060000    -0.0725070000
   10      C       2.7527970000     2.3506880000     1.2221940000
   11      C       2.7940310000     2.2048320000    -1.3321040000
   12      C       2.0631030000    -0.7662830000     0.0743070000
   13      C       2.2119300000    -1.5826770000     1.3772270000
   14      C       2.2751340000    -1.6712390000    -1.1591380000
   15      C      -3.0562820000     2.1477640000    -0.1236370000
   16      C      -3.9209550000     2.1140330000     1.1565880000
   17      C      -3.9071600000     1.9543920000    -1.3973310000
   18      C      -2.9870800000    -0.9496850000     0.0294470000
   19      C      -3.1125220000    -1.8667150000    -1.2068730000
   20      C      -3.0985020000    -1.7757360000     1.3300880000
   21      H       1.4413630000     3.3164480000    -0.1353370000
   22      H       3.5038750000     3.1572610000     1.1863520000
   23      H       3.2874730000     1.4137260000     1.4110000000
   24      H       2.1022640000     2.5375700000     2.0820090000
   25      H       3.3353970000     1.2554300000    -1.3961700000
   26      H       3.5408290000     3.0132170000    -1.3630840000
   27      H       2.1717860000     2.2898700000    -2.2284960000
   28      H       2.8769210000    -0.0407950000     0.0705090000
   29      H       2.1731060000    -0.9197780000     2.2493390000
   30      H       3.1735110000    -2.1197350000     1.4003070000
   31      H       1.3906180000    -2.2998070000     1.4424780000
   32      H       1.4615150000    -2.3981800000    -1.2096120000
   33      H       3.2407290000    -2.1999610000    -1.1003950000
   34      H       2.2713570000    -1.0733970000    -2.0776330000
   35      H      -2.6600320000     3.1668050000    -0.1837640000
   36      H      -4.7306960000     2.8607140000     1.1024750000
   37      H      -3.3013370000     2.3552310000     2.0256850000
   38      H      -4.3859210000     1.1402010000     1.3434190000
   39      H      -4.7078630000     2.7081900000    -1.4470510000
   40      H      -4.3798440000     0.9692020000    -1.4637670000
   41      H      -3.2767390000     2.0771730000    -2.2836230000
   42      H      -3.8509660000    -0.2848990000     0.0119650000
   43      H      -4.0393890000    -2.4621950000    -1.1650420000
   44      H      -2.2489180000    -2.5344760000    -1.2422740000
   45      H      -3.1344350000    -1.2696800000    -2.1256170000
   46      H      -4.0183850000    -2.3817470000     1.3364430000
   47      H      -3.1240870000    -1.1124300000     2.2024130000
   48      H      -2.2281880000    -2.4308830000     1.4102820000
 ----------------------------------------------------------------

   16    -853.4194446394      7.85e-09  Convergence criterion met
 Total energy in the final basis set =     -853.6833345066

                    Orbital Energies (a.u.)
 --------------------------------------------------------------

 Alpha MOs
 -- Occupied --
-19.0053 -19.0006 -10.1686 -10.1685 -10.1635 -10.1634 -10.1632 -10.1632
-10.1632 -10.1613 -10.1582 -10.1581 -10.1550 -10.1549 -10.1547 -10.1547
-10.1295 -10.1295 -10.1285 -10.1285  -0.9199  -0.9149  -0.8065  -0.8051
 -0.7814  -0.7773  -0.7449  -0.6876  -0.6873  -0.6872  -0.6794  -0.6790
 -0.6443  -0.6189  -0.5912  -0.5664  -0.5515  -0.5214  -0.5006  -0.4706
 -0.4608  -0.4406  -0.4354  -0.4340  -0.4313  -0.4291  -0.4152  -0.4142
 -0.4090  -0.4076  -0.4057  -0.3983  -0.3911  -0.3862  -0.3826  -0.3791
 -0.3728  -0.3524  -0.3518  -0.3441  -0.3391  -0.3380  -0.3374  -0.3359
 -0.3290  -0.3246  -0.3207  -0.3182  -0.3085  -0.2905  -0.2893  -0.2877
 -0.2104  -0.2020  -0.1861  -0.1765  -0.1106

          Ground-State Mulliken Net Atomic Charges

     Atom                 Charge (a.u.)
  ----------------------------------------
      1 C                    -3.539637
      2 C                    -1.325924
      3 C                    -1.862838
      4 C                    -2.509435
      5 C                    -1.861050
      6 C                    -1.317939
      7 O                    -0.252572
      8 O                    -0.231910
      9 C                     1.624641
     10 C                    -0.019739
     11 C                    -0.006695
     12 C                     2.048649
     13 C                    -0.155279
     14 C                    -0.139242
     15 C                     1.622235
     16 C                    -0.021490
     17 C                    -0.006209
     18 C                     2.049172
     19 C                    -0.138087
     20 C                    -0.156132
     21 H                     0.046072
     22 H                     0.323551
     23 H                     0.244035
     24 H                     0.087858
     25 H                     0.243942
     26 H                     0.327705
     27 H                     0.081857
     28 H                    -0.152290
     29 H                     0.058679
     30 H                     0.311261
     31 H                     0.074346
     32 H                     0.076547
     33 H                     0.313523
     34 H                     0.062959
     35 H                     0.045910
     36 H                     0.322751
     37 H                     0.088652
     38 H                     0.243439
     39 H                     0.328497
     40 H                     0.243916
     41 H                     0.081268
     42 H                    -0.152633
     43 H                     0.313925
     44 H                     0.076287
     45 H                     0.063352
     46 H                     0.311109
     47 H                     0.058400
     48 H                     0.074564
  ----------------------------------------
  Sum of atomic charges =    -2.000000

                    Cartesian Multipole Moments
 -----------------------------------------------------------------
    Charge (ESU x 10^10)
                -9.6064
    Dipole Moment (Debye)
         X       4.9194      Y      -5.0924      Z       0.1561
       Tot       7.0822
    Quadrupole Moments (Debye-Ang)
        XX    -178.8307     XY       3.4781     YY    -203.2944
        XZ      -0.4081     YZ       1.9942     ZZ    -148.1954

 Total job time:  2713.19s(wall), 19482.45s(cpu)
        *  Thank you very much for using Q-Chem.  Have a nice day.  *
