 Gaussian 16, Revision A.03,
 Gaussian 16:  ES64L-G16RevA.03 25-Dec-2016

 --------------------------------------
 #P UB3LYP/6-311++G(d,p) nosym opt freq
 --------------------------------------

 --------
 Oxidized
 --------
 Symbolic Z-matrix:
 Charge =  0 Multiplicity = 1

 SCF Done:  E(UB3LYP) =  -718.700300265     A.U. after   15 cycles
 SCF Done:  E(UB3LYP) =  -718.702530295     A.U. after   13 cycles
 SCF Done:  E(UB3LYP) =  -718.702649058     A.U. after   11 cycles
 SCF Done:  E(UB3LYP) =  -718.702657341     A.U. after   11 cycles
 SCF Done:  E(UB3LYP) =  -718.702656000     A.U. after   11 cycles
 SCF Done:  E(UB3LYP) =  -718.702660539     A.U. after   10 cycles
 Optimization completed.
    -- Stationary point found.
 Normal termination of Gaussian 16 at Wed Dec 20 01:27:02 2023.

 ----------------------------------------------------------------------
 #P Geom=AllCheck Guess=TCheck SCRF=Check GenChk UB3LYP/6-311++G(d,p) F
 req
 ----------------------------------------------------------------------

 Structure from the checkpoint file:  "075.chk"
 --------
 Oxidized
 --------
 Charge =  0 Multiplicity = 1

                          Input orientation:
 ---------------------------------------------------------------------
 Center     Atomic      Atomic             Coordinates (Angstroms)
 Number     Number       Type             X           Y           Z
 ---------------------------------------------------------------------
      1          6           0        1.573305    1.083647   -1.553384
      2          6           0        0.113369    0.887601   -1.335793
      3          6           0       -0.355593    0.192177   -0.291493
      4          6           0        0.578992   -0.421502    0.707627
      5          6           0        2.031411   -0.217241    0.477348
      6          6           0        2.497362    0.478410   -0.567493
      7          8           0        1.977624    1.719280   -2.510259
      8          8           0        0.176901   -1.056645    1.662073
      9          6           0       -1.842477   -0.001785   -0.078585
     10          9           0       -2.561415    0.602881   -1.050496
     11          9           0       -2.175095   -1.305101   -0.091742
     12          9           0       -2.243421    0.520315    1.094467
     13          1           0       -0.541163    1.340307   -2.070943
     14          1           0        2.682523   -0.671967    1.215635
     15          1           0        3.555818    0.632944   -0.744360
 ---------------------------------------------------------------------

 SCF Done:  E(UB3LYP) =  -718.702660539     A.U. after    1 cycles

 Alpha  occ. eigenvalues --  -24.73558 -24.73177 -24.73176 -19.16558 -19.16497
 Alpha  occ. eigenvalues --  -10.45796 -10.31514 -10.31154 -10.25933 -10.24913
 Alpha  occ. eigenvalues --  -10.24030 -10.23897  -1.34187  -1.25320  -1.25195
 Alpha  occ. eigenvalues --   -1.09806  -1.09496  -0.90170  -0.84103  -0.76120
 Alpha  occ. eigenvalues --   -0.72490  -0.67407  -0.65350  -0.61948  -0.61830
 Alpha  occ. eigenvalues --   -0.58660  -0.54976  -0.53149  -0.50865  -0.49804
 Alpha  occ. eigenvalues --   -0.49255  -0.47888  -0.47563  -0.46295  -0.45639
 Alpha  occ. eigenvalues --   -0.45234  -0.44363  -0.44151  -0.43424  -0.42382
 Alpha  occ. eigenvalues --   -0.34405  -0.33499  -0.31345  -0.30301
 Alpha virt. eigenvalues --   -0.16220  -0.06849  -0.03045  -0.01484   0.00159
 Alpha virt. eigenvalues --    0.01558   0.02581   0.03485   0.04121   0.05397
 Alpha virt. eigenvalues --    0.05554   0.06232   0.07161   0.07582   0.08803

  Beta  occ. eigenvalues --  -24.73558 -24.73177 -24.73176 -19.16558 -19.16497
  Beta  occ. eigenvalues --  -10.45796 -10.31514 -10.31154 -10.25933 -10.24913
  Beta  occ. eigenvalues --  -10.24030 -10.23897  -1.34187  -1.25320  -1.25195
  Beta  occ. eigenvalues --   -1.09806  -1.09496  -0.90170  -0.84103  -0.76120
  Beta  occ. eigenvalues --   -0.72490  -0.67407  -0.65350  -0.61948  -0.61830
  Beta  occ. eigenvalues --   -0.58660  -0.54976  -0.53149  -0.50865  -0.49804
  Beta  occ. eigenvalues --   -0.49255  -0.47888  -0.47563  -0.46295  -0.45639
  Beta  occ. eigenvalues --   -0.45234  -0.44363  -0.44151  -0.43424  -0.42382
  Beta  occ. eigenvalues --   -0.34405  -0.33499  -0.31345  -0.30301
  Beta virt. eigenvalues --   -0.16220  -0.06849  -0.03045  -0.01484   0.00159
  Beta virt. eigenvalues --    0.01558   0.02581   0.03485   0.04121   0.05397
  Beta virt. eigenvalues --    0.05554   0.06232   0.07161   0.07582   0.08803

 Mulliken charges and spin densities:
               1          2
     1  C   -0.560718  -0.000000
     2  C   -0.384511   0.000000
     3  C    0.367130  -0.000000
     4  C   -0.431806  -0.000000
     5  C    0.063203  -0.000000
     6  C    0.287748   0.000000
     7  O   -0.204246   0.000000
     8  O   -0.191550  -0.000000
     9  C    0.631305   0.000000
    10  F   -0.154614  -0.000000
    11  F   -0.058997  -0.000000
    12  F   -0.059019  -0.000000
    13  H    0.232017   0.000000
    14  H    0.231783  -0.000000
    15  H    0.232274   0.000000
 Sum of Mulliken charges =  -0.00000   0.00000

 Dipole moment (field-independent basis, Debye):
    X=              2.5273    Y=              0.2840    Z=             -0.2883  Tot=              2.5595
 Quadrupole moment (field-independent basis, Debye-Ang):
   XX=            -64.8158   YY=            -70.2482   ZZ=            -74.9486
   XY=             -4.0492   XZ=              6.3916   YZ=              5.8422

  Exact polarizability:  91.154  10.714  71.932 -14.187 -31.537  98.825
 Approx polarizability: 123.103  28.619 127.279 -41.434 -75.588 191.204

                      1                      2                      3
                      A                      A                      A
 Frequencies --     51.5168                79.5533               124.5596
 Red. masses --     12.9206                 7.6751                 8.6782
 Frc consts  --      0.0202                 0.0286                 0.0793
 IR Inten    --      1.9943                 4.5590                 6.7237

                      4                      5                      6
                      A                      A                      A
 Frequencies --    164.6129               217.7902               281.0818
 Red. masses --     13.2659                 6.8933                13.9724
 Frc consts  --      0.2118                 0.1926                 0.6504
 IR Inten    --      0.3915                 0.2992                 0.4354

                      7                      8                      9
                      A                      A                      A
 Frequencies --    297.2766               336.5871               428.9154
 Red. masses --      4.5648                17.0634                 9.2675
 Frc consts  --      0.2377                 1.1390                 1.0045
 IR Inten    --      0.4447                 1.2328                22.5204

                     10                     11                     12
                      A                      A                      A
 Frequencies --    440.6648               467.1380               509.2856
 Red. masses --      5.0530                10.6693                 9.1155
 Frc consts  --      0.5781                 1.3718                 1.3930
 IR Inten    --      0.0200                 3.2614                 4.5060

                     13                     14                     15
                      A                      A                      A
 Frequencies --    537.9016               563.0054               642.9889
 Red. masses --      5.0277                 8.3420                 6.7400
 Frc consts  --      0.8571                 1.5579                 1.6418
 IR Inten    --      3.0081                10.4612                 5.4610

                     16                     17                     18
                      A                      A                      A
 Frequencies --    651.3625               726.9412               783.6475
 Red. masses --      3.6665                13.0276                 4.2095
 Frc consts  --      0.9165                 4.0562                 1.5231
 IR Inten    --      1.5944                 7.8272                 0.1960

                     19                     20                     21
                      A                      A                      A
 Frequencies --    798.6746               849.6593               849.8563
 Red. masses --      5.4133                 5.6849                 2.0917
 Frc consts  --      2.0345                 2.4180                 0.8901
 IR Inten    --      7.2189                 6.9770                15.6155

                     22                     23                     24
                      A                      A                      A
 Frequencies --    952.4797               998.4717              1013.5766
 Red. masses --      1.5050                 4.9357                 1.2496
 Frc consts  --      0.8044                 2.8991                 0.7564
 IR Inten    --     53.7152                81.5620                 0.1672

                     25                     26                     27
                      A                      A                      A
 Frequencies --   1110.4183              1148.8725              1149.5631
 Red. masses --      1.6159                12.0964                 6.6408
 Frc consts  --      1.1739                 9.4070                 5.1706
 IR Inten    --     41.5708               291.9162               173.5446

                     28                     29                     30
                      A                      A                      A
 Frequencies --   1207.9270              1267.9442              1294.8662
 Red. masses --      2.1790                 2.8922                 2.9032
 Frc consts  --      1.8732                 2.7395                 2.8680
 IR Inten    --     30.4962               279.4978                 4.5257

                     31                     32                     33
                      A                      A                      A
 Frequencies --   1364.8770              1394.3308              1655.2001
 Red. masses --      2.3522                 2.3099                 7.8820
 Frc consts  --      2.5817                 2.6460                12.7230
 IR Inten    --     83.7464                14.6638                 9.1664

                     34                     35                     36
                      A                      A                      A
 Frequencies --   1693.2800              1733.8288              1740.7813
 Red. masses --      9.6894                 9.6977                11.5237
 Frc consts  --     16.3684                17.1764                20.5746
 IR Inten    --      3.1272               177.0035               271.0133

                     37                     38                     39
                      A                      A                      A
 Frequencies --   3180.2867              3196.9276              3202.0305
 Red. masses --      1.0877                 1.0991                 1.0932
 Frc consts  --      6.4817                 6.6185                 6.6037
 IR Inten    --      0.1957                 0.4507                 1.2028

 - Thermochemistry -
 -------------------
 Temperature   298.150 Kelvin.  Pressure   1.00000 Atm.
 Atom     1 has atomic number  6 and mass  12.00000

 Molecular mass:   176.00851 amu.
 Principal axes and moments of inertia in atomic units:
                           1         2         3
     Eigenvalues --  1153.257252464.774073296.18335
           X            0.91645   0.39892  -0.03141
           Y            0.24147  -0.48872   0.83836
           Z           -0.31909   0.77590   0.54421
 This molecule is an asymmetric top.
 Rotational symmetry number  1.
 Warning -- assumption of classical behavior for rotation
           may cause significant error
 Rotational temperatures (Kelvin)      0.07510     0.03514     0.02628
 Rotational constants (GHZ):           1.56491     0.73221     0.54752
 Zero-point vibrational energy     233921.9 (Joules/Mol)
                                   55.90867 (Kcal/Mol)
 Warning -- explicit consideration of  14 degrees of freedom as
           vibrations may cause significant error
 Vibrational temperatures:     74.12   114.46   179.21   236.84   313.35
          (Kelvin)            404.41   427.71   484.27   617.11   634.02
                              672.11   732.75   773.92   810.04   925.12
                              937.17  1045.91  1127.49  1149.11  1222.47
                             1222.75  1370.41  1436.58  1458.31  1597.64
                             1652.97  1653.96  1737.94  1824.29  1863.02
                             1963.75  2006.13  2381.46  2436.25  2494.59
                             2504.60  4575.72  4599.67  4607.01

 Zero-point correction=                           0.089096 (Hartree/Particle)
 Thermal correction to Energy=                    0.098932
 Thermal correction to Enthalpy=                  0.099876
 Thermal correction to Gibbs Free Energy=         0.052868
 Sum of electronic and zero-point Energies=           -718.613564
 Sum of electronic and thermal Energies=              -718.603728
 Sum of electronic and thermal Enthalpies=            -718.602784
 Sum of electronic and thermal Free Energies=         -718.649792

                     E (Thermal)             CV                S
                      KCal/Mol        Cal/Mol-Kelvin    Cal/Mol-Kelvin
 Total                   62.081             36.072             98.937
 Electronic               0.000              0.000              0.000
 Translational            0.889              2.981             41.403
 Rotational               0.889              2.981             30.617
 Vibrational             60.303             30.111             26.917
 Vibration     1          0.596              1.977              4.758
 Vibration     2          0.600              1.963              3.902
 Vibration     3          0.610              1.928              3.028
 Vibration     4          0.623              1.886              2.496
 Vibration     5          0.646              1.814              1.977
 Vibration     6          0.681              1.709              1.527
 Vibration     7          0.691              1.679              1.432
 Vibration     8          0.717              1.602              1.228
 Vibration     9          0.790              1.407              0.862
 Vibration    10          0.801              1.381              0.825
 Vibration    11          0.824              1.323              0.746
 Vibration    12          0.864              1.229              0.635
 Vibration    13          0.893              1.166              0.570
 Vibration    14          0.919              1.111              0.518

 Optimization completed.
    -- Stationary point found.
 Normal termination of Gaussian 16 at Wed Dec 20 01:32:00 2023.
