 Q-Chem 5.4, Q-Chem, Inc., Pleasanton, CA (2021)
 Q-Chem 5.4.0 for Intel X86 EM64T Linux

User input:
--------------------------------------------------------------
$molecule
0 1
O                  3.7817280000     -2.4795000000      0.3830730000
C                  3.0009030000     -1.5493650000      0.2512430000
C                  3.4020100000     -0.1567100000      0.5749910000
C                  4.6811310000      0.0983440000      1.0810400000
C                  5.0719070000      1.4021960000      1.3572670000
C                  4.1900770000      2.4607210000      1.1176670000
C                  2.9217140000      2.2134430000      0.6056510000
C                  2.5142260000      0.9020490000      0.3395370000
C                  1.1346480000      0.6691040000     -0.1976700000
O                  0.4883970000      1.6271630000     -0.6100320000
C                  0.6438960000     -0.7251840000     -0.2678300000
C                 -0.7150360000     -1.0436430000     -0.6013150000
C                 -0.9728950000     -2.3382120000     -1.1210780000
C                  0.0066990000     -3.3130450000     -1.1566910000
C                  1.2869250000     -3.0554150000     -0.6684580000
C                  1.6029520000     -1.7746180000     -0.2354680000
N                 -1.7595520000     -0.1729750000     -0.4117820000
C                 -1.7780410000      0.7898170000      0.6994740000
C                 -3.1547400000      0.8092110000      1.3686560000
C                 -4.2539650000      1.2665560000      0.3868980000
C                 -3.8878220000      0.8782790000     -1.0606050000
C                 -3.0372160000     -0.3916230000     -1.1042870000
H                  5.3491010000     -0.7387410000      1.2425380000
H                  6.0619970000      1.5996440000      1.7523830000
H                  4.4970660000      3.4789290000      1.3294280000
H                  2.2291980000      3.0209210000      0.4039330000
H                 -1.9720000000     -2.5940950000     -1.4440380000
H                 -0.2412920000     -4.2991570000     -1.5339600000
H                  2.0496910000     -3.8216950000     -0.6345280000
H                 -1.4984340000      1.7878130000      0.3489590000
H                 -1.0146280000      0.4863780000      1.4194970000
H                 -3.1127900000      1.4701470000      2.2387290000
H                 -3.3796240000     -0.1927050000      1.7490600000
H                 -4.3908580000      2.3498920000      0.4484970000
H                 -5.2096690000      0.8158440000      0.6708340000
H                 -4.7875660000      0.7235320000     -1.6619960000
H                 -3.3234580000      1.6842960000     -1.5385110000
H                 -2.8267020000     -0.6596860000     -2.1422390000
H                 -3.5979780000     -1.2279100000     -0.6576690000
$end
$rem
MAX_SCF_CYCLES=200
BASIS  =  6-311++G(d,p)
GUI  =  2
JOB_TYPE  =  SP
METHOD  =  B3LYP
SOLVENT_METHOD = COSMO
$end
$solvent
dielectric 37.219
opticaldielectric 1.43
$end

--------------------------------------------------------------

             Standard Nuclear Orientation (Angstroms)
    I     Atom           X                Y                Z
 ----------------------------------------------------------------
    1      O       3.2582369540    -2.2842956420     0.5471430658
    2      C       2.4680431388    -1.3958277233     0.2670780026
    3      C       2.9128651059     0.0144681153     0.1314807785
    4      C       4.2508938546     0.3470911324     0.3688194863
    5      C       4.6786600313     1.6594042751     0.2142633823
    6      C       3.7734851907     2.6454637326    -0.1905238938
    7      C       2.4452786440     2.3182175417    -0.4371588329
    8      C       2.0023798875     1.0021417832    -0.2686279937
    9      C       0.5605409320     0.6862300253    -0.5282245645
   10      O      -0.1358874633     1.5184380963    -1.1009173603
   11      C       0.0626799074    -0.6518478520    -0.1390189988
   12      C      -1.3301570974    -0.9943700972    -0.1838313859
   13      C      -1.6606162398    -2.3705424887    -0.2812995342
   14      C      -0.6972851317    -3.3563436855    -0.1747103931
   15      C       0.6393323505    -3.0262192866     0.0448229253
   16      C       1.0151377797    -1.6896401064     0.0558108468
   17      N      -2.3362436365    -0.0633667312    -0.1062310848
   18      C      -2.1965775315     1.1691048154     0.6835204216
   19      C      -3.4652772417     1.4289693982     1.4998244438
   20      C      -4.6911179932     1.6414513426     0.5868760906
   21      C      -4.5330785032     0.8534173323    -0.7299802335
   22      C      -3.6990346271    -0.4126569723    -0.5311928047
   23      H       4.9336775178    -0.4392257537     0.6662905703
   24      H       5.7148278296     1.9178368534     0.4012111567
   25      H       4.1087860446     3.6691122165    -0.3152219979
   26      H       1.7324841525     3.0659870960    -0.7612791638
   27      H      -2.6956357187    -2.6647586615    -0.3821042675
   28      H      -0.9974371055    -4.3973531005    -0.2242734999
   29      H       1.3981082849    -3.7837003668     0.1884535229
   30      H      -1.9676062177     2.0189730798     0.0336489525
   31      H      -1.3398294436     1.0457192108     1.3499035414
   32      H      -3.3002012748     2.3024549123     2.1365317594
   33      H      -3.6358675179     0.5813694330     2.1718281227
   34      H      -4.8163237808     2.7042223598     0.3610613552
   35      H      -5.5979913825     1.3262322920     1.1116128824
   36      H      -5.5087873284     0.5752529395    -1.1371336364
   37      H      -4.0404221567     1.4721090607    -1.4856749755
   38      H      -3.6372096748    -0.9656603989    -1.4713434074
   39      H      -4.1925774391    -1.0692113813     0.2027345799
 ----------------------------------------------------------------

    9    -939.7108677777      2.50e-06  Convergence criterion met
 Total energy in the final basis set =     -939.7108677777
    5    -939.7272156383      3.84e-06  Convergence criterion met
 Total energy in the final basis set =     -939.7272156383

                    Orbital Energies (a.u.)
 --------------------------------------------------------------

 Alpha MOs
 -- Occupied --
-19.1259 -19.1162 -14.3446 -10.2780 -10.2719 -10.2388 -10.2039 -10.2024
-10.2018 -10.2006 -10.1989 -10.1988 -10.1930 -10.1924 -10.1914 -10.1906
-10.1905 -10.1867 -10.1818 -10.1679 -10.1664 -10.1641  -1.0616  -1.0524
 -0.9633  -0.8858  -0.8701  -0.8106  -0.8027  -0.7725  -0.7683  -0.7577
 -0.7532  -0.6858  -0.6727  -0.6529  -0.6467  -0.6265  -0.6025  -0.5783
 -0.5559  -0.5537  -0.5378  -0.5142  -0.5078  -0.4940  -0.4855  -0.4799
 -0.4744  -0.4536  -0.4487  -0.4470  -0.4452  -0.4393  -0.4391  -0.4263
 -0.4189  -0.4125  -0.4083  -0.3922  -0.3876  -0.3815  -0.3808  -0.3695
 -0.3684  -0.3622  -0.3612  -0.3371  -0.3262  -0.3190  -0.2941  -0.2824
 -0.2816  -0.2741  -0.2686  -0.2658  -0.2122

          Ground-State Mulliken Net Atomic Charges

     Atom                 Charge (a.u.)
  ----------------------------------------
      1 O                    -0.314260
      2 C                    -0.535497
      3 C                     0.355528
      4 C                     0.103440
      5 C                    -0.624673
      6 C                    -0.481494
      7 C                    -0.000706
      8 C                     0.321864
      9 C                    -0.485318
     10 O                    -0.317149
     11 C                     0.179003
     12 C                     0.005741
     13 C                    -0.137424
     14 C                    -0.438200
     15 C                    -0.016802
     16 C                     0.413443
     17 N                     0.467913
     18 C                    -0.217175
     19 C                    -0.575032
     20 C                    -0.494680
     21 C                    -0.468217
     22 C                    -0.101235
     23 H                     0.212463
     24 H                     0.219952
     25 H                     0.225445
     26 H                     0.206118
     27 H                     0.201195
     28 H                     0.241237
     29 H                     0.194595
     30 H                     0.210072
     31 H                     0.185811
     32 H                     0.190927
     33 H                     0.184820
     34 H                     0.162850
     35 H                     0.160455
     36 H                     0.193759
     37 H                     0.185187
     38 H                     0.200567
     39 H                     0.185477
  ----------------------------------------
  Sum of atomic charges =     0.000000

                    Cartesian Multipole Moments
 -----------------------------------------------------------------
    Charge (ESU x 10^10)
                -0.0000
    Dipole Moment (Debye)
         X      -4.7795      Y       1.7101      Z       1.2610
       Tot       5.2305
    Quadrupole Moments (Debye-Ang)
        XX    -107.3982     XY      20.0490     YY    -122.9992
        XZ      -1.8219     YZ       6.1128     ZZ    -134.0763

 Total job time:  123.04s(wall), 954.06s(cpu)
        *  Thank you very much for using Q-Chem.  Have a nice day.  *
