 Gaussian 16, Revision A.03,
 Gaussian 16:  ES64L-G16RevA.03 25-Dec-2016

 ----------------------------------------------------------------
 #P UB3LYP/6-311++G(d,p) SCRF=(PCM,Solvent=n,n-DiMethylFormamide)
 ----------------------------------------------------------------

 ------------------
 Quinone PCM in DMF
 ------------------
 Symbolic Z-matrix:
 Charge =  0 Multiplicity = 1

                         Standard orientation:
 ---------------------------------------------------------------------
 Center     Atomic      Atomic             Coordinates (Angstroms)
 Number     Number       Type             X           Y           Z
 ---------------------------------------------------------------------
      1          6           0       -4.816778    0.235930   -0.774699
      2          6           0       -5.498160   -0.974792   -0.852225
      3          6           0       -4.871608   -2.155113   -0.448040
      4          6           0       -3.506202    0.263110   -0.291895
      5          6           0       -2.873269   -0.922583    0.115738
      6          6           0       -3.564416   -2.130174    0.034674
      7          6           0       -2.770751    1.537652   -0.203228
      8          6           0       -1.372207    1.510344    0.313625
      9          6           0       -0.743661    0.380650    0.722339
     10          6           0       -1.463996   -0.907170    0.638078
     11          8           0       -3.237564    2.623436   -0.529162
     12          8           0       -0.929869   -1.949919    0.989614
     13          1           0       -5.281690    1.164765   -1.081784
     14          1           0       -6.514975   -1.000459   -1.226560
     15          1           0       -5.404144   -3.097437   -0.509352
     16          1           0       -3.063782   -3.036255    0.352604
     17          8           0       -0.781170    2.715853    0.348547
     18          6           0        0.671430    0.381989    1.228132
     19          6           0        1.705097    0.111650    0.113537
     20          6           0        3.144663    0.102050    0.637894
     21          6           0        4.187101   -0.162828   -0.454299
     22          6           0        5.629168   -0.174714    0.065083
     23          1           0       -1.445149    3.351752    0.020463
     24          1           0        0.766230   -0.392260    1.993524
     25          1           0        0.885147    1.348326    1.691977
     26          1           0        1.602514    0.876543   -0.664569
     27          1           0        1.479484   -0.851863   -0.355545
     28          1           0        3.238082   -0.660917    1.421075
     29          1           0        3.361347    1.064041    1.120054
     30          1           0        4.091501    0.599525   -1.238320
     31          1           0        3.968504   -1.124223   -0.936607
     32          1           0        5.725294   -0.936778    0.849504
     33          1           0        5.848562    0.786589    0.547992
     34          6           0        6.673695   -0.440167   -1.025057
     35          6           0        8.111326   -0.450546   -0.497228
     36          1           0        6.578171    0.321280   -1.808802
     37          1           0        6.455032   -1.400791   -1.507220
     38          1           0        8.371985    0.509498   -0.040372
     39          1           0        8.830464   -0.642572   -1.298481
     40          1           0        8.247654   -1.225451    0.263851
 ---------------------------------------------------------------------

 SCF Done:  E(UB3LYP) =  -885.803986647     A.U. after   16 cycles

 The electronic state is 1-A.
 Alpha  occ. eigenvalues --  -19.18061 -19.15134 -19.13084 -10.29521 -10.28232
 Alpha  occ. eigenvalues --  -10.26897 -10.21290 -10.21160 -10.20554 -10.20353
 Alpha  occ. eigenvalues --  -10.20183 -10.20014 -10.19972 -10.17807 -10.16906
 Alpha  occ. eigenvalues --  -10.16296 -10.16196 -10.16099 -10.15996 -10.15539
 Alpha  occ. eigenvalues --   -1.11060  -1.06911  -1.06438  -0.89485  -0.84609
 Alpha  occ. eigenvalues --   -0.81126  -0.79402  -0.78245  -0.77122  -0.73678
 Alpha  occ. eigenvalues --   -0.70285  -0.67908  -0.65704  -0.63812  -0.61034
 Alpha  occ. eigenvalues --   -0.60498  -0.58112  -0.57685  -0.57480  -0.54462
 Alpha  occ. eigenvalues --   -0.52090  -0.49995  -0.48389  -0.47947  -0.47355
 Alpha  occ. eigenvalues --   -0.46922  -0.46037  -0.45525  -0.44626  -0.43897
 Alpha  occ. eigenvalues --   -0.43199  -0.42621  -0.41664  -0.41490  -0.41070
 Alpha  occ. eigenvalues --   -0.40182  -0.38727  -0.37985  -0.37892  -0.37459
 Alpha  occ. eigenvalues --   -0.37307  -0.36662  -0.34487  -0.34211  -0.32752
 Alpha  occ. eigenvalues --   -0.32665  -0.32135  -0.31626  -0.30451  -0.29176
 Alpha  occ. eigenvalues --   -0.28235  -0.28054  -0.25848
 Alpha virt. eigenvalues --   -0.12742  -0.05821  -0.02781  -0.00968  -0.00250
 Alpha virt. eigenvalues --    0.00227   0.00804   0.00883   0.01520   0.01793
 Alpha virt. eigenvalues --    0.02224   0.02581   0.02648   0.03406   0.03842

  Beta  occ. eigenvalues --  -19.18061 -19.15134 -19.13084 -10.29521 -10.28232
  Beta  occ. eigenvalues --  -10.26897 -10.21290 -10.21160 -10.20554 -10.20353
  Beta  occ. eigenvalues --  -10.20183 -10.20014 -10.19972 -10.17807 -10.16906
  Beta  occ. eigenvalues --  -10.16296 -10.16196 -10.16099 -10.15996 -10.15539
  Beta  occ. eigenvalues --   -1.11060  -1.06911  -1.06438  -0.89485  -0.84609
  Beta  occ. eigenvalues --   -0.81126  -0.79402  -0.78245  -0.77122  -0.73678
  Beta  occ. eigenvalues --   -0.70285  -0.67908  -0.65704  -0.63812  -0.61034
  Beta  occ. eigenvalues --   -0.60498  -0.58112  -0.57685  -0.57480  -0.54462
  Beta  occ. eigenvalues --   -0.52090  -0.49995  -0.48389  -0.47947  -0.47355
  Beta  occ. eigenvalues --   -0.46922  -0.46037  -0.45525  -0.44626  -0.43897
  Beta  occ. eigenvalues --   -0.43199  -0.42621  -0.41664  -0.41490  -0.41070
  Beta  occ. eigenvalues --   -0.40182  -0.38727  -0.37985  -0.37892  -0.37459
  Beta  occ. eigenvalues --   -0.37307  -0.36662  -0.34487  -0.34211  -0.32752
  Beta  occ. eigenvalues --   -0.32665  -0.32135  -0.31626  -0.30451  -0.29176
  Beta  occ. eigenvalues --   -0.28235  -0.28054  -0.25848
  Beta virt. eigenvalues --   -0.12742  -0.05821  -0.02781  -0.00968  -0.00250
  Beta virt. eigenvalues --    0.00227   0.00804   0.00883   0.01520   0.01793
  Beta virt. eigenvalues --    0.02224   0.02581   0.02648   0.03406   0.03842

 Mulliken charges and spin densities:
               1          2
     1  C    0.196226  -0.000000
     2  C   -0.378138  -0.000000
     3  C   -0.401176   0.000000
     4  C    0.509217  -0.000000
     5  C   -0.112101   0.000000
     6  C    0.178835  -0.000000
     7  C   -0.821016   0.000000
     8  C   -0.450674   0.000000
     9  C    1.910995  -0.000000
    10  C   -0.803135  -0.000000
    11  O   -0.312384  -0.000000
    12  O   -0.275489  -0.000000
    13  H    0.190733   0.000000
    14  H    0.211503  -0.000000
    15  H    0.207697   0.000000
    16  H    0.190831   0.000000
    17  O   -0.222130   0.000000
    18  C   -0.375167   0.000000
    19  C   -0.615311  -0.000000
    20  C   -0.079491  -0.000000
    21  C   -0.102566   0.000000
    22  C   -0.275228   0.000000
    23  H    0.307324   0.000000
    24  H    0.218544  -0.000000
    25  H    0.231685  -0.000000
    26  H    0.173804  -0.000000
    27  H    0.175597   0.000000
    28  H    0.119344   0.000000
    29  H    0.117430   0.000000
    30  H    0.125711   0.000000
    31  H    0.125879   0.000000
    32  H    0.126888  -0.000000
    33  H    0.126769  -0.000000
    34  C   -0.225611   0.000000
    35  C   -0.682500   0.000000
    36  H    0.131351  -0.000000
    37  H    0.131460  -0.000000
    38  H    0.139959   0.000000
    39  H    0.144329  -0.000000
    40  H    0.140005  -0.000000
 Sum of Mulliken charges =  -0.00000   0.00000

 Dipole moment (field-independent basis, Debye):
    X=             -2.7237    Y=             -0.2964    Z=             -1.2188  Tot=              2.9986
 Quadrupole moment (field-independent basis, Debye-Ang):
   XX=           -100.3407   YY=           -124.2626   ZZ=           -123.3775
   XY=             10.7296   XZ=              3.4649   YZ=              3.8401

 Normal termination of Gaussian 16 at Sun Jan 21 08:16:44 2024.
