 Gaussian 16, Revision A.03,
 Gaussian 16:  ES64L-G16RevA.03 25-Dec-2016

 ----------------------------------------------------------------------
 #P UB3LYP/6-311++G(d,p) nosym opt freq SCRF=(PCM,Solvent=n,n-DiMethylF
 ormamide)
 ----------------------------------------------------------------------

 -------
 Reduced
 -------
 Symbolic Z-matrix:
 Charge = -2 Multiplicity = 1

 SCF Done:  E(UB3LYP) =  -968.070526352     A.U. after   18 cycles
 SCF Done:  E(UB3LYP) =  -968.074047737     A.U. after   15 cycles
 SCF Done:  E(UB3LYP) =  -968.074537028     A.U. after   13 cycles
 SCF Done:  E(UB3LYP) =  -968.074563515     A.U. after   14 cycles
 SCF Done:  E(UB3LYP) =  -968.074589722     A.U. after   12 cycles
 SCF Done:  E(UB3LYP) =  -968.074593338     A.U. after   12 cycles
 SCF Done:  E(UB3LYP) =  -968.074594286     A.U. after   10 cycles
 SCF Done:  E(UB3LYP) =  -968.074594488     A.U. after   10 cycles
 SCF Done:  E(UB3LYP) =  -968.074594794     A.U. after   10 cycles
 SCF Done:  E(UB3LYP) =  -968.074598293     A.U. after   12 cycles
 SCF Done:  E(UB3LYP) =  -968.074591218     A.U. after   13 cycles
 SCF Done:  E(UB3LYP) =  -968.074429873     A.U. after   13 cycles
 SCF Done:  E(UB3LYP) =  -968.074605068     A.U. after   13 cycles
 SCF Done:  E(UB3LYP) =  -968.074615071     A.U. after   12 cycles
 SCF Done:  E(UB3LYP) =  -968.074624478     A.U. after   12 cycles
 SCF Done:  E(UB3LYP) =  -968.074624904     A.U. after   11 cycles
 SCF Done:  E(UB3LYP) =  -968.074624943     A.U. after   10 cycles
 SCF Done:  E(UB3LYP) =  -968.074624976     A.U. after   10 cycles
 SCF Done:  E(UB3LYP) =  -968.074625051     A.U. after   10 cycles
 Optimization completed.
    -- Stationary point found.
 Normal termination of Gaussian 16 at Sun Feb 11 05:29:30 2024.

 ----------------------------------------------------------------------
 #P Geom=AllCheck Guess=TCheck SCRF=Check GenChk UB3LYP/6-311++G(d,p) F
 req
 ----------------------------------------------------------------------

 Structure from the checkpoint file:  "249-an.chk"
 -------
 Reduced
 -------
 Charge = -2 Multiplicity = 1

                          Input orientation:
 ---------------------------------------------------------------------
 Center     Atomic      Atomic             Coordinates (Angstroms)
 Number     Number       Type             X           Y           Z
 ---------------------------------------------------------------------
      1          6           0        5.807472   -5.703454    0.536976
      2          6           0        5.970621   -5.913979   -0.818105
      3          6           0        5.283163   -5.088659   -1.742592
      4          6           0        4.965451   -4.681841    1.050023
      5          6           0        4.263823   -3.843535    0.108755
      6          6           0        4.455753   -4.085810   -1.276597
      7          6           0        4.829445   -4.496767    2.480881
      8          6           0        3.950872   -3.461259    2.885910
      9          6           0        3.261560   -2.623550    1.953407
     10          6           0        3.382705   -2.780555    0.550325
     11          8           0        5.494205   -5.256793    3.324676
     12          8           0        2.750264   -2.024117   -0.318404
     13          1           0        6.621791   -6.706520   -1.175400
     14          6           0        2.352096   -1.515888    2.448750
     15          1           0        5.407318   -5.245943   -2.810116
     16          6           0        3.772333   -3.246116    4.375223
     17          6           0        0.877560   -1.934130    2.621826
     18          6           0       -0.038826   -0.792613    3.077664
     19          6           0       -1.507020   -1.206320    3.233372
     20          1           0        6.327554   -6.325211    1.257550
     21          1           0        3.921428   -3.445758   -1.970270
     22          1           0        2.383728   -0.698464    1.720830
     23          1           0        2.713722   -1.112299    3.401360
     24          1           0        4.136050   -4.122262    4.914049
     25          1           0        2.728283   -3.074196    4.654461
     26          1           0        4.341162   -2.380966    4.747386
     27          1           0        0.813829   -2.758386    3.343638
     28          1           0        0.514168   -2.331907    1.667653
     29          1           0        0.028307    0.032934    2.356348
     30          1           0        0.326820   -0.391937    4.032961
     31          1           0       -1.575428   -2.027992    3.958569
     32          1           0       -1.868988   -1.611919    2.279404
     33          6           0       -2.431054   -0.065977    3.676491
     34          6           0       -3.898161   -0.486400    3.822518
     35          6           0       -4.827159    0.652604    4.258125
     36          6           0       -6.293621    0.229246    4.399295
     37          6           0       -7.225710    1.366898    4.831754
     38          6           0       -8.688302    0.932782    4.968488
     39          1           0       -2.361840    0.756495    2.952449
     40          1           0       -2.073992    0.338468    4.632776
     41          1           0       -3.967843   -1.306687    4.548932
     42          1           0       -4.252511   -0.894670    2.866947
     43          1           0       -4.756901    1.473292    3.532241
     44          1           0       -4.475281    1.060293    5.214869
     45          1           0       -6.365266   -0.590474    5.126329
     46          1           0       -6.645518   -0.179880    3.443044
     47          1           0       -7.154949    2.185994    4.105570
     48          1           0       -6.875758    1.775567    5.787678
     49          1           0       -9.076899    0.551074    4.018753
     50          1           0       -9.325871    1.766109    5.277631
     51          1           0       -8.795777    0.137506    5.713267
 ---------------------------------------------------------------------

 SCF Done:  E(UB3LYP) =  -968.074625051     A.U. after    1 cycles

 Alpha  occ. eigenvalues --  -19.00619 -19.00617 -10.15960 -10.15899 -10.15887
 Alpha  occ. eigenvalues --  -10.15691 -10.15653 -10.15589 -10.15499 -10.15349
 Alpha  occ. eigenvalues --  -10.15335 -10.15019 -10.14554 -10.14508 -10.14415
 Alpha  occ. eigenvalues --  -10.14160 -10.14154 -10.13495 -10.13171 -10.13155
 Alpha  occ. eigenvalues --  -10.13126 -10.12207 -10.11898  -0.91513  -0.91061
 Alpha  occ. eigenvalues --   -0.81949  -0.80749  -0.79167  -0.77623  -0.75719
 Alpha  occ. eigenvalues --   -0.72996  -0.71704  -0.71505  -0.69078  -0.66131
 Alpha  occ. eigenvalues --   -0.63557  -0.62032  -0.59830  -0.57449  -0.57161
 Alpha  occ. eigenvalues --   -0.56542  -0.56088  -0.54713  -0.51324  -0.48174
 Alpha  occ. eigenvalues --   -0.47624  -0.46220  -0.45689  -0.43976  -0.42974
 Alpha  occ. eigenvalues --   -0.42450  -0.42184  -0.41568  -0.40627  -0.39986
 Alpha  occ. eigenvalues --   -0.39475  -0.39141  -0.38162  -0.37690  -0.37047
 Alpha  occ. eigenvalues --   -0.36624  -0.35995  -0.35569  -0.35232  -0.34893
 Alpha  occ. eigenvalues --   -0.34313  -0.33747  -0.33315  -0.33044  -0.32473
 Alpha  occ. eigenvalues --   -0.32122  -0.31808  -0.31627  -0.31512  -0.31121
 Alpha  occ. eigenvalues --   -0.30246  -0.30215  -0.29966  -0.29028  -0.28421
 Alpha  occ. eigenvalues --   -0.22366  -0.21439  -0.19576  -0.18971  -0.18298
 Alpha  occ. eigenvalues --   -0.10677
 Alpha virt. eigenvalues --   -0.00288  -0.00175   0.00109   0.00636   0.00948
 Alpha virt. eigenvalues --    0.01060   0.01473   0.01510   0.01812   0.02207
 Alpha virt. eigenvalues --    0.02594   0.02801   0.03564   0.03776   0.04424

  Beta  occ. eigenvalues --  -19.00619 -19.00617 -10.15960 -10.15899 -10.15887
  Beta  occ. eigenvalues --  -10.15691 -10.15653 -10.15589 -10.15499 -10.15349
  Beta  occ. eigenvalues --  -10.15335 -10.15019 -10.14554 -10.14508 -10.14415
  Beta  occ. eigenvalues --  -10.14160 -10.14154 -10.13495 -10.13171 -10.13155
  Beta  occ. eigenvalues --  -10.13126 -10.12207 -10.11898  -0.91513  -0.91061
  Beta  occ. eigenvalues --   -0.81949  -0.80749  -0.79167  -0.77623  -0.75719
  Beta  occ. eigenvalues --   -0.72996  -0.71704  -0.71505  -0.69078  -0.66131
  Beta  occ. eigenvalues --   -0.63557  -0.62032  -0.59830  -0.57449  -0.57161
  Beta  occ. eigenvalues --   -0.56542  -0.56088  -0.54713  -0.51324  -0.48174
  Beta  occ. eigenvalues --   -0.47624  -0.46220  -0.45689  -0.43976  -0.42974
  Beta  occ. eigenvalues --   -0.42450  -0.42184  -0.41568  -0.40627  -0.39986
  Beta  occ. eigenvalues --   -0.39475  -0.39141  -0.38162  -0.37690  -0.37047
  Beta  occ. eigenvalues --   -0.36624  -0.35995  -0.35569  -0.35232  -0.34893
  Beta  occ. eigenvalues --   -0.34313  -0.33747  -0.33315  -0.33044  -0.32473
  Beta  occ. eigenvalues --   -0.32122  -0.31808  -0.31627  -0.31512  -0.31121
  Beta  occ. eigenvalues --   -0.30246  -0.30215  -0.29966  -0.29028  -0.28421
  Beta  occ. eigenvalues --   -0.22366  -0.21439  -0.19576  -0.18971  -0.18298
  Beta  occ. eigenvalues --   -0.10677
  Beta virt. eigenvalues --   -0.00288  -0.00175   0.00109   0.00636   0.00948
  Beta virt. eigenvalues --    0.01060   0.01473   0.01510   0.01812   0.02207
  Beta virt. eigenvalues --    0.02594   0.02801   0.03564   0.03776   0.04424

 Mulliken charges and spin densities:
               1          2
     1  C    0.063217  -0.000000
     2  C   -0.484121  -0.000000
     3  C   -0.441387   0.000000
     4  C    0.207081   0.000000
     5  C   -0.034241   0.000000
     6  C   -0.044593  -0.000000
     7  C   -0.664510  -0.000000
     8  C    0.953875   0.000000
     9  C    0.925706   0.000000
    10  C   -1.001419  -0.000000
    11  O   -0.721901   0.000000
    12  O   -0.702889  -0.000000
    13  H    0.148714   0.000000
    14  C   -0.482222  -0.000000
    15  H    0.151114  -0.000000
    16  C   -0.574573  -0.000000
    17  C   -0.957726  -0.000000
    18  C   -0.314037   0.000000
    19  C    0.001881  -0.000000
    20  H    0.150163   0.000000
    21  H    0.144600  -0.000000
    22  H    0.192107   0.000000
    23  H    0.161000   0.000000
    24  H    0.158812   0.000000
    25  H    0.133417   0.000000
    26  H    0.150647  -0.000000
    27  H    0.119487  -0.000000
    28  H    0.184096  -0.000000
    29  H    0.111914  -0.000000
    30  H    0.109912  -0.000000
    31  H    0.126111  -0.000000
    32  H    0.119650   0.000000
    33  C    0.062878  -0.000000
    34  C    0.001724  -0.000000
    35  C   -0.238784   0.000000
    36  C   -0.447830  -0.000000
    37  C   -0.279737   0.000000
    38  C   -0.691504  -0.000000
    39  H    0.129557   0.000000
    40  H    0.129272   0.000000
    41  H    0.129080  -0.000000
    42  H    0.128849   0.000000
    43  H    0.125916  -0.000000
    44  H    0.126043  -0.000000
    45  H    0.123143   0.000000
    46  H    0.123073   0.000000
    47  H    0.130799  -0.000000
    48  H    0.130794  -0.000000
    49  H    0.139988  -0.000000
    50  H    0.147079  -0.000000
    51  H    0.139779  -0.000000
 Sum of Mulliken charges =  -2.00000   0.00000

 Dipole moment (field-independent basis, Debye):
    X=            -40.4142    Y=             36.2785    Z=            -12.6574  Tot=             55.7642
 Quadrupole moment (field-independent basis, Debye-Ang):
   XX=           -346.3889   YY=           -315.5581   ZZ=           -201.0364
   XY=            171.5182   XZ=            -67.8699   YZ=             65.9076

  Exact polarizability: 388.033-101.011 398.319 -33.450  35.183 474.607
 Approx polarizability: 392.763-102.394 433.790 -22.168  29.616 525.933

                      1                      2                      3
                      A                      A                      A
 Frequencies --     15.9590                25.0587                28.0324
 Red. masses --      3.7705                 4.6500                 1.7080
 Frc consts  --      0.0006                 0.0017                 0.0008
 IR Inten    --      0.0508                 0.3232                 0.2067

                      4                      5                      6
                      A                      A                      A
 Frequencies --     40.4424                51.7767                76.9962
 Red. masses --      3.9018                 4.7424                 1.7987
 Frc consts  --      0.0038                 0.0075                 0.0063
 IR Inten    --      1.7457                 4.3227                 0.3714

                      7                      8                      9
                      A                      A                      A
 Frequencies --     80.1510                99.1193               113.9335
 Red. masses --      2.9030                 3.6314                 3.0044
 Frc consts  --      0.0110                 0.0210                 0.0230
 IR Inten    --      5.5035                17.5348                 0.3496

                     10                     11                     12
                      A                      A                      A
 Frequencies --    123.3859               125.1121               134.9343
 Red. masses --      3.9060                 1.9882                 2.3502
 Frc consts  --      0.0350                 0.0183                 0.0252
 IR Inten    --      5.2826                 0.2546                 2.4862

                     13                     14                     15
                      A                      A                      A
 Frequencies --    146.6198               158.3311               161.1438
 Red. masses --      1.1491                 4.2273                 1.9011
 Frc consts  --      0.0146                 0.0624                 0.0291
 IR Inten    --      1.0560                 1.0109                 0.0303

                     16                     17                     18
                      A                      A                      A
 Frequencies --    164.8333               189.3139               205.4725
 Red. masses --      2.1215                 6.0782                 3.8189
 Frc consts  --      0.0340                 0.1283                 0.0950
 IR Inten    --      0.4016                 4.1308                 0.3976

                     19                     20                     21
                      A                      A                      A
 Frequencies --    243.5844               253.1257               263.2029
 Red. masses --      1.1188                 3.8587                 4.1976
 Frc consts  --      0.0391                 0.1457                 0.1713
 IR Inten    --      0.0027                 0.5438                22.3802

                     22                     23                     24
                      A                      A                      A
 Frequencies --    312.8613               333.4432               342.9278
 Red. masses --      4.2567                 3.5180                 3.6416
 Frc consts  --      0.2455                 0.2305                 0.2523
 IR Inten    --      2.8253                 1.4505                 5.9104

                     25                     26                     27
                      A                      A                      A
 Frequencies --    350.5908               376.6260               390.1051
 Red. masses --      2.8296                 5.6933                 4.6363
 Frc consts  --      0.2049                 0.4758                 0.4157
 IR Inten    --      0.1177                15.2750                 0.1669

                     28                     29                     30
                      A                      A                      A
 Frequencies --    421.2490               432.0103               450.3403
 Red. masses --      4.4232                 5.9779                 3.9879
 Frc consts  --      0.4625                 0.6573                 0.4765
 IR Inten    --      1.4900                 6.5304                 2.1593

                     31                     32                     33
                      A                      A                      A
 Frequencies --    466.8209               494.3852               495.5411
 Red. masses --      3.1782                 5.3832                 3.1444
 Frc consts  --      0.4081                 0.7752                 0.4549
 IR Inten    --      3.0842                 1.4471                 0.0444

                     34                     35                     36
                      A                      A                      A
 Frequencies --    527.9782               561.0730               629.2651
 Red. masses --      5.9335                 4.6522                 5.0204
 Frc consts  --      0.9745                 0.8629                 1.1713
 IR Inten    --      0.7434                13.7545                62.3496

                     37                     38                     39
                      A                      A                      A
 Frequencies --    665.9431               668.0826               688.1810
 Red. masses --      3.4095                 5.4590                 3.4790
 Frc consts  --      0.8909                 1.4356                 0.9707
 IR Inten    --      4.4883                 5.1517                44.4149

                     40                     41                     42
                      A                      A                      A
 Frequencies --    714.4189               725.9922               728.6395
 Red. masses --      3.1500                 1.0961                 1.0666
 Frc consts  --      0.9473                 0.3404                 0.3336
 IR Inten    --     68.5680                 8.1657                 8.0021

                     43                     44                     45
                      A                      A                      A
 Frequencies --    734.8660               754.3907               775.6290
 Red. masses --      1.1188                 1.1910                 1.9300
 Frc consts  --      0.3560                 0.3993                 0.6841
 IR Inten    --      0.9078                 0.9491                51.6204

                     46                     47                     48
                      A                      A                      A
 Frequencies --    790.0412               796.7617               827.6802
 Red. masses --      1.3289                 4.1074                 1.9461
 Frc consts  --      0.4887                 1.5363                 0.7855
 IR Inten    --      1.0259                 0.7816                22.1824

                     49                     50                     51
                      A                      A                      A
 Frequencies --    855.4843               860.8614               892.1444
 Red. masses --      1.6532                 1.6058                 2.0863
 Frc consts  --      0.7128                 0.7011                 0.9783
 IR Inten    --      7.5325                 0.0361                 3.0325

                     52                     53                     54
                      A                      A                      A
 Frequencies --    894.0198               926.0081               974.1365
 Red. masses --      1.9555                 1.6411                 4.0389
 Frc consts  --      0.9209                 0.8291                 2.2582
 IR Inten    --      3.6771                 6.0604                26.8042

                     55                     56                     57
                      A                      A                      A
 Frequencies --    975.5453               981.9254               984.7482
 Red. masses --      1.3378                 1.4251                 1.2436
 Frc consts  --      0.7501                 0.8096                 0.7105
 IR Inten    --      5.1076                 1.2604                 1.3541

                     58                     59                     60
                      A                      A                      A
 Frequencies --    987.6282              1002.3542              1011.6899
 Red. masses --      3.8650                 3.4578                 3.5764
 Frc consts  --      2.2212                 2.0469                 2.1567
 IR Inten    --     38.7863                 0.1995                 3.2286

                     61                     62                     63
                      A                      A                      A
 Frequencies --   1023.5603              1032.1234              1037.1536
 Red. masses --      2.0737                 1.7809                 2.0164
 Frc consts  --      1.2800                 1.1177                 1.2779
 IR Inten    --     79.9257                57.7247                11.1424

                     64                     65                     66
                      A                      A                      A
 Frequencies --   1041.1898              1053.4495              1055.4446
 Red. masses --      1.5743                 1.5396                 2.3546
 Frc consts  --      1.0055                 1.0067                 1.5454
 IR Inten    --     15.7946               113.4633                17.2608

                     67                     68                     69
                      A                      A                      A
 Frequencies --   1063.3401              1064.4191              1078.7887
 Red. masses --      2.3099                 2.1968                 2.9045
 Frc consts  --      1.5388                 1.4664                 1.9916
 IR Inten    --      2.7331                 0.3072                 5.9551

                     70                     71                     72
                      A                      A                      A
 Frequencies --   1099.2805              1119.7804              1128.1881
 Red. masses --      2.2758                 1.7761                 1.7262
 Frc consts  --      1.6203                 1.3121                 1.2945
 IR Inten    --     71.9296               192.2082               142.9381

                     73                     74                     75
                      A                      A                      A
 Frequencies --   1136.7629              1168.8555              1186.3849
 Red. masses --      2.7728                 2.0927                 1.7041
 Frc consts  --      2.1111                 1.6845                 1.4131
 IR Inten    --      5.6599                 4.8387               224.0868

                     76                     77                     78
                      A                      A                      A
 Frequencies --   1202.4257              1225.4629              1227.6665
 Red. masses --      1.8262                 1.2748                 2.3318
 Frc consts  --      1.5556                 1.1280                 2.0706
 IR Inten    --     15.8177                 6.5452               144.6679

                     79                     80                     81
                      A                      A                      A
 Frequencies --   1241.3568              1262.1676              1270.3910
 Red. masses --      1.7882                 1.3065                 1.7738
 Frc consts  --      1.6235                 1.2263                 1.6867
 IR Inten    --     65.9667                 1.3787                29.7778

                     82                     83                     84
                      A                      A                      A
 Frequencies --   1278.0671              1297.6397              1303.8347
 Red. masses --      1.6221                 1.3294                 1.2923
 Frc consts  --      1.5611                 1.3189                 1.2944
 IR Inten    --      1.5779                28.5753                 7.3163

                     85                     86                     87
                      A                      A                      A
 Frequencies --   1320.9436              1321.9258              1324.1993
 Red. masses --      1.2179                 1.0517                 3.1709
 Frc consts  --      1.2521                 1.0828                 3.2760
 IR Inten    --     49.3988                 5.2104               243.6947

                     88                     89                     90
                      A                      A                      A
 Frequencies --   1326.6705              1330.0764              1332.2108
 Red. masses --      1.2237                 1.3981                 1.0853
 Frc consts  --      1.2689                 1.4573                 1.1348
 IR Inten    --     43.8704               127.3266                 1.4964

                     91                     92                     93
                      A                      A                      A
 Frequencies --   1333.0180              1343.5971              1358.3933
 Red. masses --      1.2077                 2.4991                 1.5314
 Frc consts  --      1.2644                 2.6581                 1.6649
 IR Inten    --     24.0600              1138.7426               166.6031

                     94                     95                     96
                      A                      A                      A
 Frequencies --   1370.7232              1376.9947              1385.8331
 Red. masses --      1.8520                 2.6177                 1.5729
 Frc consts  --      2.0502                 2.9243                 1.7798
 IR Inten    --     63.8443               187.0447                 0.3737

                     97                     98                     99
                      A                      A                      A
 Frequencies --   1388.9535              1393.5344              1395.0793
 Red. masses --      1.7252                 1.6117                 1.6184
 Frc consts  --      1.9610                 1.8440                 1.8558
 IR Inten    --    293.7895                 2.5565                 0.5566

                    100                    101                    102
                      A                      A                      A
 Frequencies --   1403.4383              1429.6058              1433.8107
 Red. masses --      1.2611                 2.7623                 2.6973
 Frc consts  --      1.4635                 3.3263                 3.2672
 IR Inten    --      2.3910                18.3537                16.3740

                    103                    104                    105
                      A                      A                      A
 Frequencies --   1460.9150              1470.0002              1470.5180
 Red. masses --      1.1812                 1.0751                 1.0716
 Frc consts  --      1.4854                 1.3687                 1.3653
 IR Inten    --     14.1146                 0.9342                 0.5953

                    106                    107                    108
                      A                      A                      A
 Frequencies --   1472.0273              1474.7449              1479.0084
 Red. masses --      1.0827                 1.0858                 1.0832
 Frc consts  --      1.3822                 1.3913                 1.3960
 IR Inten    --      2.1286                 3.7633                 1.5431

                    109                    110                    111
                      A                      A                      A
 Frequencies --   1484.5979              1487.8474              1490.4731
 Red. masses --      1.0872                 1.0402                 1.1569
 Frc consts  --      1.4118                 1.3567                 1.5142
 IR Inten    --      1.4268                10.4313                 0.8994

                    112                    113                    114
                      A                      A                      A
 Frequencies --   1493.0509              1498.4168              1503.8075
 Red. masses --      1.2174                 1.1128                 1.1513
 Frc consts  --      1.5990                 1.4721                 1.5340
 IR Inten    --      7.5598                 3.0262                 2.8325

                    115                    116                    117
                      A                      A                      A
 Frequencies --   1505.0301              1507.7702              1523.8046
 Red. masses --      1.9492                 1.1002                 4.3688
 Frc consts  --      2.6013                 1.4736                 5.9768
 IR Inten    --     12.6949                28.3313               164.8912

                    118                    119                    120
                      A                      A                      A
 Frequencies --   1578.5705              1603.6881              2965.0537
 Red. masses --      7.1311                 5.3378                 1.0597
 Frc consts  --     10.4696                 8.0882                 5.4893
 IR Inten    --      6.4114                 2.2502               198.1953

                    121                    122                    123
                      A                      A                      A
 Frequencies --   2983.5339              2986.4773              2987.7738
 Red. masses --      1.0576                 1.0571                 1.0580
 Frc consts  --      5.5464                 5.5550                 5.5645
 IR Inten    --     14.5949                 0.3260                16.4147

                    124                    125                    126
                      A                      A                      A
 Frequencies --   2989.7731              2992.0516              2996.7186
 Red. masses --      1.0575                 1.0590                 1.0634
 Frc consts  --      5.5691                 5.5859                 5.6266
 IR Inten    --      0.4215                 4.4002                45.8750

                    127                    128                    129
                      A                      A                      A
 Frequencies --   2997.9372              3001.5254              3002.6405
 Red. masses --      1.0680                 1.0895                 1.0596
 Frc consts  --      5.6557                 5.7832                 5.6286
 IR Inten    --    175.7061                12.9787               218.6002

                    130                    131                    132
                      A                      A                      A
 Frequencies --   3003.6447              3007.6111              3009.8096
 Red. masses --      1.0958                 1.0870                 1.0777
 Frc consts  --      5.8248                 5.7932                 5.7523
 IR Inten    --      5.6940                63.6084               151.0160

                    133                    134                    135
                      A                      A                      A
 Frequencies --   3012.8566              3016.6659              3026.1125
 Red. masses --      1.0355                 1.1005                 1.1025
 Frc consts  --      5.5380                 5.9007                 5.9486
 IR Inten    --     57.0198                18.4813                14.5590

                    136                    137                    138
                      A                      A                      A
 Frequencies --   3033.6428              3036.3267              3038.2183
 Red. masses --      1.1004                 1.0771                 1.1027
 Frc consts  --      5.9669                 5.8504                 5.9971
 IR Inten    --     14.9432               116.1945                10.7356

                    139                    140                    141
                      A                      A                      A
 Frequencies --   3043.5507              3055.4522              3071.5022
 Red. masses --      1.1054                 1.1031                 1.1026
 Frc consts  --      6.0329                 6.0677                 6.1288
 IR Inten    --    378.0375               180.2063               118.4603

                    142                    143                    144
                      A                      A                      A
 Frequencies --   3076.3218              3095.9892              3133.9504
 Red. masses --      1.1011                 1.0964                 1.0844
 Frc consts  --      6.1397                 6.1920                 6.2754
 IR Inten    --     73.3634                24.8222                18.7614

                    145                    146                    147
                      A                      A                      A
 Frequencies --   3149.9491              3168.7083              3172.7229
 Red. masses --      1.0893                 1.0906                 1.0934
 Frc consts  --      6.3683                 6.4519                 6.4847
 IR Inten    --     40.0671                45.4423                71.3342

 - Thermochemistry -
 -------------------
 Temperature   298.150 Kelvin.  Pressure   1.00000 Atm.
 Atom     1 has atomic number  6 and mass  12.00000

 Molecular mass:   312.20893 amu.
 Principal axes and moments of inertia in atomic units:
                           1         2         3
     Eigenvalues --  2683.48663********************
           X            0.86427   0.28147   0.41690
           Y           -0.40473  -0.10305   0.90861
           Z           -0.29871   0.95402  -0.02486
 This molecule is an asymmetric top.
 Rotational symmetry number  1.
 Warning -- assumption of classical behavior for rotation
           may cause significant error
 Rotational temperatures (Kelvin)      0.03228     0.00277     0.00265
 Rotational constants (GHZ):           0.67254     0.05782     0.05531
 Zero-point vibrational energy    1149793.4 (Joules/Mol)
                                  274.80722 (Kcal/Mol)
 Warning -- explicit consideration of  35 degrees of freedom as
           vibrations may cause significant error
 Vibrational temperatures:     22.96    36.05    40.33    58.19    74.50
          (Kelvin)            110.78   115.32   142.61   163.92   177.52
                              180.01   194.14   210.95   227.80   231.85
                              237.16   272.38   295.63   350.46   364.19
                              378.69   450.14   479.75   493.40   504.42
                              541.88   561.27   606.08   621.57   647.94
                              671.65   711.31   712.97   759.64   807.26
                              905.37   958.14   961.22   990.14  1027.89
                             1044.54  1048.35  1057.31  1085.40  1115.96
                             1136.69  1146.36  1190.85  1230.85  1238.59
                             1283.60  1286.30  1332.32  1401.57  1403.59
                             1412.77  1416.83  1420.98  1442.16  1455.60
                             1472.67  1485.00  1492.23  1498.04  1515.68
                             1518.55  1529.91  1531.46  1552.14  1581.62
                             1611.11  1623.21  1635.55  1681.72  1706.94
                             1730.02  1763.17  1766.34  1786.04  1815.98
                             1827.81  1838.85  1867.01  1875.93  1900.54
                             1901.96  1905.23  1908.78  1913.68  1916.75
                             1917.92  1933.14  1954.43  1972.16  1981.19
                             1993.90  1998.39  2004.99  2007.21  2019.23
                             2056.88  2062.93  2101.93  2115.00  2115.75
                             2117.92  2121.83  2127.96  2136.01  2140.68
                             2144.46  2148.17  2155.89  2163.64  2165.40
                             2169.35  2192.41  2271.21  2307.35  4266.05
                             4292.64  4296.87  4298.74  4301.62  4304.89
                             4311.61  4313.36  4318.53  4320.13  4321.57
                             4327.28  4330.44  4334.83  4340.31  4353.90
                             4364.74  4368.60  4371.32  4378.99  4396.11
                             4419.21  4426.14  4454.44  4509.06  4532.07
                             4559.06  4564.84

 Zero-point correction=                           0.437933 (Hartree/Particle)
 Thermal correction to Energy=                    0.462019
 Thermal correction to Enthalpy=                  0.462963
 Thermal correction to Gibbs Free Energy=         0.381486
 Sum of electronic and zero-point Energies=           -967.636692
 Sum of electronic and thermal Energies=              -967.612606
 Sum of electronic and thermal Enthalpies=            -967.611662
 Sum of electronic and thermal Free Energies=         -967.693139

                     E (Thermal)             CV                S
                      KCal/Mol        Cal/Mol-Kelvin    Cal/Mol-Kelvin
 Total                  289.921             90.600            171.483
 Electronic               0.000              0.000              0.000
 Translational            0.889              2.981             43.112
 Rotational               0.889              2.981             36.256
 Vibrational            288.144             84.638             92.116
 Vibration     1          0.593              1.986              7.082
 Vibration     2          0.593              1.985              6.187
 Vibration     3          0.593              1.984              5.964
 Vibration     4          0.594              1.981              5.237
 Vibration     5          0.596              1.977              4.748
 Vibration     6          0.599              1.964              3.966
 Vibration     7          0.600              1.963              3.887
 Vibration     8          0.604              1.950              3.472
 Vibration     9          0.607              1.938              3.201
 Vibration    10          0.610              1.930              3.047
 Vibration    11          0.610              1.928              3.020
 Vibration    12          0.613              1.918              2.874
 Vibration    13          0.617              1.906              2.716
 Vibration    14          0.621              1.893              2.570
 Vibration    15          0.622              1.890              2.536
 Vibration    16          0.623              1.886              2.494
 Vibration    17          0.633              1.855              2.235
 Vibration    18          0.640              1.832              2.084
 Vibration    19          0.659              1.773              1.777
 Vibration    20          0.664              1.758              1.709
 Vibration    21          0.670              1.740              1.640
 Vibration    22          0.701              1.649              1.347
 Vibration    23          0.715              1.609              1.243
 Vibration    24          0.722              1.590              1.198
 Vibration    25          0.727              1.574              1.164
 Vibration    26          0.747              1.520              1.053
 Vibration    27          0.758              1.491              1.000
 Vibration    28          0.784              1.424              0.888
 Vibration    29          0.793              1.400              0.852
 Vibration    30          0.809              1.360              0.795
 Vibration    31          0.824              1.324              0.747
 Vibration    32          0.850              1.262              0.672
 Vibration    33          0.851              1.260              0.669
 Vibration    34          0.883              1.188              0.592
 Vibration    35          0.917              1.116              0.522

 Optimization completed.
    -- Stationary point found.
 Normal termination of Gaussian 16 at Sun Feb 11 07:38:17 2024.
