 Q-Chem 5.4, Q-Chem, Inc., Pleasanton, CA (2021)
 Q-Chem 5.4.0 for Intel X86 EM64T Linux

User input:
--------------------------------------------------------------
$molecule
0 1
N                 -2.9519990000     -1.7958310000     -0.4675520000
C                 -2.5472220000     -0.5283080000     -0.2007530000
C                 -3.5120800000      0.4927590000     -0.0341690000
C                 -3.1348960000      1.7911090000      0.2378480000
C                 -1.7841600000      2.1365330000      0.3570760000
C                 -0.8121980000      1.1598720000      0.1994980000
C                  0.6178590000      1.5946570000      0.3391100000
O                  0.8732130000      2.7604650000      0.5793310000
C                  1.6856550000      0.5603600000      0.1744340000
C                  3.0634380000      0.8407280000      0.2824030000
Cl                 3.7069270000      2.4323830000      0.6228800000
C                  4.0150260000     -0.1651340000      0.1188640000
C                  3.6196770000     -1.4685620000     -0.1549830000
C                  2.2702780000     -1.7732880000     -0.2667290000
C                  1.3105680000     -0.7743850000     -0.1047800000
C                 -0.1242070000     -1.1908260000     -0.2415730000
O                 -0.3764700000     -2.3757110000     -0.4864920000
C                 -1.1661830000     -0.1829340000     -0.0804550000
H                 -3.9317890000     -2.0067560000     -0.5457740000
H                 -2.2492760000     -2.5146940000     -0.5839270000
H                 -4.5625700000      0.2358980000     -0.1246100000
H                 -3.8972810000      2.5524240000      0.3604560000
H                 -1.4770100000      3.1511970000      0.5700370000
H                  5.0634500000      0.0883790000      0.2090310000
H                  4.3689990000     -2.2416570000     -0.2800260000
H                  1.9322520000     -2.7786780000     -0.4791450000
$end
$rem
MAX_SCF_CYCLES=200
BASIS  =  6-311++G(d,p)
GUI  =  2
JOB_TYPE  =  SP
METHOD  =  B3LYP
SOLVENT_METHOD = PCM
$end
$pcm
theory = CPCM
$end
$solvent
dielectric 37.219
opticaldielectric 1.43
$end

--------------------------------------------------------------

             Standard Nuclear Orientation (Angstroms)
    I     Atom           X                Y                Z
 ----------------------------------------------------------------
    1      N      -2.9519990000    -1.7958310000    -0.4675520000
    2      C      -2.5472220000    -0.5283080000    -0.2007530000
    3      C      -3.5120800000     0.4927590000    -0.0341690000
    4      C      -3.1348960000     1.7911090000     0.2378480000
    5      C      -1.7841600000     2.1365330000     0.3570760000
    6      C      -0.8121980000     1.1598720000     0.1994980000
    7      C       0.6178590000     1.5946570000     0.3391100000
    8      O       0.8732130000     2.7604650000     0.5793310000
    9      C       1.6856550000     0.5603600000     0.1744340000
   10      C       3.0634380000     0.8407280000     0.2824030000
   11      Cl      3.7069270000     2.4323830000     0.6228800000
   12      C       4.0150260000    -0.1651340000     0.1188640000
   13      C       3.6196770000    -1.4685620000    -0.1549830000
   14      C       2.2702780000    -1.7732880000    -0.2667290000
   15      C       1.3105680000    -0.7743850000    -0.1047800000
   16      C      -0.1242070000    -1.1908260000    -0.2415730000
   17      O      -0.3764700000    -2.3757110000    -0.4864920000
   18      C      -1.1661830000    -0.1829340000    -0.0804550000
   19      H      -3.9317890000    -2.0067560000    -0.5457740000
   20      H      -2.2492760000    -2.5146940000    -0.5839270000
   21      H      -4.5625700000     0.2358980000    -0.1246100000
   22      H      -3.8972810000     2.5524240000     0.3604560000
   23      H      -1.4770100000     3.1511970000     0.5700370000
   24      H       5.0634500000     0.0883790000     0.2090310000
   25      H       4.3689990000    -2.2416570000    -0.2800260000
   26      H       1.9322520000    -2.7786780000    -0.4791450000
 ----------------------------------------------------------------

    8   -1203.9650973852      9.50e-06  Convergence criterion met
 Total energy in the final basis set =    -1203.9650973852

                    Orbital Energies (a.u.)
 --------------------------------------------------------------

 Alpha MOs
 -- Occupied --
******** -19.1275 -19.1251 -14.3326 -10.2849 -10.2788 -10.2626 -10.2470
-10.2206 -10.2135 -10.2052 -10.2032 -10.2015 -10.1996 -10.1960 -10.1950
-10.1895 -10.1843  -9.4791  -7.2437  -7.2343  -7.2330  -1.0671  -1.0595
 -0.9430  -0.9134  -0.8724  -0.8568  -0.8116  -0.7730  -0.7632  -0.7541
 -0.6877  -0.6672  -0.6523  -0.6113  -0.5839  -0.5764  -0.5595  -0.5259
 -0.5083  -0.5069  -0.4900  -0.4782  -0.4711  -0.4585  -0.4582  -0.4539
 -0.4453  -0.4317  -0.4236  -0.4088  -0.3976  -0.3882  -0.3866  -0.3822
 -0.3728  -0.3492  -0.3338  -0.3331  -0.2916  -0.2840  -0.2773  -0.2681
 -0.2675  -0.2260

          Ground-State Mulliken Net Atomic Charges

     Atom                 Charge (a.u.)
  ----------------------------------------
      1 N                    -0.460728
      2 C                     0.297982
      3 C                    -0.212893
      4 C                    -0.499335
      5 C                     0.203253
      6 C                     0.223073
      7 C                    -1.571090
      8 O                    -0.188093
      9 C                    -0.199134
     10 C                     1.045326
     11 Cl                    0.395003
     12 C                     0.015858
     13 C                    -0.658003
     14 C                     0.625245
     15 C                     0.307405
     16 C                    -0.994662
     17 O                    -0.311856
     18 C                    -0.005446
     19 H                     0.334668
     20 H                     0.347218
     21 H                     0.209626
     22 H                     0.227177
     23 H                     0.186999
     24 H                     0.243552
     25 H                     0.226733
     26 H                     0.212121
  ----------------------------------------
  Sum of atomic charges =     0.000000

                    Cartesian Multipole Moments
 -----------------------------------------------------------------
    Charge (ESU x 10^10)
                 0.0000
    Dipole Moment (Debye)
         X      -3.3467      Y      -3.8483      Z      -0.8848
       Tot       5.1761
    Quadrupole Moments (Debye-Ang)
        XX     -75.3106     XY     -10.3252     YY    -118.8277
        XZ      -0.5974     YZ      -1.3988     ZZ    -114.0280

 Total job time:  163.00s(wall), 341.82s(cpu)
        *  Thank you very much for using Q-Chem.  Have a nice day.  *
