 Gaussian 16, Revision A.03,
 Gaussian 16:  ES64L-G16RevA.03 25-Dec-2016

 ----------------------------------------------------------------------
 #P UB3LYP/6-311++G(d,p) nosym opt freq SCRF=(PCM,Solvent=n,n-DiMethylF
 ormamide)
 ----------------------------------------------------------------------

 -------
 Reduced
 -------
 Symbolic Z-matrix:
 Charge = -2 Multiplicity = 1

 SCF Done:  E(UB3LYP) =  -650.994877398     A.U. after   22 cycles
 SCF Done:  E(UB3LYP) =  -650.999357250     A.U. after   16 cycles
 SCF Done:  E(UB3LYP) =  -651.000143391     A.U. after   15 cycles
 SCF Done:  E(UB3LYP) =  -651.000183635     A.U. after   14 cycles
 SCF Done:  E(UB3LYP) =  -651.000196927     A.U. after   14 cycles
 SCF Done:  E(UB3LYP) =  -651.000198536     A.U. after   13 cycles
 SCF Done:  E(UB3LYP) =  -651.000198827     A.U. after   12 cycles
 SCF Done:  E(UB3LYP) =  -651.000199343     A.U. after   13 cycles
 SCF Done:  E(UB3LYP) =  -651.000199984     A.U. after   13 cycles
 SCF Done:  E(UB3LYP) =  -651.000200899     A.U. after   13 cycles
 SCF Done:  E(UB3LYP) =  -651.000212500     A.U. after   15 cycles
 SCF Done:  E(UB3LYP) =  -651.000184499     A.U. after   15 cycles
 SCF Done:  E(UB3LYP) =  -650.998161155     A.U. after   14 cycles
 SCF Done:  E(UB3LYP) =  -650.999991316     A.U. after   16 cycles
 SCF Done:  E(UB3LYP) =  -651.000213057     A.U. after   11 cycles
 SCF Done:  E(UB3LYP) =  -651.000214172     A.U. after   13 cycles
 SCF Done:  E(UB3LYP) =  -651.000214351     A.U. after   14 cycles
 SCF Done:  E(UB3LYP) =  -651.000214681     A.U. after   12 cycles
 SCF Done:  E(UB3LYP) =  -651.000215384     A.U. after   12 cycles
 Optimization completed.
    -- Stationary point found.
 Normal termination of Gaussian 16 at Sun Feb 11 17:56:49 2024.

 ----------------------------------------------------------------------
 #P Geom=AllCheck Guess=TCheck SCRF=Check GenChk UB3LYP/6-311++G(d,p) F
 req
 ----------------------------------------------------------------------

 Structure from the checkpoint file:  "335-an.chk"
 -------
 Reduced
 -------
 Charge = -2 Multiplicity = 1

                          Input orientation:
 ---------------------------------------------------------------------
 Center     Atomic      Atomic             Coordinates (Angstroms)
 Number     Number       Type             X           Y           Z
 ---------------------------------------------------------------------
      1          8           0        0.128313    0.496485    2.712584
      2          6           0        0.066644    0.296721    1.402578
      3          6           0       -1.180725    0.162641    0.721700
      4          6           0       -2.455032    0.209998    1.380797
      5          6           0       -3.656086    0.061618    0.675696
      6          6           0       -3.669447   -0.146812   -0.700824
      7          6           0       -2.417295   -0.206364   -1.383904
      8          6           0       -1.238467   -0.050000   -0.690055
      9          8           0       -0.066507   -0.081078   -1.439253
     10          6           0        1.169157   -0.070935   -0.800193
     11          6           0        2.277158   -0.246493   -1.598421
     12          6           0        3.587353   -0.209099   -1.032579
     13          6           0        3.703036   -0.000810    0.339082
     14          6           0        2.573752    0.166614    1.150329
     15          6           0        1.244062    0.142009    0.610609
     16          1           0       -2.461319    0.371454    2.452208
     17          1           0       -4.596750    0.110981    1.219865
     18          1           0       -4.597771   -0.261162   -1.248849
     19          1           0       -2.373790   -0.362957   -2.457460
     20          1           0        2.133503   -0.401913   -2.663339
     21          1           0        4.459867   -0.339218   -1.662608
     22          1           0        4.689779    0.031410    0.795925
     23          1           0        2.680563    0.326911    2.216109
 ---------------------------------------------------------------------

 SCF Done:  E(UB3LYP) =  -651.000215384     A.U. after    1 cycles

 Alpha  occ. eigenvalues --  -19.13839 -19.00426 -10.20255 -10.20253 -10.14726
 Alpha  occ. eigenvalues --  -10.14134 -10.14133 -10.13760 -10.13757 -10.13722
 Alpha  occ. eigenvalues --  -10.13721 -10.13062 -10.13061 -10.12390 -10.12383
 Alpha  occ. eigenvalues --   -1.05256  -0.90276  -0.82142  -0.80671  -0.73306
 Alpha  occ. eigenvalues --   -0.73142  -0.70391  -0.69318  -0.61716  -0.60122
 Alpha  occ. eigenvalues --   -0.56079  -0.55153  -0.51315  -0.51285  -0.45994
 Alpha  occ. eigenvalues --   -0.45067  -0.43252  -0.42172  -0.41960  -0.39962
 Alpha  occ. eigenvalues --   -0.39792  -0.37766  -0.35708  -0.35049  -0.34430
 Alpha  occ. eigenvalues --   -0.33656  -0.32840  -0.32288  -0.31279  -0.29176
 Alpha  occ. eigenvalues --   -0.28901  -0.23292  -0.21624  -0.20897  -0.19419
 Alpha  occ. eigenvalues --   -0.18615  -0.07393
 Alpha virt. eigenvalues --    0.00084   0.00750   0.00758   0.01522   0.01612
 Alpha virt. eigenvalues --    0.02423   0.02682   0.02991   0.04582   0.04651
 Alpha virt. eigenvalues --    0.04898   0.05032   0.06711   0.07055   0.07438

  Beta  occ. eigenvalues --  -19.13839 -19.00426 -10.20255 -10.20253 -10.14726
  Beta  occ. eigenvalues --  -10.14134 -10.14133 -10.13760 -10.13757 -10.13722
  Beta  occ. eigenvalues --  -10.13721 -10.13062 -10.13061 -10.12390 -10.12383
  Beta  occ. eigenvalues --   -1.05256  -0.90276  -0.82142  -0.80671  -0.73306
  Beta  occ. eigenvalues --   -0.73142  -0.70391  -0.69318  -0.61716  -0.60122
  Beta  occ. eigenvalues --   -0.56079  -0.55153  -0.51315  -0.51285  -0.45994
  Beta  occ. eigenvalues --   -0.45067  -0.43252  -0.42172  -0.41960  -0.39962
  Beta  occ. eigenvalues --   -0.39792  -0.37766  -0.35708  -0.35049  -0.34430
  Beta  occ. eigenvalues --   -0.33656  -0.32840  -0.32288  -0.31279  -0.29176
  Beta  occ. eigenvalues --   -0.28901  -0.23292  -0.21624  -0.20897  -0.19419
  Beta  occ. eigenvalues --   -0.18615  -0.07393
  Beta virt. eigenvalues --    0.00084   0.00750   0.00758   0.01522   0.01612
  Beta virt. eigenvalues --    0.02423   0.02682   0.02991   0.04582   0.04651
  Beta virt. eigenvalues --    0.04898   0.05032   0.06711   0.07055   0.07438

 Mulliken charges and spin densities:
               1          2
     1  O   -0.774140  -0.000000
     2  C   -0.317097   0.000000
     3  C    1.018493  -0.000000
     4  C   -0.049714  -0.000000
     5  C   -0.292178   0.000000
     6  C   -0.458448  -0.000000
     7  C   -0.400866  -0.000000
     8  C   -0.752621   0.000000
     9  O   -0.184252   0.000000
    10  C   -0.753815  -0.000000
    11  C   -0.400293   0.000000
    12  C   -0.458789   0.000000
    13  C   -0.292348  -0.000000
    14  C   -0.048601   0.000000
    15  C    1.017378  -0.000000
    16  H    0.145502   0.000000
    17  H    0.138134  -0.000000
    18  H    0.139398   0.000000
    19  H    0.150947  -0.000000
    20  H    0.151103   0.000000
    21  H    0.139401   0.000000
    22  H    0.138253  -0.000000
    23  H    0.144555   0.000000
 Sum of Mulliken charges =  -2.00000   0.00000

 Dipole moment (field-independent basis, Debye):
    X=             -0.4623    Y=             -1.8703    Z=             -9.7222  Tot=              9.9112
 Quadrupole moment (field-independent basis, Debye-Ang):
   XX=           -134.3832   YY=           -104.1923   ZZ=           -131.7152
   XY=              0.0190   XZ=              0.0813   YZ=             -5.0559

  Exact polarizability: 824.705  -4.492 176.166 -23.315  22.183 312.972
 Approx polarizability: 913.991  -4.917 181.445 -25.293  29.654 357.835

                      1                      2                      3
                      A                      A                      A
 Frequencies --     25.3552               106.3514               154.2269
 Red. masses --      7.2773                 3.9058                 6.0167
 Frc consts  --      0.0028                 0.0260                 0.0843
 IR Inten    --      1.2913                 0.0477                 6.3302

                      4                      5                      6
                      A                      A                      A
 Frequencies --    220.0423               239.8676               251.8577
 Red. masses --      5.3342                 5.3765                 4.8581
 Frc consts  --      0.1522                 0.1823                 0.1816
 IR Inten    --      5.9877                 9.3444                 0.7045

                      7                      8                      9
                      A                      A                      A
 Frequencies --    289.9851               316.7122               388.6756
 Red. masses --      8.2726                 4.8140                 6.8435
 Frc consts  --      0.4099                 0.2845                 0.6091
 IR Inten    --      4.9263                 6.3985                 1.0528

                     10                     11                     12
                      A                      A                      A
 Frequencies --    434.4067               446.1390               502.5284
 Red. masses --      3.4080                 6.1756                10.5657
 Frc consts  --      0.3789                 0.7242                 1.5721
 IR Inten    --      2.1420                19.0842                 4.9703

                     13                     14                     15
                      A                      A                      A
 Frequencies --    525.0816               528.1570               576.5422
 Red. masses --      5.3305                 4.5885                 3.7313
 Frc consts  --      0.8659                 0.7541                 0.7308
 IR Inten    --      1.1661                 6.0653               123.5885

                     16                     17                     18
                      A                      A                      A
 Frequencies --    594.6855               614.1953               644.3965
 Red. masses --      8.0657                 7.0253                 1.4435
 Frc consts  --      1.6806                 1.5614                 0.3532
 IR Inten    --      4.0010                 4.3694                 5.3972

                     19                     20                     21
                      A                      A                      A
 Frequencies --    650.1669               652.3293               681.1759
 Red. masses --      2.3492                 1.9836                 2.6792
 Frc consts  --      0.5851                 0.4973                 0.7324
 IR Inten    --    110.2100               103.5075                 0.6231

                     22                     23                     24
                      A                      A                      A
 Frequencies --    682.4630               699.7551               736.4625
 Red. masses --      6.0872                 2.7717                 1.5727
 Frc consts  --      1.6704                 0.7996                 0.5026
 IR Inten    --      7.3592                44.4483                24.9518

                     25                     26                     27
                      A                      A                      A
 Frequencies --    742.7610               810.6353               812.0706
 Red. masses --      1.6007                 1.3161                 1.3923
 Frc consts  --      0.5203                 0.5095                 0.5410
 IR Inten    --     72.5019                 8.3261                62.5858

                     28                     29                     30
                      A                      A                      A
 Frequencies --    822.6861               828.7073               917.9428
 Red. masses --      6.0820                 6.0582                 1.2267
 Frc consts  --      2.4253                 2.4513                 0.6090
 IR Inten    --   1749.9339                63.3299                 0.5238

                     31                     32                     33
                      A                      A                      A
 Frequencies --    919.2272               919.7656              1018.4443
 Red. masses --      1.2630                 5.4131                 2.3660
 Frc consts  --      0.6288                 2.6981                 1.4459
 IR Inten    --      0.4613                 0.1576                88.2230

                     34                     35                     36
                      A                      A                      A
 Frequencies --   1022.1540              1070.9526              1080.4862
 Red. masses --      1.8389                 2.0264                 1.8714
 Frc consts  --      1.1320                 1.3693                 1.2872
 IR Inten    --    536.5043                30.1500               188.2411

                     37                     38                     39
                      A                      A                      A
 Frequencies --   1135.8452              1141.7064              1147.4244
 Red. masses --      1.1668                 1.6251                 4.4387
 Frc consts  --      0.8869                 1.2481                 3.4431
 IR Inten    --     59.4470                45.3947                 6.7271

                     40                     41                     42
                      A                      A                      A
 Frequencies --   1151.0981              1177.4278              1218.7764
 Red. masses --      1.5849                 2.7035                 3.2707
 Frc consts  --      1.2373                 2.2082                 2.8625
 IR Inten    --      9.6193              2032.5861                40.0109

                     43                     44                     45
                      A                      A                      A
 Frequencies --   1262.2960              1320.1189              1348.8305
 Red. masses --      1.7270                 4.4092                 2.7108
 Frc consts  --      1.6213                 4.5273                 2.9058
 IR Inten    --      8.7312              4041.8442               919.3683

                     46                     47                     48
                      A                      A                      A
 Frequencies --   1361.8182              1376.6865              1427.7637
 Red. masses --      5.6650                 3.3384                 2.6963
 Frc consts  --      6.1900                 3.7278                 3.2384
 IR Inten    --    958.6033                44.0511               908.8579

                     49                     50                     51
                      A                      A                      A
 Frequencies --   1450.8575              1464.7981              1492.0963
 Red. masses --      3.4680                 2.5562                 3.5683
 Frc consts  --      4.3011                 3.2314                 4.6806
 IR Inten    --     45.1007               182.8729               986.4113

                     52                     53                     54
                      A                      A                      A
 Frequencies --   1505.1919              1542.1097              1548.0207
 Red. masses --      4.1359                 5.3161                 4.6866
 Frc consts  --      5.5209                 7.4486                 6.6170
 IR Inten    --    123.2732                 5.5057                 0.4228

                     55                     56                     57
                      A                      A                      A
 Frequencies --   1621.0675              3121.9737              3122.6205
 Red. masses --      7.3392                 1.0860                 1.0864
 Frc consts  --     11.3632                 6.2367                 6.2413
 IR Inten    --      4.7290               242.0811                12.7968

                     58                     59                     60
                      A                      A                      A
 Frequencies --   3148.9363              3149.4529              3171.0271
 Red. masses --      1.0872                 1.0873                 1.0920
 Frc consts  --      6.3519                 6.3546                 6.4693
 IR Inten    --     27.1412                39.9046                51.0428

                     61                     62                     63
                      A                      A                      A
 Frequencies --   3171.5365              3179.0863              3180.5025
 Red. masses --      1.0923                 1.0908                 1.0907
 Frc consts  --      6.4735                 6.4954                 6.5005
 IR Inten    --     58.4214                28.7320                22.6161

 - Thermochemistry -
 -------------------
 Temperature   298.150 Kelvin.  Pressure   1.00000 Atm.
 Atom     1 has atomic number  8 and mass  15.99491

 Molecular mass:   196.05243 amu.
 Principal axes and moments of inertia in atomic units:
                           1         2         3
     Eigenvalues --  1259.641013950.704555205.78595
           X            0.99892   0.04648   0.00136
           Y           -0.00855   0.15483   0.98790
           Z           -0.04571   0.98685  -0.15506
 This molecule is an asymmetric top.
 Rotational symmetry number  1.
 Warning -- assumption of classical behavior for rotation
           may cause significant error
 Rotational temperatures (Kelvin)      0.06876     0.02192     0.01664
 Rotational constants (GHZ):           1.43274     0.45682     0.34668
 Zero-point vibrational energy     435838.2 (Joules/Mol)
                                  104.16784 (Kcal/Mol)
 Warning -- explicit consideration of  17 degrees of freedom as
           vibrations may cause significant error
 Vibrational temperatures:     36.48   153.02   221.90   316.59   345.12
          (Kelvin)            362.37   417.22   455.68   559.22   625.01
                              641.89   723.03   755.48   759.90   829.52
                              855.62   883.69   927.14   935.45   938.56
                              980.06   981.91  1006.79  1059.61  1068.67
                             1166.32  1168.39  1183.66  1192.33  1320.71
                             1322.56  1323.34  1465.31  1470.65  1540.86
                             1554.58  1634.23  1642.66  1650.89  1656.17
                             1694.06  1753.55  1816.16  1899.36  1940.67
                             1959.35  1980.74  2054.23  2087.46  2107.52
                             2146.79  2165.64  2218.75  2227.26  2332.35
                             4491.82  4492.75  4530.62  4531.36  4562.40
                             4563.13  4574.00  4576.03

 Zero-point correction=                           0.166002 (Hartree/Particle)
 Thermal correction to Energy=                    0.177141
 Thermal correction to Enthalpy=                  0.178085
 Thermal correction to Gibbs Free Energy=         0.128572
 Sum of electronic and zero-point Energies=           -650.834213
 Sum of electronic and thermal Energies=              -650.823075
 Sum of electronic and thermal Enthalpies=            -650.822131
 Sum of electronic and thermal Free Energies=         -650.871643

                     E (Thermal)             CV                S
                      KCal/Mol        Cal/Mol-Kelvin    Cal/Mol-Kelvin
 Total                  111.157             46.220            104.208
 Electronic               0.000              0.000              0.000
 Translational            0.889              2.981             41.725
 Rotational               0.889              2.981             31.627
 Vibrational            109.380             40.259             30.856
 Vibration     1          0.593              1.985              6.163
 Vibration     2          0.605              1.944              3.334
 Vibration     3          0.620              1.898              2.619
 Vibration     4          0.647              1.811              1.959
 Vibration     5          0.657              1.779              1.804
 Vibration     6          0.664              1.760              1.718
 Vibration     7          0.686              1.692              1.474
 Vibration     8          0.704              1.642              1.327
 Vibration     9          0.757              1.494              1.005
 Vibration    10          0.795              1.395              0.844
 Vibration    11          0.805              1.369              0.808
 Vibration    12          0.858              1.244              0.652
 Vibration    13          0.880              1.194              0.598
 Vibration    14          0.883              1.188              0.591
 Vibration    15          0.933              1.082              0.492
 Vibration    16          0.952              1.043              0.459
 Vibration    17          0.974              1.002              0.426

 Optimization completed.
    -- Stationary point found.
 Normal termination of Gaussian 16 at Sun Feb 11 18:33:35 2024.
