 Q-Chem 5.4, Q-Chem, Inc., Pleasanton, CA (2021)
 Q-Chem 5.4.0 for Intel X86 EM64T Linux

User input:
--------------------------------------------------------------
$molecule
0 1
C                 -1.2505580000      2.7491670000     -0.5131830000
C                 -2.5404530000      2.2363330000     -0.4279410000
C                 -2.7481870000      0.9372910000      0.0418460000
C                 -0.1600270000      1.9640910000     -0.1277400000
C                 -0.3695120000      0.6584840000      0.3441400000
C                 -1.6663990000      0.1506240000      0.4266010000
C                  1.2130200000      2.5322080000     -0.2266070000
C                  2.3564300000      1.6429460000      0.2115930000
C                  2.1319330000      0.3819390000      0.6556610000
C                  0.7897880000     -0.1917310000      0.7592860000
O                  1.4264590000      3.6543800000     -0.6369360000
O                  0.6235630000     -1.3326400000      1.1715700000
H                 -1.0669180000      3.7534820000     -0.8746310000
H                 -1.8036700000     -0.8591430000      0.7934810000
O                  3.5295700000      2.2631330000      0.1021890000
H                 -3.3851050000      2.8465300000     -0.7268150000
H                 -3.7547980000      0.5399680000      0.1071610000
H                  2.9319920000     -0.2786060000      0.9618770000
C                  4.7692630000      1.5958730000      0.4710070000
C                  5.7482060000      2.7112470000      0.8027120000
C                  5.2404270000      0.7044620000     -0.6733610000
H                  4.5778190000      0.9997610000      1.3691010000
H                  6.7076690000      2.2863680000      1.1081210000
H                  5.3671440000      3.3306500000      1.6165840000
H                  5.9108650000      3.3484170000     -0.0696620000
H                  6.1679720000      0.1993020000     -0.3915740000
H                  5.4325780000      1.3073660000     -1.5642320000
H                  4.5031370000     -0.0595880000     -0.9258980000
$end
$rem
MAX_SCF_CYCLES=200
BASIS  =  6-311++G(d,p)
GUI  =  2
JOB_TYPE  =  SP
METHOD  =  B3LYP
SOLVENT_METHOD = PCM
$end
$pcm
theory = CPCM
$end
$solvent
dielectric 37.219
opticaldielectric 1.43
$end

--------------------------------------------------------------

             Standard Nuclear Orientation (Angstroms)
    I     Atom           X                Y                Z
 ----------------------------------------------------------------
    1      C      -1.2505580000     2.7491670000    -0.5131830000
    2      C      -2.5404530000     2.2363330000    -0.4279410000
    3      C      -2.7481870000     0.9372910000     0.0418460000
    4      C      -0.1600270000     1.9640910000    -0.1277400000
    5      C      -0.3695120000     0.6584840000     0.3441400000
    6      C      -1.6663990000     0.1506240000     0.4266010000
    7      C       1.2130200000     2.5322080000    -0.2266070000
    8      C       2.3564300000     1.6429460000     0.2115930000
    9      C       2.1319330000     0.3819390000     0.6556610000
   10      C       0.7897880000    -0.1917310000     0.7592860000
   11      O       1.4264590000     3.6543800000    -0.6369360000
   12      O       0.6235630000    -1.3326400000     1.1715700000
   13      H      -1.0669180000     3.7534820000    -0.8746310000
   14      H      -1.8036700000    -0.8591430000     0.7934810000
   15      O       3.5295700000     2.2631330000     0.1021890000
   16      H      -3.3851050000     2.8465300000    -0.7268150000
   17      H      -3.7547980000     0.5399680000     0.1071610000
   18      H       2.9319920000    -0.2786060000     0.9618770000
   19      C       4.7692630000     1.5958730000     0.4710070000
   20      C       5.7482060000     2.7112470000     0.8027120000
   21      C       5.2404270000     0.7044620000    -0.6733610000
   22      H       4.5778190000     0.9997610000     1.3691010000
   23      H       6.7076690000     2.2863680000     1.1081210000
   24      H       5.3671440000     3.3306500000     1.6165840000
   25      H       5.9108650000     3.3484170000    -0.0696620000
   26      H       6.1679720000     0.1993020000    -0.3915740000
   27      H       5.4325780000     1.3073660000    -1.5642320000
   28      H       4.5031370000    -0.0595880000    -0.9258980000
 ----------------------------------------------------------------

    9    -728.4938186688      4.32e-06  Convergence criterion met
 Total energy in the final basis set =     -728.4938186688

                    Orbital Energies (a.u.)
 --------------------------------------------------------------

 Alpha MOs
 -- Occupied --
-19.1816 -19.1425 -19.1270 -10.2916 -10.2797 -10.2749 -10.2427 -10.2086
-10.2069 -10.1979 -10.1969 -10.1957 -10.1955 -10.1933 -10.1651 -10.1639
 -1.1051  -1.0715  -1.0602  -0.8900  -0.8380  -0.8018  -0.7781  -0.7673
 -0.7014  -0.6987  -0.6537  -0.6491  -0.5998  -0.5924  -0.5516  -0.5446
 -0.5248  -0.4969  -0.4809  -0.4710  -0.4668  -0.4559  -0.4511  -0.4502
 -0.4369  -0.4335  -0.4206  -0.4054  -0.3975  -0.3926  -0.3840  -0.3779
 -0.3726  -0.3676  -0.3493  -0.3409  -0.2920  -0.2877  -0.2786  -0.2784
 -0.2625

          Ground-State Mulliken Net Atomic Charges

     Atom                 Charge (a.u.)
  ----------------------------------------
      1 C                     0.285316
      2 C                    -0.432970
      3 C                    -0.347957
      4 C                     0.086361
      5 C                     0.537488
      6 C                     0.208527
      7 C                    -0.378945
      8 C                    -0.400178
      9 C                    -0.036025
     10 C                    -0.220739
     11 O                    -0.289009
     12 O                    -0.326229
     13 H                     0.195510
     14 H                     0.188881
     15 O                    -0.003591
     16 H                     0.223710
     17 H                     0.226496
     18 H                     0.282807
     19 C                    -0.039861
     20 C                    -0.516634
     21 C                    -0.426076
     22 H                     0.174627
     23 H                     0.177748
     24 H                     0.166995
     25 H                     0.161567
     26 H                     0.170623
     27 H                     0.180249
     28 H                     0.151310
  ----------------------------------------
  Sum of atomic charges =     0.000000

                    Cartesian Multipole Moments
 -----------------------------------------------------------------
    Charge (ESU x 10^10)
                 0.0000
    Dipole Moment (Debye)
         X       0.7390      Y       0.0559      Z      -0.0061
       Tot       0.7411
    Quadrupole Moments (Debye-Ang)
        XX     -57.3750     XY      -6.1943     YY    -111.5986
        XZ       5.6477     YZ       5.9802     ZZ     -96.2944

 Total job time:  54.05s(wall), 300.19s(cpu)
        *  Thank you very much for using Q-Chem.  Have a nice day.  *
