 Gaussian 16, Revision A.03,
 Gaussian 16:  ES64L-G16RevA.03 25-Dec-2016

 --------------------------------------
 #P UB3LYP/6-311++G(d,p) nosym opt freq
 --------------------------------------

 -------
 Reduced
 -------
 Symbolic Z-matrix:
 Charge = -2 Multiplicity = 1

 SCF Done:  E(UB3LYP) =  -803.465998772     A.U. after   40 cycles
 Optimization completed.
    -- Stationary point found.
 Normal termination of Gaussian 16 at Wed Dec 27 20:30:23 2023.

 ----------------------------------------------------------------------
 #P Geom=AllCheck Guess=TCheck SCRF=Check GenChk UB3LYP/6-311++G(d,p) F
 req
 ----------------------------------------------------------------------

 Structure from the checkpoint file:  "137-an.chk"
 -------
 Reduced
 -------
 Charge = -2 Multiplicity = 1

                          Input orientation:
 ---------------------------------------------------------------------
 Center     Atomic      Atomic             Coordinates (Angstroms)
 Number     Number       Type             X           Y           Z
 ---------------------------------------------------------------------
      1          6           0        3.724559    2.215779   -0.486719
      2          8           0        2.377847    1.822794   -0.393278
      3          6           0        2.080807    0.489745   -0.238572
      4          6           0        3.094288   -0.456591   -0.169012
      5          6           0        2.776969   -1.830818   -0.009979
      6          6           0        1.466614   -2.227764    0.055436
      7          6           0        0.399062   -1.294179   -0.023377
      8          6           0       -0.944250   -1.835264    0.050117
      9          8           0       -1.177961   -3.092628    0.162117
     10          6           0       -2.006920   -0.857334    0.003723
     11          6           0       -3.357822   -1.285730    0.078694
     12          6           0       -4.410039   -0.394646    0.040341
     13          6           0       -4.147465    0.997065   -0.078622
     14          6           0       -2.839697    1.439053   -0.150177
     15          6           0       -1.739129    0.551711   -0.110698
     16          6           0       -0.387656    1.113187   -0.191833
     17          8           0       -0.226431    2.369233   -0.291706
     18          6           0        0.689286    0.128836   -0.152843
     19          1           0        4.247849    1.743544   -1.332427
     20          1           0        4.293927    1.997402    0.429841
     21          1           0        3.714597    3.297190   -0.643957
     22          1           0        4.132963   -0.157380   -0.221219
     23          1           0        3.584284   -2.558402    0.049128
     24          1           0        1.185302   -3.268710    0.168773
     25          1           0       -3.521433   -2.355066    0.168614
     26          1           0       -5.436273   -0.753828    0.099627
     27          1           0       -4.970627    1.708452   -0.112491
     28          1           0       -2.602652    2.494350   -0.241020
 ---------------------------------------------------------------------

 SCF Done:  E(UB3LYP) =  -803.465998772     A.U. after    3 cycles

 Alpha  occ. eigenvalues --  -18.91921 -18.79219 -18.79150 -10.01049  -9.99801
 Alpha  occ. eigenvalues --   -9.95832  -9.94993  -9.94081  -9.93872  -9.93499
 Alpha  occ. eigenvalues --   -9.93081  -9.92992  -9.92973  -9.92216  -9.91980
 Alpha  occ. eigenvalues --   -9.91610  -9.91571  -9.91567  -0.83664  -0.71501
 Alpha  occ. eigenvalues --   -0.70884  -0.60868  -0.60219  -0.53323  -0.52316
 Alpha  occ. eigenvalues --   -0.50532  -0.49154  -0.46766  -0.41478  -0.38985
 Alpha  occ. eigenvalues --   -0.37382  -0.34226  -0.31696  -0.29933  -0.28798
 Alpha  occ. eigenvalues --   -0.24991  -0.24568  -0.24460  -0.22740  -0.21479
 Alpha  occ. eigenvalues --   -0.21075  -0.19094  -0.18203  -0.16345  -0.15921
 Alpha  occ. eigenvalues --   -0.15088  -0.14622  -0.13320  -0.12741  -0.11321
 Alpha  occ. eigenvalues --   -0.10762  -0.10307  -0.09485  -0.08953  -0.08100
 Alpha  occ. eigenvalues --   -0.07363  -0.01028   0.00137   0.00446   0.01418
 Alpha  occ. eigenvalues --    0.03062   0.04015   0.12744
 Alpha virt. eigenvalues --    0.14244   0.15629   0.16286   0.17419   0.17813
 Alpha virt. eigenvalues --    0.18308   0.19718   0.19844   0.20439   0.21600
 Alpha virt. eigenvalues --    0.21827   0.22288   0.23116   0.24208   0.24754

  Beta  occ. eigenvalues --  -18.91921 -18.79219 -18.79150 -10.01049  -9.99801
  Beta  occ. eigenvalues --   -9.95832  -9.94993  -9.94081  -9.93872  -9.93499
  Beta  occ. eigenvalues --   -9.93081  -9.92992  -9.92973  -9.92216  -9.91980
  Beta  occ. eigenvalues --   -9.91610  -9.91571  -9.91567  -0.83664  -0.71501
  Beta  occ. eigenvalues --   -0.70884  -0.60868  -0.60219  -0.53323  -0.52316
  Beta  occ. eigenvalues --   -0.50532  -0.49154  -0.46766  -0.41478  -0.38985
  Beta  occ. eigenvalues --   -0.37382  -0.34226  -0.31696  -0.29933  -0.28798
  Beta  occ. eigenvalues --   -0.24991  -0.24568  -0.24460  -0.22740  -0.21479
  Beta  occ. eigenvalues --   -0.21075  -0.19094  -0.18203  -0.16345  -0.15921
  Beta  occ. eigenvalues --   -0.15088  -0.14622  -0.13320  -0.12741  -0.11321
  Beta  occ. eigenvalues --   -0.10762  -0.10307  -0.09485  -0.08953  -0.08100
  Beta  occ. eigenvalues --   -0.07363  -0.01028   0.00137   0.00446   0.01418
  Beta  occ. eigenvalues --    0.03062   0.04015   0.12744
  Beta virt. eigenvalues --    0.14244   0.15629   0.16286   0.17419   0.17813
  Beta virt. eigenvalues --    0.18308   0.19718   0.19844   0.20439   0.21600
  Beta virt. eigenvalues --    0.21827   0.22288   0.23116   0.24208   0.24754

 Mulliken charges and spin densities:
               1          2
     1  C    0.797933   0.000000
     2  O   -0.112354  -0.000000
     3  C   -0.324966  -0.000000
     4  C   -0.234419   0.000000
     5  C   -0.111824   0.000000
     6  C    0.082431   0.000000
     7  C    0.656084  -0.000000
     8  C   -0.811056  -0.000000
     9  O   -0.482639   0.000000
    10  C    0.127364  -0.000000
    11  C    0.020756   0.000000
    12  C   -0.450114  -0.000000
    13  C   -0.532803  -0.000000
    14  C    0.072235   0.000000
    15  C    0.414484  -0.000000
    16  C   -0.469005  -0.000000
    17  O   -0.462824   0.000000
    18  C    0.263829  -0.000000
    19  H   -0.406193  -0.000000
    20  H   -0.121066  -0.000000
    21  H   -0.376075  -0.000000
    22  H   -0.069765  -0.000000
    23  H   -0.036491  -0.000000
    24  H    0.147756  -0.000000
    25  H    0.134146   0.000000
    26  H    0.077864   0.000000
    27  H    0.079118   0.000000
    28  H    0.127594  -0.000000
 Sum of Mulliken charges =  -2.00000  -0.00000

 Dipole moment (field-independent basis, Debye):
    X=             -1.0099    Y=             -0.1586    Z=              1.9558  Tot=              2.2068
 Quadrupole moment (field-independent basis, Debye-Ang):
   XX=           -194.5150   YY=           -178.1184   ZZ=           -125.6833
   XY=            -21.2453   XZ=              8.1307   YZ=              7.1063

  Exact polarizability:1685.438 393.0501163.974-103.865-122.511 395.524
 Approx polarizability:5341.0172227.8972037.679-657.182-379.181 451.248

                      1                      2                      3
                      A                      A                      A
 Frequencies --     35.4048                58.1774                89.3440
 Red. masses --      5.3977                 5.5390                 3.8382
 Frc consts  --      0.0040                 0.0110                 0.0181
 IR Inten    --      1.8150                 2.5669                 6.6686

                      4                      5                      6
                      A                      A                      A
 Frequencies --    126.8191               165.5423               169.7271
 Red. masses --      4.3980                 6.4097                 4.4542
 Frc consts  --      0.0417                 0.1035                 0.0756
 IR Inten    --      0.4108                 8.5001                11.3048

                      7                      8                      9
                      A                      A                      A
 Frequencies --    202.8479               266.6039               275.8405
 Red. masses --      3.3358                 2.4957                 4.5424
 Frc consts  --      0.0809                 0.1045                 0.2036
 IR Inten    --      1.6157                 9.6864                 4.2650

                     10                     11                     12
                      A                      A                      A
 Frequencies --    298.1628               328.3954               334.0836
 Red. masses --      1.6465                 5.2485                 5.2316
 Frc consts  --      0.0862                 0.3335                 0.3440
 IR Inten    --     16.8907                44.3449                 0.4967

                     13                     14                     15
                      A                      A                      A
 Frequencies --    374.5617               382.6249               395.7430
 Red. masses --      9.4801                 8.7001                 7.4342
 Frc consts  --      0.7836                 0.7505                 0.6860
 IR Inten    --     51.2482                28.1882                 3.4017

                     16                     17                     18
                      A                      A                      A
 Frequencies --    441.7316               477.0962               480.8379
 Red. masses --      3.3294                 8.8700                 8.2926
 Frc consts  --      0.3828                 1.1896                 1.1296
 IR Inten    --      2.2509               456.5672               194.6576

                     19                     20                     21
                      A                      A                      A
 Frequencies --    488.9387               568.1732               584.2424
 Red. masses --      4.3220                 4.3529                 6.4298
 Frc consts  --      0.6088                 0.8279                 1.2931
 IR Inten    --      5.1149                15.6847                16.6072

                     22                     23                     24
                      A                      A                      A
 Frequencies --    615.0565               635.1494               662.3270
 Red. masses --      5.4100                 3.8073                 6.1441
 Frc consts  --      1.2058                 0.9049                 1.5880
 IR Inten    --     11.0913                10.2560                 6.3438

                     25                     26                     27
                      A                      A                      A
 Frequencies --    684.7792               691.5915               712.1793
 Red. masses --      1.8966                 6.6446                 1.5903
 Frc consts  --      0.5240                 1.8725                 0.4752
 IR Inten    --     54.2374                19.3951                20.8425

                     28                     29                     30
                      A                      A                      A
 Frequencies --    742.9799               756.1807               787.4662
 Red. masses --      2.1551                 2.2502                 6.1504
 Frc consts  --      0.7009                 0.7581                 2.2471
 IR Inten    --      8.7280                18.8437                15.9767

                     31                     32                     33
                      A                      A                      A
 Frequencies --    792.5935               796.9106               832.6169
 Red. masses --      2.0850                 1.5058                 4.7054
 Frc consts  --      0.7717                 0.5634                 1.9219
 IR Inten    --      3.2977                11.1617                 4.5191

                     34                     35                     36
                      A                      A                      A
 Frequencies --    853.8602               926.1593               951.6666
 Red. masses --      6.7626                 6.6428                 1.2516
 Frc consts  --      2.9049                 3.3572                 0.6679
 IR Inten    --     12.2356                 4.5279                 1.6044

                     37                     38                     39
                      A                      A                      A
 Frequencies --    956.9980               964.8671               975.9700
 Red. masses --      1.2541                 1.3511                 6.2252
 Frc consts  --      0.6767                 0.7411                 3.4936
 IR Inten    --      1.1831                 4.2418                26.3888

                     40                     41                     42
                      A                      A                      A
 Frequencies --   1015.7521              1078.4077              1085.4336
 Red. masses --      2.1051                 2.4582                 4.0175
 Frc consts  --      1.2797                 1.6844                 2.7888
 IR Inten    --    505.7103               395.9796               269.6624

                     43                     44                     45
                      A                      A                      A
 Frequencies --   1096.6559              1117.9784              1156.6255
 Red. masses --      2.0359                 1.5651                 1.5335
 Frc consts  --      1.4426                 1.1526                 1.2087
 IR Inten    --     56.3991               162.9215               100.2423

                     46                     47                     48
                      A                      A                      A
 Frequencies --   1157.9577              1164.1886              1186.7748
 Red. masses --      1.2947                 1.9216                 1.6044
 Frc consts  --      1.0228                 1.5345                 1.3314
 IR Inten    --     25.0367               228.3954               281.0419

                     49                     50                     51
                      A                      A                      A
 Frequencies --   1193.7184              1219.6378              1234.5651
 Red. masses --      1.9982                 2.0521                 2.5667
 Frc consts  --      1.6776                 1.7985                 2.3049
 IR Inten    --     45.5763               220.3982               244.0763

                     52                     53                     54
                      A                      A                      A
 Frequencies --   1243.8839              1319.5142              1349.5806
 Red. masses --      3.7017                 5.5670                 4.8230
 Frc consts  --      3.3745                 5.7108                 5.1757
 IR Inten    --      8.6646               589.3363               474.4005

                     55                     56                     57
                      A                      A                      A
 Frequencies --   1354.1586              1378.1602              1422.8163
 Red. masses --      3.9793                 3.1212                 2.9495
 Frc consts  --      4.2992                 3.4928                 3.5181
 IR Inten    --      6.8866               548.7045               181.5749

                     58                     59                     60
                      A                      A                      A
 Frequencies --   1455.4520              1461.3786              1465.8885
 Red. masses --      1.5495                 3.1978                 2.6628
 Frc consts  --      1.9340                 4.0238                 3.3713
 IR Inten    --   1616.8475               409.0092              1026.3006

                     61                     62                     63
                      A                      A                      A
 Frequencies --   1477.2584              1480.2009              1490.2301
 Red. masses --      1.1606                 2.4208                 1.3623
 Frc consts  --      1.4923                 3.1251                 1.7825
 IR Inten    --    286.4052               452.1800               296.8036

                     64                     65                     66
                      A                      A                      A
 Frequencies --   1501.2288              1531.3891              1558.3352
 Red. masses --      2.7187                 4.4737                 6.7123
 Frc consts  --      3.6100                 6.1814                 9.6038
 IR Inten    --    361.0436               215.7540              3445.2530

                     67                     68                     69
                      A                      A                      A
 Frequencies --   1589.9770              1593.5551              2937.7275
 Red. masses --      5.7099                 5.0595                 1.0373
 Frc consts  --      8.5048                 7.5699                 5.2744
 IR Inten    --    381.9656                11.0317                27.4744

                     70                     71                     72
                      A                      A                      A
 Frequencies --   2979.9672              3072.2301              3092.9976
 Red. masses --      1.1028                 1.0944                 1.0827
 Frc consts  --      5.7698                 6.0861                 6.1029
 IR Inten    --      4.9685                34.0872                47.7581

                     73                     74                     75
                      A                      A                      A
 Frequencies --   3107.6322              3117.0084              3160.3927
 Red. masses --      1.0863                 1.0908                 1.0903
 Frc consts  --      6.1808                 6.2438                 6.4160
 IR Inten    --     86.1279               288.7694                37.0671

                     76                     77                     78
                      A                      A                      A
 Frequencies --   3162.9679              3172.6893              3182.3567
 Red. masses --      1.0911                 1.0906                 1.0893
 Frc consts  --      6.4315                 6.4679                 6.4998
 IR Inten    --    181.7539                33.9184                76.3830

 - Thermochemistry -
 -------------------
 Temperature   298.150 Kelvin.  Pressure   1.00000 Atm.
 Atom     1 has atomic number  6 and mass  12.00000

 Molecular mass:   238.06299 amu.
 Principal axes and moments of inertia in atomic units:
                           1         2         3
     Eigenvalues --  2308.569105388.338807684.51307
           X            0.98963  -0.14013   0.03154
           Y            0.13686   0.98658   0.08906
           Z           -0.04360  -0.08382   0.99553
 This molecule is an asymmetric top.
 Rotational symmetry number  1.
 Warning -- assumption of classical behavior for rotation
           may cause significant error
 Rotational temperatures (Kelvin)      0.03752     0.01607     0.01127
 Rotational constants (GHZ):           0.78176     0.33493     0.23485
 Zero-point vibrational energy     539820.4 (Joules/Mol)
                                  129.02017 (Kcal/Mol)
 Warning -- explicit consideration of  22 degrees of freedom as
           vibrations may cause significant error
 Vibrational temperatures:     50.94    83.70   128.55   182.46   238.18
          (Kelvin)            244.20   291.85   383.58   396.87   428.99
                              472.49   480.67   538.91   550.51   569.39
                              635.55   686.44   691.82   703.47   817.47
                              840.59   884.93   913.84   952.94   985.24
                              995.05  1024.67  1068.98  1087.98  1132.99
                             1140.37  1146.58  1197.95  1228.51  1332.54
                             1369.24  1376.91  1388.23  1404.20  1461.44
                             1551.59  1561.70  1577.84  1608.52  1664.13
                             1666.04  1675.01  1707.50  1717.49  1754.79
                             1776.26  1789.67  1898.49  1941.75  1948.33
                             1982.87  2047.12  2094.07  2102.60  2109.09
                             2125.45  2129.68  2144.11  2159.93  2203.33
                             2242.10  2287.62  2292.77  4226.73  4287.51
                             4420.25  4450.13  4471.19  4484.68  4547.10
                             4550.81  4564.79  4578.70

 Zero-point correction=                           0.205607 (Hartree/Particle)
 Thermal correction to Energy=                    0.219674
 Thermal correction to Enthalpy=                  0.220618
 Thermal correction to Gibbs Free Energy=         0.164493
 Sum of electronic and zero-point Energies=           -803.260392
 Sum of electronic and thermal Energies=              -803.246325
 Sum of electronic and thermal Enthalpies=            -803.245381
 Sum of electronic and thermal Free Energies=         -803.301506

                     E (Thermal)             CV                S
                      KCal/Mol        Cal/Mol-Kelvin    Cal/Mol-Kelvin
 Total                  137.847             56.412            118.124
 Electronic               0.000              0.000              0.000
 Translational            0.889              2.981             42.303
 Rotational               0.889              2.981             32.924
 Vibrational            136.070             50.450             42.896
 Vibration     1          0.594              1.982              5.501
 Vibration     2          0.596              1.974              4.518
 Vibration     3          0.602              1.957              3.674
 Vibration     4          0.611              1.926              2.994
 Vibration     5          0.624              1.885              2.485
 Vibration     6          0.625              1.880              2.439
 Vibration     7          0.639              1.836              2.107
 Vibration     8          0.672              1.734              1.618
 Vibration     9          0.677              1.718              1.559
 Vibration    10          0.691              1.677              1.427
 Vibration    11          0.712              1.619              1.268
 Vibration    12          0.716              1.607              1.240
 Vibration    13          0.746              1.524              1.061
 Vibration    14          0.752              1.507              1.029
 Vibration    15          0.762              1.479              0.978
 Vibration    16          0.801              1.379              0.821
 Vibration    17          0.834              1.301              0.718
 Vibration    18          0.837              1.293              0.708
 Vibration    19          0.845              1.275              0.686
 Vibration    20          0.924              1.100              0.508
 Vibration    21          0.941              1.065              0.478
 Vibration    22          0.975              1.000              0.424

                           ! Non-Optimized Parameters !
 Normal termination of Gaussian 16 at Wed Dec 27 21:14:04 2023.
