 Q-Chem 5.4, Q-Chem, Inc., Pleasanton, CA (2021)
 Q-Chem 5.4.0 for Intel X86 EM64T Linux

User input:
--------------------------------------------------------------
$molecule
-2 1
C                  3.7245590000      2.2157790000     -0.4867190000
O                  2.3778470000      1.8227940000     -0.3932780000
C                  2.0808070000      0.4897450000     -0.2385720000
C                  3.0942880000     -0.4565910000     -0.1690120000
C                  2.7769690000     -1.8308180000     -0.0099790000
C                  1.4666140000     -2.2277640000      0.0554360000
C                  0.3990620000     -1.2941790000     -0.0233770000
C                 -0.9442500000     -1.8352640000      0.0501170000
O                 -1.1779610000     -3.0926280000      0.1621170000
C                 -2.0069200000     -0.8573340000      0.0037230000
C                 -3.3578220000     -1.2857300000      0.0786940000
C                 -4.4100390000     -0.3946460000      0.0403410000
C                 -4.1474650000      0.9970650000     -0.0786220000
C                 -2.8396970000      1.4390530000     -0.1501770000
C                 -1.7391290000      0.5517110000     -0.1106980000
C                 -0.3876560000      1.1131870000     -0.1918330000
O                 -0.2264310000      2.3692330000     -0.2917060000
C                  0.6892860000      0.1288360000     -0.1528430000
H                  4.2478490000      1.7435440000     -1.3324270000
H                  4.2939270000      1.9974020000      0.4298410000
H                  3.7145970000      3.2971900000     -0.6439570000
H                  4.1329630000     -0.1573800000     -0.2212190000
H                  3.5842840000     -2.5584020000      0.0491280000
H                  1.1853020000     -3.2687100000      0.1687730000
H                 -3.5214330000     -2.3550660000      0.1686140000
H                 -5.4362730000     -0.7538280000      0.0996270000
H                 -4.9706270000      1.7084520000     -0.1124910000
H                 -2.6026520000      2.4943500000     -0.2410200000
$end
$rem
MAX_SCF_CYCLES=200
BASIS  =  6-311++G(d,p)
GUI  =  2
JOB_TYPE  =  SP
METHOD  =  B3LYP
SOLVENT_METHOD = COSMO
$end
$solvent
dielectric 37.219
opticaldielectric 1.43
$end

--------------------------------------------------------------

             Standard Nuclear Orientation (Angstroms)
    I     Atom           X                Y                Z
 ----------------------------------------------------------------
    1      C       4.1807528565     1.7472075192    -0.0430577915
    2      O       2.7905346548     1.5377698839    -0.0278633753
    3      C       2.3097917352     0.2503510519    -0.0028565602
    4      C       3.1822337058    -0.8295153326     0.0135066706
    5      C       2.6756691871    -2.1551288328     0.0384852026
    6      C       1.3221273338    -2.3711335966     0.0265743438
    7      C       0.3948432312    -1.2955891767    -0.0018528925
    8      C      -1.0111333864    -1.6499517686    -0.0196960626
    9      O      -1.4171084972    -2.8678340911    -0.0284091602
   10      C      -1.9290115706    -0.5340651219    -0.0117181077
   11      C      -3.3273527034    -0.7763042670    -0.0182196559
   12      C      -4.2469584425     0.2517594223    -0.0096992024
   13      C      -3.7939717412     1.5988089176     0.0050491556
   14      C      -2.4366423397     1.8601369135     0.0148075637
   15      C      -1.4687185396     0.8289835728     0.0092718505
   16      C      -0.0515775486     1.2029848807     0.0215962087
   17      O       0.2819380766     2.4285660986     0.0399721941
   18      C       0.8798842275     0.0794143602     0.0061227514
   19      H       4.6718670807     1.2803536263    -0.9107643099
   20      H       4.6749234333     1.3754775096     0.8677456495
   21      H       4.3237378478     2.8289889300    -0.1028662575
   22      H       4.2530732264    -0.6734963312     0.0212100016
   23      H       3.3740177338    -2.9897396844     0.0575550098
   24      H       0.8981909860    -3.3689899711     0.0371062368
   25      H      -3.6375902854    -1.8164732824    -0.0298260660
   26      H      -5.3138875385     0.0342434267    -0.0153434419
   27      H      -4.5112938782     2.4174946913     0.0091487598
   28      H      -2.0555685102     2.8763747028     0.0265563045
 ----------------------------------------------------------------

   19    -803.4660083839      3.14e-06  Convergence criterion met
 Total energy in the final basis set =     -803.4660083839
    6    -803.7466636199      3.27e-06  Convergence criterion met
 Total energy in the final basis set =     -803.7466636199

                    Orbital Energies (a.u.)
 --------------------------------------------------------------

 Alpha MOs
 -- Occupied --
-19.1355 -19.0231 -19.0227 -10.2163 -10.2051 -10.1839 -10.1734 -10.1507
-10.1489 -10.1487 -10.1466 -10.1465 -10.1455 -10.1427 -10.1385 -10.1379
-10.1375 -10.1370  -1.0525  -0.9495  -0.9428  -0.8285  -0.8209  -0.7527
 -0.7364  -0.7236  -0.7095  -0.6768  -0.6363  -0.6056  -0.5911  -0.5565
 -0.5331  -0.5142  -0.5032  -0.4634  -0.4569  -0.4540  -0.4420  -0.4312
 -0.4263  -0.4037  -0.3998  -0.3848  -0.3797  -0.3753  -0.3682  -0.3558
 -0.3506  -0.3337  -0.3319  -0.3232  -0.3143  -0.3130  -0.3054  -0.2952
 -0.2320  -0.2297  -0.2194  -0.2088  -0.2053  -0.1948  -0.1067

          Ground-State Mulliken Net Atomic Charges

     Atom                 Charge (a.u.)
  ----------------------------------------
      1 C                    -0.303855
      2 O                    -0.164042
      3 C                    -0.098086
      4 C                    -0.082601
      5 C                    -0.512394
      6 C                    -0.085022
      7 C                     0.428473
      8 C                    -0.416148
      9 O                    -0.705642
     10 C                    -0.029182
     11 C                    -0.006784
     12 C                    -0.553116
     13 C                    -0.547432
     14 C                     0.021208
     15 C                     0.240590
     16 C                    -0.321311
     17 O                    -0.684898
     18 C                     0.128829
     19 H                     0.154662
     20 H                     0.161245
     21 H                     0.194846
     22 H                     0.184660
     23 H                     0.186539
     24 H                     0.145689
     25 H                     0.156710
     26 H                     0.177963
     27 H                     0.178590
     28 H                     0.150511
  ----------------------------------------
  Sum of atomic charges =    -2.000000

                    Cartesian Multipole Moments
 -----------------------------------------------------------------
    Charge (ESU x 10^10)
                -9.6064
    Dipole Moment (Debye)
         X       6.9370      Y       2.7878      Z      -0.0418
       Tot       7.4764
    Quadrupole Moments (Debye-Ang)
        XX    -122.8921     XY     -10.5631     YY    -165.8626
        XZ      -0.2843     YZ      -0.7151     ZZ    -117.5305

 Total job time:  99.32s(wall), 770.58s(cpu)
        *  Thank you very much for using Q-Chem.  Have a nice day.  *
