 Q-Chem 5.4, Q-Chem, Inc., Pleasanton, CA (2021)
 Q-Chem 5.4.0 for Intel X86 EM64T Linux

User input:
--------------------------------------------------------------
$molecule
0 1
Cl                 3.1062080000     -0.1883210000      0.0315640000
C                  1.3812120000     -0.0241180000      0.0142390000
C                  0.7813930000      1.1753350000      0.0121020000
C                 -0.6953440000      1.2952570000     -0.0027980000
O                 -1.2372960000      2.3873640000     -0.0047020000
C                 -1.4875190000      0.0393570000     -0.0152830000
C                 -0.8891550000     -1.1572100000     -0.0131520000
C                  0.5887870000     -1.3024260000      0.0016770000
O                  1.1181570000     -2.3933650000      0.0034200000
H                  1.3404350000      2.1029270000      0.0210550000
H                 -2.5654310000      0.1552840000     -0.0260640000
H                 -1.4414470000     -2.0900840000     -0.0220580000
$end
$rem
MAX_SCF_CYCLES=200
BASIS  =  6-311++G(d,p)
GUI  =  2
JOB_TYPE  =  SP
METHOD  =  B3LYP
SOLVENT_METHOD = PCM
$end
$pcm
theory = CPCM
$end
$solvent
dielectric 37.219
opticaldielectric 1.43
$end

--------------------------------------------------------------

             Standard Nuclear Orientation (Angstroms)
    I     Atom           X                Y                Z
 ----------------------------------------------------------------
    1      Cl      3.1062080000    -0.1883210000     0.0315640000
    2      C       1.3812120000    -0.0241180000     0.0142390000
    3      C       0.7813930000     1.1753350000     0.0121020000
    4      C      -0.6953440000     1.2952570000    -0.0027980000
    5      O      -1.2372960000     2.3873640000    -0.0047020000
    6      C      -1.4875190000     0.0393570000    -0.0152830000
    7      C      -0.8891550000    -1.1572100000    -0.0131520000
    8      C       0.5887870000    -1.3024260000     0.0016770000
    9      O       1.1181570000    -2.3933650000     0.0034200000
   10      H       1.3404350000     2.1029270000     0.0210550000
   11      H      -2.5654310000     0.1552840000    -0.0260640000
   12      H      -1.4414470000    -2.0900840000    -0.0220580000
 ----------------------------------------------------------------

    9    -841.1938086922      7.83e-06  Convergence criterion met
 Total energy in the final basis set =     -841.1938086922

                    Orbital Energies (a.u.)
 --------------------------------------------------------------

 Alpha MOs
 -- Occupied --
******** -19.1571 -19.1514 -10.3050 -10.2974 -10.2771 -10.2215 -10.2194
-10.2180  -9.4947  -7.2592  -7.2499  -7.2489  -1.0911  -1.0817  -0.9136
 -0.8565  -0.7866  -0.7181  -0.6473  -0.6148  -0.5400  -0.5227  -0.4982
 -0.4726  -0.4671  -0.4616  -0.4460  -0.4336  -0.4197  -0.3838  -0.3412
 -0.3198  -0.3051  -0.2938  -0.2937

          Ground-State Mulliken Net Atomic Charges

     Atom                 Charge (a.u.)
  ----------------------------------------
      1 Cl                    0.297650
      2 C                     0.978779
      3 C                    -0.312414
      4 C                    -0.522731
      5 O                    -0.297846
      6 C                     0.116403
      7 C                     0.053684
      8 C                    -0.871208
      9 O                    -0.249700
     10 H                     0.269078
     11 H                     0.268461
     12 H                     0.269845
  ----------------------------------------
  Sum of atomic charges =     0.000000

                    Cartesian Multipole Moments
 -----------------------------------------------------------------
    Charge (ESU x 10^10)
                 0.0000
    Dipole Moment (Debye)
         X      -1.6048      Y      -0.0414      Z      -0.0168
       Tot       1.6054
    Quadrupole Moments (Debye-Ang)
        XX     -58.1483     XY      12.6091     YY     -71.7167
        XZ       0.0358     YZ       0.0822     ZZ     -57.4633

 Total job time:  48.83s(wall), 59.06s(cpu)
        *  Thank you very much for using Q-Chem.  Have a nice day.  *
