 Gaussian 16, Revision A.03,
 Gaussian 16:  ES64L-G16RevA.03 25-Dec-2016

 ----------------------------------------------------------------
 #P UB3LYP/6-311++G(d,p) SCRF=(PCM,Solvent=n,n-DiMethylFormamide)
 ----------------------------------------------------------------

 -------
 Reduced
 -------
 Symbolic Z-matrix:
 Charge = -2 Multiplicity = 1

                         Standard orientation:
 ---------------------------------------------------------------------
 Center     Atomic      Atomic             Coordinates (Angstroms)
 Number     Number       Type             X           Y           Z
 ---------------------------------------------------------------------
      1          6           0       -3.958348    0.186170    0.229168
      2          8           0       -2.921450   -0.685787   -0.148751
      3          6           0       -1.611523   -0.215313   -0.076281
      4          6           0       -1.326074    1.156629   -0.079533
      5          6           0       -0.011245    1.703900   -0.047531
      6          8           0        0.226211    2.968873   -0.045757
      7          6           0        1.049667    0.703454   -0.009390
      8          6           0        2.401156    1.108655    0.032502
      9          6           0        3.443849    0.198225    0.066781
     10          6           0        3.153490   -1.191790    0.057072
     11          6           0        1.838974   -1.618458    0.018875
     12          6           0        0.750739   -0.711603   -0.012469
     13          6           0       -0.606731   -1.240923   -0.042304
     14          8           0       -0.861337   -2.497906   -0.048947
     15          1           0       -3.782021    0.634395    1.221315
     16          1           0       -4.880354   -0.403100    0.268035
     17          1           0       -4.106969    1.003670   -0.489736
     18          1           0       -2.133541    1.881384   -0.098856
     19          1           0        2.584057    2.179463    0.036982
     20          1           0        4.476324    0.542856    0.098793
     21          1           0        3.964246   -1.918969    0.079014
     22          1           0        1.587148   -2.674793    0.010751
 ---------------------------------------------------------------------

 SCF Done:  E(UB3LYP) =  -650.063233428     A.U. after   18 cycles

 The electronic state is 1-A.
 Alpha  occ. eigenvalues --  -19.12137 -19.01507 -19.01172 -10.20245 -10.17814
 Alpha  occ. eigenvalues --  -10.17014 -10.16458 -10.14704 -10.14493 -10.14335
 Alpha  occ. eigenvalues --  -10.14160 -10.13337 -10.13134 -10.11772  -1.03248
 Alpha  occ. eigenvalues --   -0.93212  -0.92839  -0.82090  -0.76161  -0.71890
 Alpha  occ. eigenvalues --   -0.70936  -0.68027  -0.62689  -0.58425  -0.56811
 Alpha  occ. eigenvalues --   -0.52706  -0.48999  -0.48140  -0.45279  -0.44473
 Alpha  occ. eigenvalues --   -0.42774  -0.41898  -0.39881  -0.38903  -0.37052
 Alpha  occ. eigenvalues --   -0.36780  -0.36024  -0.35355  -0.32966  -0.32224
 Alpha  occ. eigenvalues --   -0.31590  -0.31220  -0.29841  -0.28179  -0.22644
 Alpha  occ. eigenvalues --   -0.21967  -0.19952  -0.19638  -0.19178  -0.10435
 Alpha virt. eigenvalues --   -0.00358   0.00100   0.00821   0.01740   0.01823
 Alpha virt. eigenvalues --    0.02651   0.03043   0.03941   0.04771   0.05338
 Alpha virt. eigenvalues --    0.05777   0.06019   0.06975   0.07150   0.08722

  Beta  occ. eigenvalues --  -19.12137 -19.01507 -19.01172 -10.20245 -10.17814
  Beta  occ. eigenvalues --  -10.17014 -10.16458 -10.14704 -10.14493 -10.14335
  Beta  occ. eigenvalues --  -10.14160 -10.13337 -10.13134 -10.11772  -1.03248
  Beta  occ. eigenvalues --   -0.93212  -0.92839  -0.82090  -0.76161  -0.71890
  Beta  occ. eigenvalues --   -0.70936  -0.68027  -0.62689  -0.58425  -0.56811
  Beta  occ. eigenvalues --   -0.52706  -0.48999  -0.48140  -0.45279  -0.44473
  Beta  occ. eigenvalues --   -0.42774  -0.41898  -0.39881  -0.38903  -0.37052
  Beta  occ. eigenvalues --   -0.36780  -0.36024  -0.35355  -0.32966  -0.32224
  Beta  occ. eigenvalues --   -0.31590  -0.31220  -0.29841  -0.28179  -0.22644
  Beta  occ. eigenvalues --   -0.21967  -0.19952  -0.19638  -0.19178  -0.10435
  Beta virt. eigenvalues --   -0.00358   0.00100   0.00821   0.01740   0.01823
  Beta virt. eigenvalues --    0.02651   0.03043   0.03941   0.04771   0.05338
  Beta virt. eigenvalues --    0.05777   0.06019   0.06975   0.07150   0.08722

 Mulliken charges and spin densities:
               1          2
     1  C   -0.313422  -0.000000
     2  O   -0.226469  -0.000000
     3  C   -0.304792   0.000000
     4  C    0.620494  -0.000000
     5  C   -0.667380   0.000000
     6  O   -0.700247   0.000000
     7  C    0.542015  -0.000000
     8  C   -0.009668   0.000000
     9  C   -0.484649   0.000000
    10  C   -0.508634   0.000000
    11  C   -0.041110   0.000000
    12  C    0.468233   0.000000
    13  C   -0.830607   0.000000
    14  O   -0.716640   0.000000
    15  H    0.148194  -0.000000
    16  H    0.158994   0.000000
    17  H    0.139091  -0.000000
    18  H    0.136173   0.000000
    19  H    0.138639   0.000000
    20  H    0.155244  -0.000000
    21  H    0.157246   0.000000
    22  H    0.139294  -0.000000
 Sum of Mulliken charges =  -2.00000   0.00000

 Dipole moment (field-independent basis, Debye):
    X=              0.1294    Y=             -0.1802    Z=              0.8610  Tot=              0.8891
 Quadrupole moment (field-independent basis, Debye-Ang):
   XX=            -98.6243   YY=           -148.6273   ZZ=            -92.8652
   XY=            -14.1886   XZ=             -2.0010   YZ=             -0.2425

 Normal termination of Gaussian 16 at Sun Jan 21 08:52:41 2024.
