 Q-Chem 5.4, Q-Chem, Inc., Pleasanton, CA (2021)
 Q-Chem 5.4.0 for Intel X86 EM64T Linux

User input:
--------------------------------------------------------------
$molecule
-1 2
C                 -3.3667910000      3.6844270000      0.0365830000
C                 -4.5752810000      3.0176410000      0.0577410000
C                 -4.5999090000      1.6056520000      0.0817270000
C                 -2.1421270000      2.9808910000      0.0383840000
C                 -2.1667060000      1.5556330000      0.0626140000
C                 -3.4157320000      0.8963450000      0.0839670000
C                 -0.8867690000      3.7356340000      0.0153540000
C                  0.3371190000      2.9336950000      0.0189100000
C                  0.3145350000      1.5110480000      0.0430850000
C                 -0.9386070000      0.7572050000      0.0659940000
C                  1.5859230000      3.5908670000     -0.0023550000
C                  2.7501920000      2.8624830000      0.0004510000
C                  2.7729080000      1.4443810000      0.0242290000
C                  1.5400810000      0.8134090000      0.0449140000
O                 -0.8603650000      4.9903300000     -0.0059080000
O                 -0.9591050000     -0.4988660000      0.0874840000
Br                 4.4333740000      3.8406280000     -0.0301770000
C                  4.0514280000      0.6473870000      0.0270470000
H                 -3.3175340000      4.7671310000      0.0179350000
H                 -5.5063820000      3.5765600000      0.0559650000
H                 -5.5500780000      1.0799900000      0.0983730000
H                 -3.4047620000     -0.1874340000      0.1021170000
H                  1.5865210000      4.6730260000     -0.0206230000
H                  1.4872120000     -0.2699940000      0.0636870000
H                  4.6749440000      0.8863800000      0.8949550000
H                  4.6577470000      0.8527320000     -0.8614900000
H                  3.8272040000     -0.4209310000      0.0495970000
$end
$rem
MAX_SCF_CYCLES=200
BASIS  =  6-311++G(d,p)
GUI  =  2
JOB_TYPE  =  SP
METHOD  =  B3LYP
SOLVENT_METHOD = PCM
$end
$pcm
theory = CPCM
$end
$solvent
dielectric 37.219
opticaldielectric 1.43
$end

--------------------------------------------------------------

             Standard Nuclear Orientation (Angstroms)
    I     Atom           X                Y                Z
 ----------------------------------------------------------------
    1      C      -3.3667910000     3.6844270000     0.0365830000
    2      C      -4.5752810000     3.0176410000     0.0577410000
    3      C      -4.5999090000     1.6056520000     0.0817270000
    4      C      -2.1421270000     2.9808910000     0.0383840000
    5      C      -2.1667060000     1.5556330000     0.0626140000
    6      C      -3.4157320000     0.8963450000     0.0839670000
    7      C      -0.8867690000     3.7356340000     0.0153540000
    8      C       0.3371190000     2.9336950000     0.0189100000
    9      C       0.3145350000     1.5110480000     0.0430850000
   10      C      -0.9386070000     0.7572050000     0.0659940000
   11      C       1.5859230000     3.5908670000    -0.0023550000
   12      C       2.7501920000     2.8624830000     0.0004510000
   13      C       2.7729080000     1.4443810000     0.0242290000
   14      C       1.5400810000     0.8134090000     0.0449140000
   15      O      -0.8603650000     4.9903300000    -0.0059080000
   16      O      -0.9591050000    -0.4988660000     0.0874840000
   17      Br      4.4333740000     3.8406280000    -0.0301770000
   18      C       4.0514280000     0.6473870000     0.0270470000
   19      H      -3.3175340000     4.7671310000     0.0179350000
   20      H      -5.5063820000     3.5765600000     0.0559650000
   21      H      -5.5500780000     1.0799900000     0.0983730000
   22      H      -3.4047620000    -0.1874340000     0.1021170000
   23      H       1.5865210000     4.6730260000    -0.0206230000
   24      H       1.4872120000    -0.2699940000     0.0636870000
   25      H       4.6749440000     0.8863800000     0.8949550000
   26      H       4.6577470000     0.8527320000    -0.8614900000
   27      H       3.8272040000    -0.4209310000     0.0495970000
 ----------------------------------------------------------------

    8   -3301.9685193424      9.17e-06  Convergence criterion met
 Total energy in the final basis set =    -3301.9685193424

                    Orbital Energies (a.u.)
 --------------------------------------------------------------

 Alpha MOs
 -- Occupied --
******** -62.4826 -56.3029 -56.2993 -56.2991 -19.0803 -19.0796 -10.2299
-10.2291 -10.2280 -10.1948 -10.1814 -10.1788 -10.1768 -10.1753 -10.1748
-10.1742 -10.1732 -10.1728 -10.1709 -10.1707 -10.1654  -8.6912  -6.5221
 -6.5101  -6.5096  -2.6331  -2.6298  -2.6294  -2.6198  -2.6197  -1.0083
 -1.0055  -0.8777  -0.8575  -0.8123  -0.7860  -0.7632  -0.7521  -0.7345
 -0.6994  -0.6622  -0.6321  -0.6082  -0.5944  -0.5597  -0.5258  -0.5227
 -0.4816  -0.4689  -0.4536  -0.4465  -0.4323  -0.4314  -0.4244  -0.4183
 -0.4172  -0.4168  -0.4032  -0.3853  -0.3851  -0.3726  -0.3691  -0.3524
 -0.3476  -0.3472  -0.3366  -0.3110  -0.2939  -0.2668  -0.2597  -0.2571
 -0.2516  -0.2444  -0.2416  -0.1449

 Beta MOs
 -- Occupied --
******** -62.4826 -56.3029 -56.2993 -56.2991 -19.0752 -19.0744 -10.2294
-10.2271 -10.2261 -10.1942 -10.1814 -10.1780 -10.1760 -10.1746 -10.1742
-10.1741 -10.1728 -10.1723 -10.1708 -10.1706 -10.1654  -8.6912  -6.5221
 -6.5101  -6.5096  -2.6331  -2.6298  -2.6294  -2.6198  -2.6197  -0.9992
 -0.9962  -0.8759  -0.8556  -0.8101  -0.7842  -0.7610  -0.7500  -0.7327
 -0.6974  -0.6556  -0.6308  -0.6056  -0.5938  -0.5571  -0.5232  -0.5212
 -0.4801  -0.4665  -0.4519  -0.4458  -0.4307  -0.4268  -0.4240  -0.4162
 -0.4118  -0.4080  -0.4010  -0.3847  -0.3716  -0.3671  -0.3614  -0.3517
 -0.3462  -0.3390  -0.3352  -0.3045  -0.2938  -0.2560  -0.2494  -0.2478
 -0.2470  -0.2391  -0.2369

          Ground-State Mulliken Net Atomic Charges

     Atom                 Charge (a.u.)    Spin (a.u.)
  --------------------------------------------------------
      1 C                     0.123556       0.030795
      2 C                    -0.542078       0.036566
      3 C                    -0.517689       0.036428
      4 C                     0.076351       0.026082
      5 C                     0.276151       0.028475
      6 C                     0.018671       0.028679
      7 C                    -0.703948       0.104827
      8 C                     0.400617       0.041977
      9 C                     0.280472       0.054802
     10 C                    -0.455487       0.109444
     11 C                    -0.047071       0.022560
     12 C                    -0.256130       0.032813
     13 C                     0.365196       0.043612
     14 C                    -0.193580       0.020318
     15 O                    -0.468969       0.194881
     16 O                    -0.471496       0.198319
     17 Br                   -0.302652       0.001351
     18 C                    -0.210929      -0.004005
     19 H                     0.172687      -0.001514
     20 H                     0.199085      -0.003028
     21 H                     0.200800      -0.003076
     22 H                     0.169319      -0.001503
     23 H                     0.207643      -0.001824
     24 H                     0.141173      -0.001775
     25 H                     0.176498       0.002323
     26 H                     0.177088       0.002339
     27 H                     0.184721       0.000135
  --------------------------------------------------------
  Sum of atomic charges =    -1.000000

                    Cartesian Multipole Moments
 -----------------------------------------------------------------
    Charge (ESU x 10^10)
                -4.8032
    Dipole Moment (Debye)
         X       2.3017      Y     -12.4027      Z      -0.1523
       Tot      12.6154
    Quadrupole Moments (Debye-Ang)
        XX    -124.2937     XY      -2.7934     YY    -185.0546
        XZ       0.2168     YZ       0.1731     ZZ    -123.5970

 Total job time:  59.20s(wall), 433.45s(cpu)
        *  Thank you very much for using Q-Chem.  Have a nice day.  *
