 Q-Chem 5.4, Q-Chem, Inc., Pleasanton, CA (2021)
 Q-Chem 5.4.0 for Intel X86 EM64T Linux

User input:
--------------------------------------------------------------
$molecule
-2 1
C                  7.0974530000     -1.8451810000     -0.5879930000
C                  7.6251970000     -0.8160340000     -1.4556560000
C                  6.7586740000      0.2527410000     -1.8964250000
C                  5.4532470000      0.2597420000     -1.4760260000
C                  4.8759160000     -0.7150210000     -0.6288640000
C                  5.7053240000     -1.8175850000     -0.1532830000
C                  5.1501350000     -2.8261860000      0.7095420000
C                  3.7360590000     -2.6562320000      1.0540670000
C                  2.9340960000     -1.5670670000      0.5785600000
C                  3.4844460000     -0.5395580000     -0.2945990000
C                  3.1238700000     -3.6130050000      1.8994260000
C                  1.7951630000     -3.5228000000      2.2699910000
C                  1.0052880000     -2.4445690000      1.7978960000
C                  1.5770520000     -1.4959410000      0.9712410000
O                  5.7891150000     -3.8369770000      1.1839720000
O                  2.7639630000      0.4324490000     -0.7174160000
H                  4.7808360000      1.0528140000     -1.7934280000
H                  3.7566820000     -4.4249310000      2.2425890000
H                  1.0067520000     -0.6553140000      0.5883900000
C                  7.2791750000      1.3398430000     -2.8011290000
H                 -0.0420050000     -2.3659960000      2.0848390000
C                  8.9770670000     -0.8707840000     -1.8593270000
C                  8.0048770000     -2.8641470000     -0.1952640000
C                  9.3342570000     -2.8799820000     -0.6177180000
C                  9.8489010000     -1.8880470000     -1.4556280000
C                 11.2890040000     -1.9021400000     -1.9116760000
H                  1.3561480000     -4.2764770000      2.9217780000
H                  8.1156530000      1.8998740000     -2.3519290000
H                  6.4822000000      2.0552810000     -3.0249940000
H                  7.6564900000      0.9478940000     -3.7598770000
H                  9.3585870000     -0.0897830000     -2.5116630000
H                  7.6112890000     -3.6349030000      0.4536130000
H                  9.9843220000     -3.6884240000     -0.2833780000
H                 11.8383270000     -1.0083520000     -1.5797890000
H                 11.3758700000     -1.9339970000     -3.0079470000
H                 11.8162410000     -2.7767440000     -1.5152360000
$end

$rem
BASIS  =  6-311++G(d,p)
GUI  =  2
JOB_TYPE  =  SP
METHOD  =  B3LYP
SCF_CONVERGENCE  = 8
SOLVENT_METHOD = sm12
$end

$smx
solvent dimethylformamide
charges CM5
$end

--------------------------------------------------------------

             Standard Nuclear Orientation (Angstroms)
    I     Atom           X                Y                Z
 ----------------------------------------------------------------
    1      C       7.0974530000    -1.8451810000    -0.5879930000
    2      C       7.6251970000    -0.8160340000    -1.4556560000
    3      C       6.7586740000     0.2527410000    -1.8964250000
    4      C       5.4532470000     0.2597420000    -1.4760260000
    5      C       4.8759160000    -0.7150210000    -0.6288640000
    6      C       5.7053240000    -1.8175850000    -0.1532830000
    7      C       5.1501350000    -2.8261860000     0.7095420000
    8      C       3.7360590000    -2.6562320000     1.0540670000
    9      C       2.9340960000    -1.5670670000     0.5785600000
   10      C       3.4844460000    -0.5395580000    -0.2945990000
   11      C       3.1238700000    -3.6130050000     1.8994260000
   12      C       1.7951630000    -3.5228000000     2.2699910000
   13      C       1.0052880000    -2.4445690000     1.7978960000
   14      C       1.5770520000    -1.4959410000     0.9712410000
   15      O       5.7891150000    -3.8369770000     1.1839720000
   16      O       2.7639630000     0.4324490000    -0.7174160000
   17      H       4.7808360000     1.0528140000    -1.7934280000
   18      H       3.7566820000    -4.4249310000     2.2425890000
   19      H       1.0067520000    -0.6553140000     0.5883900000
   20      C       7.2791750000     1.3398430000    -2.8011290000
   21      H      -0.0420050000    -2.3659960000     2.0848390000
   22      C       8.9770670000    -0.8707840000    -1.8593270000
   23      C       8.0048770000    -2.8641470000    -0.1952640000
   24      C       9.3342570000    -2.8799820000    -0.6177180000
   25      C       9.8489010000    -1.8880470000    -1.4556280000
   26      C      11.2890040000    -1.9021400000    -1.9116760000
   27      H       1.3561480000    -4.2764770000     2.9217780000
   28      H       8.1156530000     1.8998740000    -2.3519290000
   29      H       6.4822000000     2.0552810000    -3.0249940000
   30      H       7.6564900000     0.9478940000    -3.7598770000
   31      H       9.3585870000    -0.0897830000    -2.5116630000
   32      H       7.6112890000    -3.6349030000     0.4536130000
   33      H       9.9843220000    -3.6884240000    -0.2833780000
   34      H      11.8383270000    -1.0083520000    -1.5797890000
   35      H      11.3758700000    -1.9339970000    -3.0079470000
   36      H      11.8162410000    -2.7767440000    -1.5152360000
 ----------------------------------------------------------------

   18    -921.2572532609      8.68e-09  Convergence criterion met
 Total energy in the final basis set =     -921.5367860605

                    Orbital Energies (a.u.)
 --------------------------------------------------------------

 Alpha MOs
 -- Occupied --
-19.0314 -19.0296 -10.1907 -10.1905 -10.1798 -10.1789 -10.1779 -10.1752
-10.1747 -10.1740 -10.1728 -10.1694 -10.1684 -10.1683 -10.1678 -10.1677
-10.1591 -10.1583 -10.1574 -10.1550 -10.1514 -10.1457  -0.9515  -0.9485
 -0.8635  -0.8467  -0.8213  -0.7835  -0.7658  -0.7434  -0.7413  -0.7268
 -0.6987  -0.6789  -0.6466  -0.6197  -0.6090  -0.5923  -0.5775  -0.5463
 -0.5281  -0.5033  -0.4918  -0.4781  -0.4587  -0.4511  -0.4355  -0.4302
 -0.4257  -0.4255  -0.4205  -0.4169  -0.4031  -0.3950  -0.3948  -0.3847
 -0.3802  -0.3776  -0.3708  -0.3660  -0.3612  -0.3458  -0.3395  -0.3311
 -0.3311  -0.3267  -0.3142  -0.2967  -0.2638  -0.2497  -0.2386  -0.2366
 -0.2087  -0.2063  -0.1999  -0.1212

          Ground-State Mulliken Net Atomic Charges

     Atom                 Charge (a.u.)
  ----------------------------------------
      1 C                    -2.116554
      2 C                    -1.960555
      3 C                     0.002560
      4 C                    -1.100150
      5 C                    -2.946096
      6 C                    -2.018478
      7 C                    -2.550795
      8 C                    -1.831674
      9 C                    -0.172838
     10 C                    -1.078703
     11 C                    -0.075220
     12 C                     1.730742
     13 C                     1.754594
     14 C                     0.005267
     15 O                    -0.295002
     16 O                    -0.322074
     17 H                    -0.058189
     18 H                     0.139224
     19 H                     0.109016
     20 C                     2.356028
     21 H                     0.417959
     22 C                     0.459747
     23 C                    -1.979661
     24 C                    -0.243228
     25 C                     3.932870
     26 C                     3.072468
     27 H                     0.407148
     28 H                     0.280807
     29 H                     0.367042
     30 H                     0.280930
     31 H                     0.190140
     32 H                     0.156492
     33 H                     0.115619
     34 H                     0.281558
     35 H                     0.283609
     36 H                     0.405398
  ----------------------------------------
  Sum of atomic charges =    -2.000000

                    Cartesian Multipole Moments
 -----------------------------------------------------------------
    Charge (ESU x 10^10)
                -9.6064
    Dipole Moment (Debye)
         X     -45.1600      Y      16.3631      Z      -0.9162
       Tot      48.0418
    Quadrupole Moments (Debye-Ang)
        XX    -399.0523     XY      89.8758     YY    -199.6371
        XZ       0.6279     YZ      15.5734     ZZ    -155.9481

 Total job time:  1528.77s(wall), 11813.11s(cpu)
        *  Thank you very much for using Q-Chem.  Have a nice day.  *
