 Gaussian 16, Revision A.03,
 Gaussian 16:  ES64L-G16RevA.03 25-Dec-2016

 --------------------------------------
 #P UB3LYP/6-311++G(d,p) nosym opt freq
 --------------------------------------

 -------
 Reduced
 -------
 Symbolic Z-matrix:
 Charge = -2 Multiplicity = 1

 SCF Done:  E(UB3LYP) =  -921.273389120     A.U. after   42 cycles
 SCF Done:  E(UB3LYP) =  -921.273433741     A.U. after   52 cycles
 SCF Done:  E(UB3LYP) =  -921.273439718     A.U. after   35 cycles
 SCF Done:  E(UB3LYP) =  -921.273440856     A.U. after   23 cycles
 SCF Done:  E(UB3LYP) =  -921.273441189     A.U. after   21 cycles
 Optimization completed.
    -- Stationary point found.
 Normal termination of Gaussian 16 at Wed Dec 27 21:31:29 2023.

 ----------------------------------------------------------------------
 #P Geom=AllCheck Guess=TCheck SCRF=Check GenChk UB3LYP/6-311++G(d,p) F
 req
 ----------------------------------------------------------------------

 Structure from the checkpoint file:  "134-an.chk"
 -------
 Reduced
 -------
 Charge = -2 Multiplicity = 1

                          Input orientation:
 ---------------------------------------------------------------------
 Center     Atomic      Atomic             Coordinates (Angstroms)
 Number     Number       Type             X           Y           Z
 ---------------------------------------------------------------------
      1          6           0        7.097453   -1.845181   -0.587993
      2          6           0        7.625197   -0.816034   -1.455656
      3          6           0        6.758674    0.252741   -1.896425
      4          6           0        5.453247    0.259742   -1.476026
      5          6           0        4.875916   -0.715021   -0.628864
      6          6           0        5.705324   -1.817585   -0.153283
      7          6           0        5.150135   -2.826186    0.709542
      8          6           0        3.736059   -2.656232    1.054067
      9          6           0        2.934096   -1.567067    0.578560
     10          6           0        3.484446   -0.539558   -0.294599
     11          6           0        3.123870   -3.613005    1.899426
     12          6           0        1.795163   -3.522800    2.269991
     13          6           0        1.005288   -2.444569    1.797896
     14          6           0        1.577052   -1.495941    0.971241
     15          8           0        5.789115   -3.836977    1.183972
     16          8           0        2.763963    0.432449   -0.717416
     17          1           0        4.780836    1.052814   -1.793428
     18          1           0        3.756682   -4.424931    2.242589
     19          1           0        1.006752   -0.655314    0.588390
     20          6           0        7.279175    1.339843   -2.801129
     21          1           0       -0.042005   -2.365996    2.084839
     22          6           0        8.977067   -0.870784   -1.859327
     23          6           0        8.004877   -2.864147   -0.195264
     24          6           0        9.334257   -2.879982   -0.617718
     25          6           0        9.848901   -1.888047   -1.455628
     26          6           0       11.289004   -1.902140   -1.911676
     27          1           0        1.356148   -4.276477    2.921778
     28          1           0        8.115653    1.899874   -2.351929
     29          1           0        6.482200    2.055281   -3.024994
     30          1           0        7.656490    0.947894   -3.759877
     31          1           0        9.358587   -0.089783   -2.511663
     32          1           0        7.611289   -3.634903    0.453613
     33          1           0        9.984322   -3.688424   -0.283378
     34          1           0       11.838327   -1.008352   -1.579789
     35          1           0       11.375870   -1.933997   -3.007947
     36          1           0       11.816241   -2.776744   -1.515236
 ---------------------------------------------------------------------

 SCF Done:  E(UB3LYP) =  -921.273441189     A.U. after    1 cycles

 Alpha  occ. eigenvalues --  -18.79031 -18.78813  -9.98331  -9.96079  -9.95386
 Alpha  occ. eigenvalues --   -9.95105  -9.94951  -9.94565  -9.94212  -9.94166
 Alpha  occ. eigenvalues --   -9.94018  -9.94003  -9.93826  -9.93189  -9.93185
 Alpha  occ. eigenvalues --   -9.92993  -9.92134  -9.91845  -9.91744  -9.91741
 Alpha  occ. eigenvalues --   -9.90849  -9.90338  -0.71035  -0.70617  -0.63241
 Alpha  occ. eigenvalues --   -0.60963  -0.59211  -0.55074  -0.54019  -0.50876
 Alpha  occ. eigenvalues --   -0.50608  -0.49975  -0.47649  -0.45177  -0.41098
 Alpha  occ. eigenvalues --   -0.38709  -0.37625  -0.35812  -0.34449  -0.30857
 Alpha  occ. eigenvalues --   -0.29681  -0.27011  -0.26180  -0.25070  -0.23192
 Alpha  occ. eigenvalues --   -0.23004  -0.21651  -0.21073  -0.20840  -0.20476
 Alpha  occ. eigenvalues --   -0.19996  -0.18362  -0.17703  -0.16846  -0.16558
 Alpha  occ. eigenvalues --   -0.15470  -0.15232  -0.14632  -0.13745  -0.13373
 Alpha  occ. eigenvalues --   -0.12485  -0.11139  -0.10168  -0.09539  -0.09222
 Alpha  occ. eigenvalues --   -0.09179  -0.07458  -0.06374  -0.02803  -0.01198
 Alpha  occ. eigenvalues --   -0.00035   0.00213   0.03136   0.03191   0.04097
 Alpha  occ. eigenvalues --    0.11995
 Alpha virt. eigenvalues --    0.13542   0.15465   0.15523   0.16577   0.16802
 Alpha virt. eigenvalues --    0.17354   0.18426   0.18722   0.19608   0.19966
 Alpha virt. eigenvalues --    0.20166   0.20328   0.20976   0.22029   0.22487

  Beta  occ. eigenvalues --  -18.79031 -18.78813  -9.98331  -9.96079  -9.95386
  Beta  occ. eigenvalues --   -9.95105  -9.94951  -9.94565  -9.94212  -9.94166
  Beta  occ. eigenvalues --   -9.94018  -9.94003  -9.93826  -9.93189  -9.93185
  Beta  occ. eigenvalues --   -9.92993  -9.92134  -9.91845  -9.91744  -9.91741
  Beta  occ. eigenvalues --   -9.90849  -9.90338  -0.71035  -0.70617  -0.63241
  Beta  occ. eigenvalues --   -0.60963  -0.59211  -0.55074  -0.54019  -0.50876
  Beta  occ. eigenvalues --   -0.50608  -0.49975  -0.47649  -0.45177  -0.41098
  Beta  occ. eigenvalues --   -0.38709  -0.37625  -0.35812  -0.34449  -0.30857
  Beta  occ. eigenvalues --   -0.29681  -0.27011  -0.26180  -0.25070  -0.23192
  Beta  occ. eigenvalues --   -0.23004  -0.21651  -0.21073  -0.20840  -0.20476
  Beta  occ. eigenvalues --   -0.19996  -0.18362  -0.17703  -0.16846  -0.16558
  Beta  occ. eigenvalues --   -0.15470  -0.15232  -0.14632  -0.13745  -0.13373
  Beta  occ. eigenvalues --   -0.12485  -0.11139  -0.10168  -0.09539  -0.09222
  Beta  occ. eigenvalues --   -0.09179  -0.07458  -0.06374  -0.02803  -0.01198
  Beta  occ. eigenvalues --   -0.00035   0.00213   0.03136   0.03191   0.04097
  Beta  occ. eigenvalues --    0.11995
  Beta virt. eigenvalues --    0.13542   0.15465   0.15523   0.16577   0.16802
  Beta virt. eigenvalues --    0.17354   0.18426   0.18722   0.19608   0.19966
  Beta virt. eigenvalues --    0.20166   0.20328   0.20976   0.22029   0.22487

 Mulliken charges and spin densities:
               1          2
     1  C    0.771265  -0.000000
     2  C    0.641425   0.000000
     3  C    0.705273  -0.000000
     4  C   -0.254803  -0.000000
     5  C    0.400551   0.000000
     6  C    0.515985   0.000000
     7  C   -0.992719   0.000000
     8  C    0.312940   0.000000
     9  C    0.483759  -0.000000
    10  C   -0.793697  -0.000000
    11  C    0.020886  -0.000000
    12  C   -0.479991  -0.000000
    13  C   -0.318075   0.000000
    14  C   -0.130919  -0.000000
    15  O   -0.450085  -0.000000
    16  O   -0.482684   0.000000
    17  H    0.079541   0.000000
    18  H    0.130519  -0.000000
    19  H    0.126602  -0.000000
    20  C   -0.457084  -0.000000
    21  H    0.081305   0.000000
    22  C   -0.468908  -0.000000
    23  C   -0.938983  -0.000000
    24  C   -1.132269   0.000000
    25  C    0.083873  -0.000000
    26  C   -0.441475   0.000000
    27  H    0.081253   0.000000
    28  H    0.087779  -0.000000
    29  H    0.139429  -0.000000
    30  H    0.085963   0.000000
    31  H    0.032721  -0.000000
    32  H    0.153818  -0.000000
    33  H    0.073112   0.000000
    34  H    0.106029   0.000000
    35  H    0.101812   0.000000
    36  H    0.125851  -0.000000
 Sum of Mulliken charges =  -2.00000   0.00000

 Dipole moment (field-independent basis, Debye):
    X=            -49.4628    Y=             15.8778    Z=              0.8243  Tot=             51.9553
 Quadrupole moment (field-independent basis, Debye-Ang):
   XX=           -473.1423   YY=           -200.7775   ZZ=           -162.9062
   XY=             89.6716   XZ=             22.9232   YZ=             16.1375

  Exact polarizability: 730.392  26.295 133.576-305.512-369.206 -88.865
 Approx polarizability:1270.160  93.128 508.309-388.841-177.540 542.958

                      1                      2                      3
                      A                      A                      A
 Frequencies --     35.7635                41.7746                46.7786
 Red. masses --      1.7522                 1.8758                 4.9038
 Frc consts  --      0.0013                 0.0019                 0.0063
 IR Inten    --      3.9329                 0.0213                 0.4403

                      4                      5                      6
                      A                      A                      A
 Frequencies --     97.5784               131.9060               140.9148
 Red. masses --      3.9349                 4.5517                 3.8715
 Frc consts  --      0.0221                 0.0467                 0.0453
 IR Inten    --      2.2071                 0.1677                 3.1264

                      7                      8                      9
                      A                      A                      A
 Frequencies --    153.1420               170.8525               201.7694
 Red. masses --      4.5677                 4.2994                 3.6827
 Frc consts  --      0.0631                 0.0739                 0.0883
 IR Inten    --      1.9292                26.7202                 1.1200

                     10                     11                     12
                      A                      A                      A
 Frequencies --    235.8916               242.3805               279.8276
 Red. masses --      3.1104                 1.2364                 5.8865
 Frc consts  --      0.1020                 0.0428                 0.2716
 IR Inten    --      0.6749                 3.6938                 5.5829

                     13                     14                     15
                      A                      A                      A
 Frequencies --    288.2356               290.9801               337.5800
 Red. masses --      3.7088                 4.8078                 4.7367
 Frc consts  --      0.1815                 0.2398                 0.3180
 IR Inten    --     19.1932                 3.6860                10.3831

                     16                     17                     18
                      A                      A                      A
 Frequencies --    339.8781               371.2712               390.5528
 Red. masses --      6.5741                 3.7850                10.8392
 Frc consts  --      0.4474                 0.3074                 0.9741
 IR Inten    --      2.7641                 1.0360                 0.7229

                     19                     20                     21
                      A                      A                      A
 Frequencies --    398.4193               436.7092               450.7661
 Red. masses --      4.0262                 5.0565                 3.3847
 Frc consts  --      0.3766                 0.5682                 0.4052
 IR Inten    --     59.7232                 2.4491                 3.1666

                     22                     23                     24
                      A                      A                      A
 Frequencies --    480.1129               490.2092               516.4913
 Red. masses --     10.4578                 5.6898                 5.2352
 Frc consts  --      1.4203                 0.8056                 0.8228
 IR Inten    --     74.9882                 3.8617                 4.7618

                     25                     26                     27
                      A                      A                      A
 Frequencies --    534.1447               536.1714               559.6680
 Red. masses --      5.0030                 3.1212                 5.1961
 Frc consts  --      0.8410                 0.5287                 0.9589
 IR Inten    --      1.3490               110.0370                85.3228

                     28                     29                     30
                      A                      A                      A
 Frequencies --    589.5880               639.0597               646.6531
 Red. masses --      5.9682                 6.1897                 4.0431
 Frc consts  --      1.2223                 1.4894                 0.9961
 IR Inten    --      7.3735                 2.9472               861.6109

                     31                     32                     33
                      A                      A                      A
 Frequencies --    682.4679               684.8489               697.8097
 Red. masses --      6.1534                 4.4379                 1.8347
 Frc consts  --      1.6886                 1.2264                 0.5264
 IR Inten    --      3.3151                32.1234               202.5428

                     34                     35                     36
                      A                      A                      A
 Frequencies --    718.4714               738.7925               756.7464
 Red. masses --      5.4530                 6.5985                 3.0716
 Frc consts  --      1.6584                 2.1220                 1.0364
 IR Inten    --      1.0745                 1.6619                11.5144

                     37                     38                     39
                      A                      A                      A
 Frequencies --    766.3218               788.5344               812.9283
 Red. masses --      2.6489                 1.7161                 1.3980
 Frc consts  --      0.9165                 0.6287                 0.5443
 IR Inten    --     19.8999                41.7576                73.4237

                     40                     41                     42
                      A                      A                      A
 Frequencies --    815.5430               818.5257               835.9856
 Red. masses --      5.8127                 1.6788                 3.1444
 Frc consts  --      2.2778                 0.6627                 1.2947
 IR Inten    --      7.5989                39.1857                19.2536

                     43                     44                     45
                      A                      A                      A
 Frequencies --    881.3746               918.7738               951.8844
 Red. masses --      6.2121                 3.8234                 1.3369
 Frc consts  --      2.8432                 1.9016                 0.7137
 IR Inten    --      2.8701                27.6717                20.8202

                     46                     47                     48
                      A                      A                      A
 Frequencies --    956.5076               965.2550               970.2535
 Red. masses --      1.2691                 1.3374                 1.2625
 Frc consts  --      0.6841                 0.7342                 0.7002
 IR Inten    --      4.2952                 5.4683                38.9086

                     49                     50                     51
                      A                      A                      A
 Frequencies --    990.5875              1004.5984              1015.3423
 Red. masses --      2.1823                 1.6007                 2.7406
 Frc consts  --      1.2617                 0.9518                 1.6647
 IR Inten    --      8.4059                 2.6116               103.6031

                     52                     53                     54
                      A                      A                      A
 Frequencies --   1033.2036              1043.6927              1055.5890
 Red. masses --      2.4976                 1.4569                 1.4939
 Frc consts  --      1.5709                 0.9350                 0.9807
 IR Inten    --     61.7784               147.7137               363.6802

                     55                     56                     57
                      A                      A                      A
 Frequencies --   1076.6988              1087.9139              1113.8794
 Red. masses --      2.3237                 2.9264                 1.9098
 Frc consts  --      1.5871                 2.0407                 1.3961
 IR Inten    --     10.2270                42.8731                66.1686

                     58                     59                     60
                      A                      A                      A
 Frequencies --   1127.6466              1158.4778              1181.3082
 Red. masses --      1.3893                 1.7056                 2.1317
 Frc consts  --      1.0408                 1.3486                 1.7527
 IR Inten    --    228.5270                18.0029                45.5516

                     61                     62                     63
                      A                      A                      A
 Frequencies --   1206.7585              1208.9314              1218.4186
 Red. masses --      2.7001                 2.0241                 1.8658
 Frc consts  --      2.3167                 1.7430                 1.6320
 IR Inten    --    508.2269                11.3790                58.4759

                     64                     65                     66
                      A                      A                      A
 Frequencies --   1255.0513              1265.9945              1290.6658
 Red. masses --      3.4850                 2.6479                 2.5949
 Frc consts  --      3.2343                 2.5005                 2.5468
 IR Inten    --     68.5186               113.4242                14.3584

                     67                     68                     69
                      A                      A                      A
 Frequencies --   1323.2946              1339.1237              1357.2981
 Red. masses --      5.3051                 4.9835                 7.2280
 Frc consts  --      5.4734                 5.2653                 7.8455
 IR Inten    --    484.9059               122.4335               184.8426

                     70                     71                     72
                      A                      A                      A
 Frequencies --   1377.1349              1379.8174              1389.9688
 Red. masses --      2.6714                 1.6628                 1.2963
 Frc consts  --      2.9850                 1.8652                 1.4756
 IR Inten    --    125.4867                57.4105                24.3364

                     73                     74                     75
                      A                      A                      A
 Frequencies --   1401.5954              1432.2466              1454.5746
 Red. masses --      1.9401                 4.9508                 3.9226
 Frc consts  --      2.2455                 5.9836                 4.8898
 IR Inten    --     87.7855               167.2193                17.6434

                     76                     77                     78
                      A                      A                      A
 Frequencies --   1463.6063              1466.7171              1469.5476
 Red. masses --      3.2337                 3.0264                 1.0480
 Frc consts  --      4.0813                 3.8359                 1.3335
 IR Inten    --    100.7990                60.0401                 0.1869

                     79                     80                     81
                      A                      A                      A
 Frequencies --   1472.5630              1485.3273              1491.8569
 Red. masses --      1.0465                 2.2266                 1.4033
 Frc consts  --      1.3370                 2.8942                 1.8402
 IR Inten    --    132.5695               190.5393                46.3083

                     82                     83                     84
                      A                      A                      A
 Frequencies --   1495.8910              1511.7581              1550.9437
 Red. masses --      1.5070                 2.8422                 4.4604
 Frc consts  --      1.9868                 3.8271                 6.3215
 IR Inten    --    147.9188               119.9656               146.9024

                     85                     86                     87
                      A                      A                      A
 Frequencies --   1578.2814              1588.0732              1595.1088
 Red. masses --      6.6974                 5.5682                 5.4811
 Frc consts  --      9.8293                 8.2738                 8.2168
 IR Inten    --    555.5333                22.3464                 8.0190

                     88                     89                     90
                      A                      A                      A
 Frequencies --   1616.0766              2930.6161              2937.3092
 Red. masses --      5.6961                 1.0426                 1.0984
 Frc consts  --      8.7649                 5.2757                 5.5836
 IR Inten    --     77.3578               458.5310                13.9564

                     91                     92                     93
                      A                      A                      A
 Frequencies --   2951.6016              3046.0548              3058.4122
 Red. masses --      1.0400                 1.0931                 1.0906
 Frc consts  --      5.3382                 5.9759                 6.0104
 IR Inten    --    995.9204                45.6106                36.1366

                     94                     95                     96
                      A                      A                      A
 Frequencies --   3092.2805              3094.8241              3116.2726
 Red. masses --      1.0828                 1.0875                 1.0910
 Frc consts  --      6.1003                 6.1372                 6.2425
 IR Inten    --     32.1633               104.7787               176.6134

                     97                     98                     99
                      A                      A                      A
 Frequencies --   3132.8550              3138.7631              3160.4171
 Red. masses --      1.0866                 1.0881                 1.0906
 Frc consts  --      6.2837                 6.3157                 6.4180
 IR Inten    --     29.1134                22.5652                48.5057

                    100                    101                    102
                      A                      A                      A
 Frequencies --   3165.9293              3184.9469              3187.5932
 Red. masses --      1.0907                 1.0919                 1.0956
 Frc consts  --      6.4409                 6.5258                 6.5591
 IR Inten    --     67.9654               266.6981             24779.3447

 - Thermochemistry -
 -------------------
 Temperature   298.150 Kelvin.  Pressure   1.00000 Atm.
 Atom     1 has atomic number  6 and mass  12.00000

 Molecular mass:   286.09938 amu.
 Principal axes and moments of inertia in atomic units:
                           1         2         3
     Eigenvalues --  2953.955599708.81775**********
           X            0.91572  -0.30616   0.26025
           Y            0.12449   0.83195   0.54071
           Z           -0.38206  -0.46274   0.79994
 This molecule is an asymmetric top.
 Rotational symmetry number  1.
 Warning -- assumption of classical behavior for rotation
           may cause significant error
 Rotational temperatures (Kelvin)      0.02932     0.00892     0.00685
 Rotational constants (GHZ):           0.61096     0.18589     0.14278
 Zero-point vibrational energy     721405.2 (Joules/Mol)
                                  172.41998 (Kcal/Mol)
 Warning -- explicit consideration of  28 degrees of freedom as
           vibrations may cause significant error
 Vibrational temperatures:     51.46    60.10    67.30   140.39   189.78
          (Kelvin)            202.74   220.34   245.82   290.30   339.40
                              348.73   402.61   414.71   418.66   485.70
                              489.01   534.18   561.92   573.24   628.33
                              648.55   690.78   705.30   743.12   768.52
                              771.43   805.24   848.29   919.46   930.39
                              981.92   985.34  1003.99  1033.72  1062.96
                             1088.79  1102.57  1134.53  1169.62  1173.38
                             1177.68  1202.80  1268.10  1321.91  1369.55
                             1376.20  1388.79  1395.98  1425.23  1445.39
                             1460.85  1486.55  1501.64  1518.76  1549.13
                             1565.27  1602.62  1622.43  1666.79  1699.64
                             1736.26  1739.38  1753.03  1805.74  1821.48
                             1856.98  1903.93  1926.70  1952.85  1981.39
                             1985.25  1999.86  2016.58  2060.68  2092.81
                             2105.80  2110.28  2114.35  2118.69  2137.05
                             2146.45  2152.25  2175.08  2231.46  2270.79
                             2284.88  2295.01  2325.17  4216.50  4226.13
                             4246.70  4382.59  4400.37  4449.10  4452.76
                             4483.62  4507.48  4515.98  4547.14  4555.07
                             4582.43  4586.24

 Zero-point correction=                           0.274769 (Hartree/Particle)
 Thermal correction to Energy=                    0.292261
 Thermal correction to Enthalpy=                  0.293205
 Thermal correction to Gibbs Free Energy=         0.229396
 Sum of electronic and zero-point Energies=           -920.998672
 Sum of electronic and thermal Energies=              -920.981180
 Sum of electronic and thermal Enthalpies=            -920.980236
 Sum of electronic and thermal Free Energies=         -921.044045

                     E (Thermal)             CV                S
                      KCal/Mol        Cal/Mol-Kelvin    Cal/Mol-Kelvin
 Total                  183.397             70.647            134.297
 Electronic               0.000              0.000              0.000
 Translational            0.889              2.981             42.851
 Rotational               0.889              2.981             34.249
 Vibrational            181.619             64.685             57.197
 Vibration     1          0.594              1.982              5.481
 Vibration     2          0.594              1.980              5.173
 Vibration     3          0.595              1.979              4.949
 Vibration     4          0.603              1.951              3.502
 Vibration     5          0.612              1.921              2.918
 Vibration     6          0.615              1.912              2.791
 Vibration     7          0.619              1.899              2.633
 Vibration     8          0.626              1.878              2.426
 Vibration     9          0.639              1.837              2.117
 Vibration    10          0.655              1.786              1.834
 Vibration    11          0.659              1.775              1.785
 Vibration    12          0.680              1.711              1.535
 Vibration    13          0.685              1.696              1.484
 Vibration    14          0.687              1.691              1.468
 Vibration    15          0.718              1.600              1.224
 Vibration    16          0.720              1.596              1.213
 Vibration    17          0.743              1.531              1.075
 Vibration    18          0.758              1.490              0.998
 Vibration    19          0.765              1.474              0.968
 Vibration    20          0.797              1.390              0.837
 Vibration    21          0.810              1.359              0.793
 Vibration    22          0.836              1.294              0.710
 Vibration    23          0.846              1.272              0.683
 Vibration    24          0.872              1.213              0.618
 Vibration    25          0.889              1.174              0.578
 Vibration    26          0.891              1.170              0.574
 Vibration    27          0.915              1.119              0.524
 Vibration    28          0.947              1.054              0.468

 Optimization completed.
    -- Stationary point found.
 Normal termination of Gaussian 16 at Wed Dec 27 22:51:43 2023.
