 Q-Chem 5.4, Q-Chem, Inc., Pleasanton, CA (2021)
 Q-Chem 5.4.0 for Intel X86 EM64T Linux

User input:
--------------------------------------------------------------
$molecule
0 1
C                 -2.5499930000     -2.7176760000      0.3287160000
O                 -2.4324740000     -1.3435130000     -0.0899470000
C                 -1.2480470000     -0.7086870000     -0.0704490000
C                 -1.2468870000      0.6312000000      0.2244750000
O                 -2.4134140000      1.1930790000      0.5844980000
C                 -2.7278130000      2.5540960000      0.2291950000
C                  0.0208390000      1.4011120000      0.3010020000
O                  0.0324010000      2.5510430000      0.7159270000
C                  1.2818890000      0.7154950000     -0.1057320000
C                  2.4837610000      1.4237880000     -0.0928670000
C                  3.6693480000      0.7866270000     -0.4508390000
C                  3.6576570000     -0.5593080000     -0.8195270000
C                  2.4602150000     -1.2704530000     -0.8317460000
C                  1.2707360000     -0.6364010000     -0.4719750000
C                 -0.0098390000     -1.4009370000     -0.5100200000
O                 -0.0465840000     -2.5517500000     -0.9210270000
H                 -2.2792930000     -3.3970310000     -0.4764010000
H                 -1.9225560000     -2.9124320000      1.2012600000
H                 -3.5983820000     -2.8365600000      0.5998200000
H                 -2.2823420000      3.2551590000      0.9313700000
H                 -3.8152870000      2.6066180000      0.2666560000
H                 -2.3857410000      2.7796570000     -0.7832440000
H                  2.4703370000      2.4663730000      0.1997250000
H                  4.6024660000      1.3382760000     -0.4412820000
H                  4.5813880000     -1.0533000000     -1.0984630000
H                  2.4276160000     -2.3144760000     -1.1176240000
$end

$rem
BASIS  =  6-311++G(d,p)
GUI  =  2
JOB_TYPE  =  SP
METHOD  =  B3LYP
SCF_CONVERGENCE  = 8
SOLVENT_METHOD = sm12
$end

$smx
solvent dimethylformamide
charges CM5
$end

--------------------------------------------------------------

             Standard Nuclear Orientation (Angstroms)
    I     Atom           X                Y                Z
 ----------------------------------------------------------------
    1      C      -2.5499930000    -2.7176760000     0.3287160000
    2      O      -2.4324740000    -1.3435130000    -0.0899470000
    3      C      -1.2480470000    -0.7086870000    -0.0704490000
    4      C      -1.2468870000     0.6312000000     0.2244750000
    5      O      -2.4134140000     1.1930790000     0.5844980000
    6      C      -2.7278130000     2.5540960000     0.2291950000
    7      C       0.0208390000     1.4011120000     0.3010020000
    8      O       0.0324010000     2.5510430000     0.7159270000
    9      C       1.2818890000     0.7154950000    -0.1057320000
   10      C       2.4837610000     1.4237880000    -0.0928670000
   11      C       3.6693480000     0.7866270000    -0.4508390000
   12      C       3.6576570000    -0.5593080000    -0.8195270000
   13      C       2.4602150000    -1.2704530000    -0.8317460000
   14      C       1.2707360000    -0.6364010000    -0.4719750000
   15      C      -0.0098390000    -1.4009370000    -0.5100200000
   16      O      -0.0465840000    -2.5517500000    -0.9210270000
   17      H      -2.2792930000    -3.3970310000    -0.4764010000
   18      H      -1.9225560000    -2.9124320000     1.2012600000
   19      H      -3.5983820000    -2.8365600000     0.5998200000
   20      H      -2.2823420000     3.2551590000     0.9313700000
   21      H      -3.8152870000     2.6066180000     0.2666560000
   22      H      -2.3857410000     2.7796570000    -0.7832440000
   23      H       2.4703370000     2.4663730000     0.1997250000
   24      H       4.6024660000     1.3382760000    -0.4412820000
   25      H       4.5813880000    -1.0533000000    -1.0984630000
   26      H       2.4276160000    -2.3144760000    -1.1176240000
 ----------------------------------------------------------------

   15    -764.3626802255      4.30e-09  Convergence criterion met
 Total energy in the final basis set =     -764.3773458951

                    Orbital Energies (a.u.)
 --------------------------------------------------------------

 Alpha MOs
 -- Occupied --
-19.1636 -19.1636 -19.1309 -19.1309 -10.2839 -10.2839 -10.2595 -10.2589
-10.2184 -10.2184 -10.2076 -10.2071 -10.1967 -10.1966 -10.1960 -10.1956
 -1.0961  -1.0785  -1.0598  -1.0534  -0.8897  -0.8329  -0.7787  -0.7774
 -0.7293  -0.7065  -0.6829  -0.6337  -0.6276  -0.5923  -0.5634  -0.5443
 -0.5263  -0.4975  -0.4936  -0.4907  -0.4688  -0.4632  -0.4595  -0.4507
 -0.4503  -0.4407  -0.4345  -0.4176  -0.4118  -0.3840  -0.3833  -0.3693
 -0.3688  -0.3636  -0.3339  -0.3285  -0.2848  -0.2790  -0.2758  -0.2757
 -0.2370

          Ground-State Mulliken Net Atomic Charges

     Atom                 Charge (a.u.)
  ----------------------------------------
      1 C                    -0.211744
      2 O                    -0.182613
      3 C                    -0.267313
      4 C                    -0.258587
      5 O                    -0.183945
      6 C                    -0.211648
      7 C                    -0.981536
      8 O                    -0.254029
      9 C                     0.233782
     10 C                     0.194140
     11 C                     0.373152
     12 C                     0.372022
     13 C                     0.193255
     14 C                     0.240742
     15 C                    -0.984109
     16 O                    -0.254403
     17 H                     0.182457
     18 H                     0.185046
     19 H                     0.210147
     20 H                     0.182586
     21 H                     0.210293
     22 H                     0.184898
     23 H                     0.193587
     24 H                     0.320330
     25 H                     0.320099
     26 H                     0.193389
  ----------------------------------------
  Sum of atomic charges =     0.000000

                    Cartesian Multipole Moments
 -----------------------------------------------------------------
    Charge (ESU x 10^10)
                -0.0000
    Dipole Moment (Debye)
         X       1.7806      Y       0.0589      Z      -0.2570
       Tot       1.8000
    Quadrupole Moments (Debye-Ang)
        XX     -74.9803     XY      -0.3510     YY     -92.3360
        XZ      -2.9816     YZ      -6.2035     ZZ     -95.1402

 Total job time:  469.43s(wall), 3635.95s(cpu)
        *  Thank you very much for using Q-Chem.  Have a nice day.  *
