 Q-Chem 5.4, Q-Chem, Inc., Pleasanton, CA (2021)
 Q-Chem 5.4.0 for Intel X86 EM64T Linux

User input:
--------------------------------------------------------------
$molecule
-1 2
C                  5.4100280000     -3.7686130000     -2.5262720000
O                  4.6033830000     -2.8502750000     -1.8213220000
C                  5.1728310000     -2.0799700000     -0.8505810000
C                  6.5208180000     -2.1786790000     -0.5359010000
C                  7.0795900000     -1.3693670000      0.4710650000
C                  6.2933780000     -0.4712230000      1.1530080000
C                  4.9203830000     -0.3480480000      0.8574720000
C                  4.1642530000      0.6492160000      1.6447320000
O                  4.7570220000      1.3305280000      2.5040890000
C                  2.7332220000      0.7763840000      1.3530930000
C                  1.8995720000      1.6979650000      2.0421130000
O                  2.4598550000      2.5004700000      3.0105660000
C                  0.5426700000      1.8181540000      1.7421450000
C                 -0.2858550000      2.9053710000      2.3977830000
C                 -1.4593210000      3.3251200000      1.5151340000
O                 -2.2047810000      4.3108290000      2.2648330000
C                 -2.3119380000      2.1004670000      1.2140680000
C                 -1.5402950000      0.9929240000      0.4810120000
O                 -2.1561470000     -0.2689680000      0.8782990000
C                 -2.7511250000     -1.0039050000     -0.1280540000
C                 -2.9430730000     -2.4369970000      0.3502070000
C                 -3.7600910000     -3.2688010000     -0.6637360000
N                 -3.0235210000     -3.6689020000     -1.8770290000
C                 -5.0408140000     -2.5025830000     -1.0648470000
O                 -5.9625100000     -2.4503480000      0.0275210000
C                 -4.6840840000     -1.0815140000     -1.5302690000
C                 -5.8781830000     -0.2448060000     -1.9628500000
O                 -4.0407230000     -0.4098730000     -0.4387620000
C                 -0.0581140000      0.9659300000      0.7838920000
C                  0.7417510000      0.0695680000      0.0736260000
O                  0.1713960000     -0.6943760000     -0.8753410000
C                  2.1426840000     -0.0401170000      0.3378630000
C                  2.9079220000     -1.0065410000     -0.4371920000
O                  2.3144960000     -1.7018840000     -1.3388630000
C                  4.3237700000     -1.1527320000     -0.1555370000
C                 -1.0427880000      4.0690100000      0.2238130000
O                 -1.7604890000      4.0583350000     -0.7588820000
C                  0.2117450000      4.9231150000      0.2101180000
O                  0.2909640000      5.6997560000     -0.9628430000
H                  4.7441970000     -4.2570110000     -3.2381290000
H                  5.8461890000     -4.5260370000     -1.8620680000
H                  6.2189140000     -3.2680830000     -3.0741120000
H                  7.1558360000     -2.8781780000     -1.0618050000
H                  8.1364800000     -1.4625990000      0.7007520000
H                  6.6919710000      0.1670280000      1.9306240000
H                  1.7523560000      2.8843600000      3.5356420000
H                  0.3238790000      3.7873480000      2.6196460000
H                 -0.7213550000      2.5831310000      3.3533090000
H                 -3.0423840000      4.4539820000      1.8078980000
H                 -3.1957250000      2.3715280000      0.6318740000
H                 -2.6502780000      1.7012350000      2.1736900000
H                 -1.6800100000      1.0981440000     -0.5979920000
H                 -2.1412970000     -0.9608190000     -1.0387480000
H                 -1.9624500000     -2.8904040000      0.5148080000
H                 -3.4554850000     -2.4020560000      1.3175660000
H                 -4.0909670000     -4.1916550000     -0.1796690000
H                 -2.4734060000     -2.9000250000     -2.2482170000
H                 -2.3558310000     -4.3983350000     -1.6485790000
H                 -5.5379000000     -3.0528440000     -1.8665750000
H                 -5.6558800000     -1.7481140000      0.6161090000
H                 -3.9805080000     -1.1566490000     -2.3734910000
H                 -6.3741260000     -0.7095020000     -2.8198000000
H                 -5.5471930000      0.7554880000     -2.2500240000
H                 -6.6050820000     -0.1549410000     -1.1536430000
H                  0.9749980000     -1.2501090000     -1.2483670000
H                  0.2055690000      5.5769270000      1.0901880000
H                  1.0802770000      4.2560770000      0.3015240000
H                 -0.4186710000      5.3774970000     -1.5405870000
$end

$rem
BASIS  =  6-311++G(d,p)
GUI  =  2
JOB_TYPE  =  SP
METHOD  =  B3LYP
SCF_CONVERGENCE  = 8
SOLVENT_METHOD = sm12
$end

$smx
solvent dimethylformamide
charges CM5
$end

--------------------------------------------------------------

             Standard Nuclear Orientation (Angstroms)
    I     Atom           X                Y                Z
 ----------------------------------------------------------------
    1      C       5.4100280000    -3.7686130000    -2.5262720000
    2      O       4.6033830000    -2.8502750000    -1.8213220000
    3      C       5.1728310000    -2.0799700000    -0.8505810000
    4      C       6.5208180000    -2.1786790000    -0.5359010000
    5      C       7.0795900000    -1.3693670000     0.4710650000
    6      C       6.2933780000    -0.4712230000     1.1530080000
    7      C       4.9203830000    -0.3480480000     0.8574720000
    8      C       4.1642530000     0.6492160000     1.6447320000
    9      O       4.7570220000     1.3305280000     2.5040890000
   10      C       2.7332220000     0.7763840000     1.3530930000
   11      C       1.8995720000     1.6979650000     2.0421130000
   12      O       2.4598550000     2.5004700000     3.0105660000
   13      C       0.5426700000     1.8181540000     1.7421450000
   14      C      -0.2858550000     2.9053710000     2.3977830000
   15      C      -1.4593210000     3.3251200000     1.5151340000
   16      O      -2.2047810000     4.3108290000     2.2648330000
   17      C      -2.3119380000     2.1004670000     1.2140680000
   18      C      -1.5402950000     0.9929240000     0.4810120000
   19      O      -2.1561470000    -0.2689680000     0.8782990000
   20      C      -2.7511250000    -1.0039050000    -0.1280540000
   21      C      -2.9430730000    -2.4369970000     0.3502070000
   22      C      -3.7600910000    -3.2688010000    -0.6637360000
   23      N      -3.0235210000    -3.6689020000    -1.8770290000
   24      C      -5.0408140000    -2.5025830000    -1.0648470000
   25      O      -5.9625100000    -2.4503480000     0.0275210000
   26      C      -4.6840840000    -1.0815140000    -1.5302690000
   27      C      -5.8781830000    -0.2448060000    -1.9628500000
   28      O      -4.0407230000    -0.4098730000    -0.4387620000
   29      C      -0.0581140000     0.9659300000     0.7838920000
   30      C       0.7417510000     0.0695680000     0.0736260000
   31      O       0.1713960000    -0.6943760000    -0.8753410000
   32      C       2.1426840000    -0.0401170000     0.3378630000
   33      C       2.9079220000    -1.0065410000    -0.4371920000
   34      O       2.3144960000    -1.7018840000    -1.3388630000
   35      C       4.3237700000    -1.1527320000    -0.1555370000
   36      C      -1.0427880000     4.0690100000     0.2238130000
   37      O      -1.7604890000     4.0583350000    -0.7588820000
   38      C       0.2117450000     4.9231150000     0.2101180000
   39      O       0.2909640000     5.6997560000    -0.9628430000
   40      H       4.7441970000    -4.2570110000    -3.2381290000
   41      H       5.8461890000    -4.5260370000    -1.8620680000
   42      H       6.2189140000    -3.2680830000    -3.0741120000
   43      H       7.1558360000    -2.8781780000    -1.0618050000
   44      H       8.1364800000    -1.4625990000     0.7007520000
   45      H       6.6919710000     0.1670280000     1.9306240000
   46      H       1.7523560000     2.8843600000     3.5356420000
   47      H       0.3238790000     3.7873480000     2.6196460000
   48      H      -0.7213550000     2.5831310000     3.3533090000
   49      H      -3.0423840000     4.4539820000     1.8078980000
   50      H      -3.1957250000     2.3715280000     0.6318740000
   51      H      -2.6502780000     1.7012350000     2.1736900000
   52      H      -1.6800100000     1.0981440000    -0.5979920000
   53      H      -2.1412970000    -0.9608190000    -1.0387480000
   54      H      -1.9624500000    -2.8904040000     0.5148080000
   55      H      -3.4554850000    -2.4020560000     1.3175660000
   56      H      -4.0909670000    -4.1916550000    -0.1796690000
   57      H      -2.4734060000    -2.9000250000    -2.2482170000
   58      H      -2.3558310000    -4.3983350000    -1.6485790000
   59      H      -5.5379000000    -3.0528440000    -1.8665750000
   60      H      -5.6558800000    -1.7481140000     0.6161090000
   61      H      -3.9805080000    -1.1566490000    -2.3734910000
   62      H      -6.3741260000    -0.7095020000    -2.8198000000
   63      H      -5.5471930000     0.7554880000    -2.2500240000
   64      H      -6.6050820000    -0.1549410000    -1.1536430000
   65      H       0.9749980000    -1.2501090000    -1.2483670000
   66      H       0.2055690000     5.5769270000     1.0901880000
   67      H       1.0802770000     4.2560770000     0.3015240000
   68      H      -0.4186710000     5.3774970000    -1.5405870000
 ----------------------------------------------------------------

   18   -1929.1434735636      9.00e-09  Convergence criterion met
 Total energy in the final basis set =    -1929.2454428334

                    Orbital Energies (a.u.)
 --------------------------------------------------------------

 Alpha MOs
 -- Occupied --
-19.1494 -19.1446 -19.1442 -19.1416 -19.1280 -19.1264 -19.1222 -19.1189
-19.1139 -19.0843 -19.0676 -14.2905 -10.2786 -10.2602 -10.2519 -10.2428
-10.2336 -10.2321 -10.2314 -10.2313 -10.2283 -10.2252 -10.2215 -10.2158
-10.2151 -10.1987 -10.1902 -10.1867 -10.1815 -10.1791 -10.1782 -10.1769
-10.1766 -10.1740 -10.1730 -10.1727 -10.1655 -10.1625 -10.1577  -1.0831
 -1.0691  -1.0669  -1.0572  -1.0456  -1.0432  -1.0276  -1.0270  -1.0029
 -0.9997  -0.9970  -0.8860  -0.8662  -0.8575  -0.8263  -0.7861  -0.7831
 -0.7654  -0.7611  -0.7527  -0.7486  -0.7359  -0.7206  -0.6990  -0.6937
 -0.6693  -0.6636  -0.6441  -0.6339  -0.6180  -0.6138  -0.6038  -0.5912
 -0.5712  -0.5675  -0.5659  -0.5570  -0.5463  -0.5357  -0.5229  -0.5184
 -0.5132  -0.4995  -0.4983  -0.4962  -0.4882  -0.4825  -0.4802  -0.4785
 -0.4721  -0.4676  -0.4668  -0.4660  -0.4632  -0.4532  -0.4450  -0.4397
 -0.4381  -0.4360  -0.4317  -0.4255  -0.4174  -0.4166  -0.4091  -0.4036
 -0.4002  -0.3994  -0.3962  -0.3938  -0.3908  -0.3891  -0.3867  -0.3844
 -0.3804  -0.3756  -0.3724  -0.3685  -0.3645  -0.3620  -0.3603  -0.3572
 -0.3555  -0.3536  -0.3491  -0.3414  -0.3350  -0.3303  -0.3217  -0.3197
 -0.3192  -0.3140  -0.3021  -0.2896  -0.2890  -0.2787  -0.2697  -0.2667
 -0.2551  -0.2501  -0.2436  -0.2415  -0.2329  -0.2272  -0.2097  -0.1382

 Beta MOs
 -- Occupied --
-19.1493 -19.1444 -19.1442 -19.1416 -19.1280 -19.1263 -19.1222 -19.1189
-19.1136 -19.0793 -19.0620 -14.2905 -10.2786 -10.2602 -10.2519 -10.2426
-10.2321 -10.2314 -10.2313 -10.2312 -10.2281 -10.2244 -10.2215 -10.2158
-10.2151 -10.1987 -10.1902 -10.1857 -10.1813 -10.1782 -10.1776 -10.1767
-10.1755 -10.1730 -10.1727 -10.1726 -10.1657 -10.1625 -10.1577  -1.0831
 -1.0688  -1.0667  -1.0565  -1.0435  -1.0431  -1.0275  -1.0270  -1.0024
 -0.9910  -0.9893  -0.8860  -0.8643  -0.8557  -0.8251  -0.7857  -0.7801
 -0.7652  -0.7596  -0.7523  -0.7471  -0.7350  -0.7189  -0.6985  -0.6936
 -0.6648  -0.6621  -0.6422  -0.6333  -0.6171  -0.6136  -0.6029  -0.5900
 -0.5700  -0.5667  -0.5658  -0.5566  -0.5461  -0.5344  -0.5228  -0.5171
 -0.5128  -0.4991  -0.4979  -0.4956  -0.4871  -0.4820  -0.4797  -0.4784
 -0.4711  -0.4672  -0.4659  -0.4652  -0.4627  -0.4521  -0.4441  -0.4381
 -0.4377  -0.4338  -0.4297  -0.4240  -0.4165  -0.4121  -0.4071  -0.4025
 -0.3993  -0.3966  -0.3929  -0.3921  -0.3902  -0.3874  -0.3859  -0.3830
 -0.3798  -0.3750  -0.3688  -0.3654  -0.3639  -0.3605  -0.3576  -0.3535
 -0.3522  -0.3473  -0.3452  -0.3411  -0.3338  -0.3298  -0.3216  -0.3191
 -0.3148  -0.3137  -0.2959  -0.2890  -0.2887  -0.2782  -0.2683  -0.2547
 -0.2508  -0.2442  -0.2413  -0.2397  -0.2263  -0.2223  -0.2012

          Ground-State Mulliken Net Atomic Charges

     Atom                 Charge (a.u.)    Spin (a.u.)
  --------------------------------------------------------
      1 C                     0.127465      -0.000769
      2 O                    -0.107970       0.003335
      3 C                     0.030917       0.026958
      4 C                     1.644001       0.038405
      5 C                     0.597641       0.068778
      6 C                    -0.692289       0.010077
      7 C                    -0.964413       0.093991
      8 C                    -1.740924       0.024440
      9 O                    -0.321121       0.212275
     10 C                    -0.629603       0.032996
     11 C                    -0.919572       0.018630
     12 O                    -0.145575       0.005475
     13 C                    -0.932184       0.065954
     14 C                     1.417517       0.001999
     15 C                     1.941234      -0.002857
     16 O                    -0.088602      -0.000072
     17 C                     0.370664      -0.007198
     18 C                    -1.325767      -0.005834
     19 O                     0.139497       0.000776
     20 C                     0.202176       0.002618
     21 C                    -0.453652       0.004349
     22 C                     0.409670      -0.000969
     23 N                    -0.372721       0.000040
     24 C                    -0.328803      -0.000043
     25 O                    -0.183126      -0.000001
     26 C                    -0.035322      -0.000231
     27 C                    -0.226024       0.000414
     28 O                     0.022394      -0.000296
     29 C                    -0.509299       0.075715
     30 C                    -1.311888       0.003191
     31 O                    -0.303382       0.012122
     32 C                     0.070023       0.008790
     33 C                    -0.720057       0.125606
     34 O                    -0.369438       0.185189
     35 C                    -0.580986      -0.004563
     36 C                    -0.287060       0.000948
     37 O                    -0.280777       0.000591
     38 C                    -0.472857      -0.001223
     39 O                    -0.308746       0.000047
     40 H                     0.274594      -0.000190
     41 H                     0.217965       0.000561
     42 H                     0.217575       0.000506
     43 H                     0.354249      -0.002606
     44 H                     0.325342      -0.004731
     45 H                     0.071303      -0.000752
     46 H                     0.305216      -0.000828
     47 H                     0.349032       0.001628
     48 H                     0.307286       0.004922
     49 H                     0.304097      -0.000077
     50 H                     0.295065      -0.000116
     51 H                     0.190106       0.000081
     52 H                     0.114738       0.002449
     53 H                     0.099295       0.000841
     54 H                     0.131145       0.000115
     55 H                     0.113552      -0.000024
     56 H                     0.203735      -0.000004
     57 H                     0.241181       0.000028
     58 H                     0.301692       0.000003
     59 H                     0.164882       0.000024
     60 H                     0.248094       0.000004
     61 H                     0.087340      -0.000076
     62 H                     0.186697      -0.000001
     63 H                     0.149247       0.000005
     64 H                     0.126720       0.000027
     65 H                     0.580575      -0.001430
     66 H                     0.242414      -0.000074
     67 H                     0.183070       0.000092
     68 H                     0.252751      -0.000033
  --------------------------------------------------------
  Sum of atomic charges =    -1.000000

                    Cartesian Multipole Moments
 -----------------------------------------------------------------
    Charge (ESU x 10^10)
                -4.8032
    Dipole Moment (Debye)
         X     -10.3224      Y      -2.5037      Z      -2.8093
       Tot      10.9869
    Quadrupole Moments (Debye-Ang)
        XX    -317.6365     XY     -33.2291     YY    -259.6844
        XZ     -28.7075     YZ       2.6786     ZZ    -247.6677

 Total job time:  10419.27s(wall), 43998.57s(cpu)
        *  Thank you very much for using Q-Chem.  Have a nice day.  *
