 Gaussian 16, Revision A.03,
 Gaussian 16:  ES64L-G16RevA.03 25-Dec-2016

 ----------------------------------------------------------------
 #P UB3LYP/6-311++G(d,p) SCRF=(PCM,Solvent=n,n-DiMethylFormamide)
 ----------------------------------------------------------------

 ------------------
 Radical PCM in DMF
 ------------------
 Symbolic Z-matrix:
 Charge = -1 Multiplicity = 2

                         Standard orientation:
 ---------------------------------------------------------------------
 Center     Atomic      Atomic             Coordinates (Angstroms)
 Number     Number       Type             X           Y           Z
 ---------------------------------------------------------------------
      1          6           0       -5.710103   -0.447362   -0.861216
      2          6           0       -6.201010   -1.724576   -0.663501
      3          6           0       -5.420754   -2.683470    0.013833
      4          6           0       -4.429157   -0.083994   -0.391864
      5          6           0       -3.639024   -1.051757    0.292536
      6          6           0       -4.161338   -2.343314    0.480572
      7          6           0       -3.916092    1.253647   -0.599169
      8          6           0       -2.595146    1.530340   -0.083256
      9          6           0       -1.807104    0.620038    0.588819
     10          6           0       -2.290476   -0.726783    0.803811
     11          8           0       -4.536581    2.193864   -1.196123
     12          8           0       -1.599078   -1.591852    1.402843
     13          1           0       -6.291337    0.307284   -1.379093
     14          1           0       -7.188377   -1.990285   -1.030176
     15          1           0       -5.807143   -3.686488    0.168697
     16          1           0       -3.539293   -3.060667    1.003932
     17          8           0       -2.177206    2.808422   -0.317634
     18          1           0       -2.948344    3.188984   -0.793752
     19          6           0       -0.434787    0.984453    1.095479
     20          6           0        0.687339    0.560486    0.125817
     21          6           0        2.119808    0.771299    0.654711
     22          6           0        3.137123    0.085581   -0.279270
     23          6           0        4.577435    0.011792    0.246708
     24          6           0        5.514075   -0.763445   -0.689395
     25          6           0        6.950979   -0.967986   -0.172452
     26          6           0        7.724820   -1.927316   -1.088388
     27          6           0        2.443506    2.259890    0.857937
     28          6           0        7.715100    0.354855   -0.014796
     29          1           0       -0.275212    0.469425    2.048916
     30          1           0       -0.393678    2.061815    1.273327
     31          1           0        0.567522    1.100834   -0.822449
     32          1           0        0.548374   -0.502528   -0.093723
     33          1           0        2.182948    0.272571    1.633202
     34          1           0        3.131640    0.600348   -1.250555
     35          1           0        2.786473   -0.934844   -0.476241
     36          1           0        4.573461   -0.473754    1.232196
     37          1           0        4.966917    1.022441    0.403603
     38          1           0        5.557300   -0.256196   -1.663726
     39          1           0        5.073324   -1.749449   -0.883549
     40          1           0        6.881824   -1.436228    0.819464
     41          1           0        7.216406   -2.892439   -1.173806
     42          1           0        8.735986   -2.111935   -0.711131
     43          1           0        7.818042   -1.511139   -2.098081
     44          1           0        3.441336    2.410655    1.281138
     45          1           0        1.727821    2.733443    1.533364
     46          1           0        2.398169    2.796202   -0.097366
     47          1           0        7.224756    1.029140    0.691056
     48          1           0        7.789403    0.875577   -0.976677
     49          1           0        8.733419    0.179507    0.347249
 ---------------------------------------------------------------------

 SCF Done:  E(UB3LYP) =  -1003.91306183     A.U. after   20 cycles

 The electronic state is 2-A.
 Alpha  occ. eigenvalues --  -19.14242 -19.08507 -19.07293 -10.22192 -10.22026
 Alpha  occ. eigenvalues --  -10.21977 -10.17392 -10.17248 -10.17170 -10.17137
 Alpha  occ. eigenvalues --  -10.17058 -10.16907 -10.16857 -10.16492 -10.16142
 Alpha  occ. eigenvalues --  -10.15683 -10.15681 -10.15652 -10.15560 -10.15433
 Alpha  occ. eigenvalues --  -10.15246 -10.15205 -10.15010  -1.06236  -0.99831
 Alpha  occ. eigenvalues --   -0.99492  -0.85790  -0.81960  -0.80922  -0.79642
 Alpha  occ. eigenvalues --   -0.76218  -0.75045  -0.73941  -0.70750  -0.67981
 Alpha  occ. eigenvalues --   -0.67301  -0.66863  -0.63802  -0.61592  -0.59894
 Alpha  occ. eigenvalues --   -0.57706  -0.56775  -0.55727  -0.54838  -0.53607
 Alpha  occ. eigenvalues --   -0.50352  -0.48368  -0.47494  -0.46373  -0.45486
 Alpha  occ. eigenvalues --   -0.45127  -0.43898  -0.43754  -0.43365  -0.42839
 Alpha  occ. eigenvalues --   -0.42545  -0.41661  -0.41331  -0.41040  -0.39588
 Alpha  occ. eigenvalues --   -0.38824  -0.38493  -0.38286  -0.38008  -0.37664
 Alpha  occ. eigenvalues --   -0.37473  -0.36743  -0.35683  -0.34943  -0.34712
 Alpha  occ. eigenvalues --   -0.34396  -0.34220  -0.33874  -0.33476  -0.32571
 Alpha  occ. eigenvalues --   -0.31791  -0.31538  -0.31397  -0.30786  -0.29759
 Alpha  occ. eigenvalues --   -0.26635  -0.25882  -0.25728  -0.23810  -0.22648
 Alpha  occ. eigenvalues --   -0.14997
 Alpha virt. eigenvalues --   -0.03227  -0.00775  -0.00538  -0.00175   0.00502
 Alpha virt. eigenvalues --    0.00751   0.01106   0.01300   0.01999   0.02310
 Alpha virt. eigenvalues --    0.02514   0.03415   0.03655   0.03891   0.03964

  Beta  occ. eigenvalues --  -19.14195 -19.07879 -19.06761 -10.22058 -10.21924
  Beta  occ. eigenvalues --  -10.21692 -10.17376 -10.17244 -10.17062 -10.17047
  Beta  occ. eigenvalues --  -10.17008 -10.16932 -10.16857 -10.16490 -10.16062
  Beta  occ. eigenvalues --  -10.15688 -10.15683 -10.15651 -10.15560 -10.15425
  Beta  occ. eigenvalues --  -10.15246 -10.15205 -10.15010  -1.06023  -0.98903
  Beta  occ. eigenvalues --   -0.98430  -0.85555  -0.81908  -0.80762  -0.79472
  Beta  occ. eigenvalues --   -0.76053  -0.74830  -0.73875  -0.70595  -0.67981
  Beta  occ. eigenvalues --   -0.67189  -0.66189  -0.63655  -0.61420  -0.59727
  Beta  occ. eigenvalues --   -0.57600  -0.56529  -0.55726  -0.54832  -0.53434
  Beta  occ. eigenvalues --   -0.50122  -0.48113  -0.47483  -0.46235  -0.45391
  Beta  occ. eigenvalues --   -0.45083  -0.43867  -0.43443  -0.43253  -0.42521
  Beta  occ. eigenvalues --   -0.42073  -0.41363  -0.41026  -0.40765  -0.39340
  Beta  occ. eigenvalues --   -0.38410  -0.38238  -0.37989  -0.37667  -0.37605
  Beta  occ. eigenvalues --   -0.37322  -0.35867  -0.35608  -0.34793  -0.34510
  Beta  occ. eigenvalues --   -0.33988  -0.33760  -0.33372  -0.32784  -0.32434
  Beta  occ. eigenvalues --   -0.31758  -0.31523  -0.31360  -0.30776  -0.29694
  Beta  occ. eigenvalues --   -0.25333  -0.25023  -0.24673  -0.23308  -0.21756
  Beta virt. eigenvalues --   -0.08470  -0.02472  -0.00576  -0.00161   0.00325
  Beta virt. eigenvalues --    0.00543   0.00769   0.01110   0.01314   0.02006
  Beta virt. eigenvalues --    0.02318   0.02521   0.03430   0.03664   0.03897

 Mulliken charges and spin densities:
               1          2
     1  C   -0.017210   0.073278
     2  C   -0.351391  -0.000767
     3  C   -0.491501   0.073582
     4  C    0.575651  -0.003511
     5  C   -0.166934   0.065426
     6  C    0.098127   0.003975
     7  C   -1.047449   0.167974
     8  C   -0.753999   0.053703
     9  C    2.178772   0.053085
    10  C   -0.814465   0.075033
    11  O   -0.523305   0.229525
    12  O   -0.447728   0.198046
    13  H    0.164793  -0.004097
    14  H    0.183284  -0.000645
    15  H    0.178230  -0.005190
    16  H    0.166530  -0.000336
    17  O   -0.274108   0.015950
    18  H    0.288423  -0.003804
    19  C   -0.048578   0.009389
    20  C   -1.111977  -0.003984
    21  C    1.248689   0.006191
    22  C   -0.707322  -0.007021
    23  C    0.009827   0.000023
    24  C   -0.863595   0.000126
    25  C    0.529541   0.000087
    26  C   -0.660392   0.000011
    27  C   -0.743665   0.000378
    28  C   -0.691614  -0.000016
    29  H    0.205948   0.002873
    30  H    0.212441  -0.001087
    31  H    0.172060   0.002068
    32  H    0.169303  -0.000937
    33  H    0.125770   0.000735
    34  H    0.145806  -0.000031
    35  H    0.104336  -0.000175
    36  H    0.148971  -0.000011
    37  H    0.087959   0.000064
    38  H    0.141718  -0.000003
    39  H    0.129566  -0.000019
    40  H    0.139825   0.000002
    41  H    0.136041  -0.000000
    42  H    0.158131  -0.000003
    43  H    0.139826  -0.000001
    44  H    0.148825   0.000091
    45  H    0.138994   0.000045
    46  H    0.154262  -0.000022
    47  H    0.141707   0.000002
    48  H    0.146741  -0.000000
    49  H    0.145134   0.000000
 Sum of Mulliken charges =  -1.00000   1.00000

 Dipole moment (field-independent basis, Debye):
    X=             13.7010    Y=             -1.7586    Z=             -0.6701  Tot=             13.8296
 Quadrupole moment (field-independent basis, Debye-Ang):
   XX=           -198.1391   YY=           -163.8118   ZZ=           -155.2488
   XY=             15.3232   XZ=             -3.3785   YZ=              8.6732

 Normal termination of Gaussian 16 at Sun Jan 21 09:04:42 2024.
