 Gaussian 16, Revision A.03,
 Gaussian 16:  ES64L-G16RevA.03 25-Dec-2016

 --------------------------------------
 #P UB3LYP/6-311++G(d,p) nosym opt freq
 --------------------------------------

 -------
 Radical
 -------
 Symbolic Z-matrix:
 Charge = -1 Multiplicity = 2

 SCF Done:  E(UB3LYP) =  -1003.83994165     A.U. after   25 cycles
 Optimization completed.
    -- Stationary point found.
 Normal termination of Gaussian 16 at Mon Jan  8 01:44:57 2024.

 ----------------------------------------------------------------------
 #P Geom=AllCheck Guess=TCheck SCRF=Check GenChk UB3LYP/6-311++G(d,p) F
 req
 ----------------------------------------------------------------------

 Structure from the checkpoint file:  "291-rad.chk"
 -------
 Radical
 -------
 Charge = -1 Multiplicity = 2

                          Input orientation:
 ---------------------------------------------------------------------
 Center     Atomic      Atomic             Coordinates (Angstroms)
 Number     Number       Type             X           Y           Z
 ---------------------------------------------------------------------
      1          6           0        0.145091    3.715020   -0.156611
      2          6           0       -0.927612    3.642814   -1.025777
      3          6           0       -0.947963    2.666088   -2.041972
      4          6           0        1.230078    2.818933   -0.270559
      5          6           0        1.211486    1.831429   -1.297091
      6          6           0        0.109036    1.779186   -2.167817
      7          6           0        2.352724    2.895176    0.640126
      8          6           0        3.415198    1.935880    0.443848
      9          6           0        3.425984    0.963922   -0.534173
     10          6           0        2.321097    0.868827   -1.463678
     11          8           0        2.471273    3.736203    1.590909
     12          8           0        2.296109    0.003509   -2.377908
     13          1           0        0.183516    4.457275    0.632756
     14          1           0       -1.755593    4.338892   -0.926439
     15          1           0       -1.790970    2.610088   -2.724269
     16          1           0        0.120311    1.018640   -2.940399
     17          8           0        4.439396    2.069567    1.336175
     18          1           0        4.130560    2.823013    1.886729
     19          6           0        4.575362   -0.001079   -0.677209
     20          6           0        5.596404    0.446499   -1.743186
     21          6           0        6.715524   -0.570760   -2.041334
     22          6           0        7.514744   -0.131921   -3.284768
     23          6           0        8.505902   -1.166123   -3.836700
     24          6           0        9.196688   -0.700109   -5.125195
     25          6           0       10.125637   -1.732336   -5.792520
     26          6           0       10.588473   -1.234279   -7.169402
     27          6           0        7.627890   -0.793558   -0.824809
     28          6           0       11.336307   -2.089021   -4.917478
     29          1           0        4.169611   -0.972605   -0.979306
     30          1           0        5.066978   -0.117826    0.291663
     31          1           0        6.045390    1.399719   -1.434441
     32          1           0        5.043713    0.639562   -2.667723
     33          1           0        6.230326   -1.528074   -2.282774
     34          1           0        8.052898    0.797904   -3.051906
     35          1           0        6.800843    0.122705   -4.077567
     36          1           0        7.969488   -2.103791   -4.036691
     37          1           0        9.259464   -1.398948   -3.077978
     38          1           0        9.772363    0.213701   -4.920154
     39          1           0        8.424000   -0.412050   -5.849167
     40          1           0        9.541736   -2.650321   -5.948388
     41          1           0        9.736572   -1.019936   -7.821755
     42          1           0       11.218708   -1.975509   -7.671644
     43          1           0       11.172915   -0.312004   -7.073428
     44          1           0        8.392507   -1.552559   -1.016573
     45          1           0        7.055793   -1.119776    0.046367
     46          1           0        8.138526    0.137807   -0.552598
     47          1           0       11.036122   -2.516674   -3.958142
     48          1           0       11.940194   -1.197661   -4.710872
     49          1           0       11.981513   -2.818350   -5.418063
 ---------------------------------------------------------------------

 SCF Done:  E(UB3LYP) =  -1003.83994165     A.U. after    2 cycles

 Alpha  occ. eigenvalues --  -19.01826 -18.95602 -18.94313 -10.11486 -10.10261
 Alpha  occ. eigenvalues --  -10.10112 -10.09678 -10.09602 -10.09461 -10.09211
 Alpha  occ. eigenvalues --  -10.08945 -10.07837 -10.07781 -10.06827 -10.05820
 Alpha  occ. eigenvalues --  -10.05646 -10.05218 -10.05201 -10.05110 -10.05037
 Alpha  occ. eigenvalues --  -10.04883 -10.04539 -10.03811  -0.93748  -0.86825
 Alpha  occ. eigenvalues --   -0.86574  -0.75412  -0.73720  -0.72374  -0.68947
 Alpha  occ. eigenvalues --   -0.67289  -0.64081  -0.63035  -0.62886  -0.60155
 Alpha  occ. eigenvalues --   -0.59784  -0.55753  -0.53854  -0.51166  -0.49845
 Alpha  occ. eigenvalues --   -0.49391  -0.47186  -0.45901  -0.44662  -0.41520
 Alpha  occ. eigenvalues --   -0.41221  -0.38716  -0.38310  -0.38018  -0.36528
 Alpha  occ. eigenvalues --   -0.36332  -0.35418  -0.34338  -0.33782  -0.33119
 Alpha  occ. eigenvalues --   -0.32685  -0.32187  -0.31071  -0.30633  -0.30477
 Alpha  occ. eigenvalues --   -0.30300  -0.29677  -0.28800  -0.27758  -0.27482
 Alpha  occ. eigenvalues --   -0.26982  -0.26837  -0.26670  -0.26119  -0.25907
 Alpha  occ. eigenvalues --   -0.25554  -0.25141  -0.24182  -0.23693  -0.23040
 Alpha  occ. eigenvalues --   -0.22134  -0.21905  -0.21804  -0.21101  -0.20663
 Alpha  occ. eigenvalues --   -0.14257  -0.13592  -0.12948  -0.10850  -0.10408
 Alpha  occ. eigenvalues --   -0.02275
 Alpha virt. eigenvalues --    0.04315   0.06147   0.06432   0.07129   0.08264
 Alpha virt. eigenvalues --    0.08315   0.08828   0.08903   0.09234   0.09719
 Alpha virt. eigenvalues --    0.10150   0.10226   0.10716   0.11024   0.11152

  Beta  occ. eigenvalues --  -19.01785 -18.94931 -18.93754 -10.11486 -10.10261
  Beta  occ. eigenvalues --  -10.10112 -10.09678 -10.09507 -10.09362 -10.08948
  Beta  occ. eigenvalues --  -10.08944 -10.07836 -10.07779 -10.06827 -10.05815
  Beta  occ. eigenvalues --  -10.05547 -10.05193 -10.05178 -10.05080 -10.05075
  Beta  occ. eigenvalues --  -10.04753 -10.04546 -10.03730  -0.93552  -0.85866
  Beta  occ. eigenvalues --   -0.85443  -0.75412  -0.73492  -0.72365  -0.68736
  Beta  occ. eigenvalues --   -0.67118  -0.63886  -0.62886  -0.62841  -0.60076
  Beta  occ. eigenvalues --   -0.59738  -0.55396  -0.53321  -0.51065  -0.49836
  Beta  occ. eigenvalues --   -0.49226  -0.47009  -0.45831  -0.44421  -0.41365
  Beta  occ. eigenvalues --   -0.41219  -0.38694  -0.38196  -0.37933  -0.36425
  Beta  occ. eigenvalues --   -0.36312  -0.35238  -0.34276  -0.33670  -0.33105
  Beta  occ. eigenvalues --   -0.32628  -0.32077  -0.31043  -0.30574  -0.30259
  Beta  occ. eigenvalues --   -0.29799  -0.29299  -0.28389  -0.27609  -0.27323
  Beta  occ. eigenvalues --   -0.26907  -0.26618  -0.26508  -0.25829  -0.25478
  Beta  occ. eigenvalues --   -0.25323  -0.24920  -0.23972  -0.23266  -0.22581
  Beta  occ. eigenvalues --   -0.21951  -0.21400  -0.21049  -0.20475  -0.20010
  Beta  occ. eigenvalues --   -0.12918  -0.12348  -0.12174  -0.10308  -0.09373
  Beta virt. eigenvalues --    0.04283   0.04315   0.06147   0.06432   0.07129
  Beta virt. eigenvalues --    0.08257   0.08316   0.08888   0.09232   0.09471
  Beta virt. eigenvalues --    0.09737   0.10147   0.10225   0.10721   0.11034

 Mulliken charges and spin densities:
               1          2
     1  C   -0.031957   0.065559
     2  C   -0.282226   0.001663
     3  C   -0.416253   0.080720
     4  C    0.669538   0.009966
     5  C   -0.090038   0.082448
     6  C    0.085770  -0.006795
     7  C   -1.288039   0.141271
     8  C   -0.790504   0.055933
     9  C    2.371475   0.058319
    10  C   -0.995367   0.047424
    11  O   -0.448987   0.246897
    12  O   -0.355976   0.209437
    13  H    0.155390  -0.003812
    14  H    0.124441  -0.000793
    15  H    0.120382  -0.005957
    16  H    0.160408   0.000069
    17  O   -0.246147   0.015142
    18  H    0.264435  -0.004492
    19  C   -0.102453   0.010149
    20  C   -1.116930  -0.005256
    21  C    1.287602   0.007146
    22  C   -0.751890  -0.009846
    23  C    0.074546  -0.000223
    24  C   -0.857769   0.000265
    25  C    0.546135   0.000116
    26  C   -0.637739   0.000022
    27  C   -0.728876   0.000303
    28  C   -0.681318  -0.000017
    29  H    0.217058   0.003092
    30  H    0.209133  -0.001600
    31  H    0.163711   0.002683
    32  H    0.169557  -0.001328
    33  H    0.121333   0.001317
    34  H    0.130066   0.000007
    35  H    0.107912  -0.000150
    36  H    0.143534  -0.000038
    37  H    0.076531   0.000116
    38  H    0.133547  -0.000003
    39  H    0.124662  -0.000055
    40  H    0.135107   0.000003
    41  H    0.132485   0.000001
    42  H    0.144151  -0.000005
    43  H    0.131762  -0.000001
    44  H    0.122839   0.000161
    45  H    0.141724   0.000143
    46  H    0.145861  -0.000000
    47  H    0.142119  -0.000004
    48  H    0.139390  -0.000001
    49  H    0.129865   0.000001
 Sum of Mulliken charges =  -1.00000   1.00000

 Dipole moment (field-independent basis, Debye):
    X=            -12.7531    Y=             -8.3741    Z=              3.0119  Tot=             15.5512
 Quadrupole moment (field-independent basis, Debye-Ang):
   XX=           -206.3676   YY=           -178.6177   ZZ=           -170.6241
   XY=            -14.2804   XZ=             12.7147   YZ=             -8.8697

  Exact polarizability: 330.834 -64.651 247.334   7.379  46.346 263.523
 Approx polarizability: 433.678 -52.487 404.581  59.975  92.046 416.156

                      1                      2                      3
                      A                      A                      A
 Frequencies --     14.3114                17.2783                23.2116
 Red. masses --      5.3555                 2.6707                 4.4292
 Frc consts  --      0.0006                 0.0005                 0.0014
 IR Inten    --      0.1415                 0.0814                 0.1885

                      4                      5                      6
                      A                      A                      A
 Frequencies --     39.8549                44.5089                70.5969
 Red. masses --      3.7379                 3.2753                 3.6253
 Frc consts  --      0.0035                 0.0038                 0.0106
 IR Inten    --      0.8628                 0.6283                 1.9761

                      7                      8                      9
                      A                      A                      A
 Frequencies --     88.6108               100.8698               104.4435
 Red. masses --      3.6794                 3.6833                 1.8227
 Frc consts  --      0.0170                 0.0221                 0.0117
 IR Inten    --      2.3328                 1.8310                 0.2573

                     10                     11                     12
                      A                      A                      A
 Frequencies --    117.2736               134.4926               154.3200
 Red. masses --      3.8719                 2.0102                 5.6262
 Frc consts  --      0.0314                 0.0214                 0.0789
 IR Inten    --      0.7424                 0.1320                 0.3967

                     13                     14                     15
                      A                      A                      A
 Frequencies --    172.8577               181.3639               223.4305
 Red. masses --      3.5703                 6.8450                 1.1391
 Frc consts  --      0.0629                 0.1327                 0.0335
 IR Inten    --      0.3685                 1.2181                 0.0175

                     16                     17                     18
                      A                      A                      A
 Frequencies --    229.8690               238.3056               244.5953
 Red. masses --      1.4489                 2.0181                 1.3893
 Frc consts  --      0.0451                 0.0675                 0.0490
 IR Inten    --      0.0483                 0.4561                 0.0465

                     19                     20                     21
                      A                      A                      A
 Frequencies --    252.4101               264.9148               292.4788
 Red. masses --      3.5979                 1.9407                 2.9287
 Frc consts  --      0.1351                 0.0802                 0.1476
 IR Inten    --      2.2789                 0.7407                 1.7671

                     22                     23                     24
                      A                      A                      A
 Frequencies --    326.4765               348.2883               375.9617
 Red. masses --      4.2825                 5.1739                 6.0413
 Frc consts  --      0.2689                 0.3698                 0.5031
 IR Inten    --      0.8643                 9.3409                10.3777

                     25                     26                     27
                      A                      A                      A
 Frequencies --    379.6067               380.7599               417.0095
 Red. masses --      3.7783                 2.4353                 2.2608
 Frc consts  --      0.3208                 0.2080                 0.2316
 IR Inten    --      1.5509                 1.1948                 0.1472

                     28                     29                     30
                      A                      A                      A
 Frequencies --    423.7002               427.0289               430.8655
 Red. masses --      3.1510                 2.9820                 8.5189
 Frc consts  --      0.3333                 0.3204                 0.9318
 IR Inten    --      0.6562                 4.7682                 1.4281

                     31                     32                     33
                      A                      A                      A
 Frequencies --    449.3248               470.4363               491.2383
 Red. masses --      3.5195                 3.6708                 3.1205
 Frc consts  --      0.4187                 0.4786                 0.4437
 IR Inten    --      2.3357                 1.6076                 1.4336

                     34                     35                     36
                      A                      A                      A
 Frequencies --    510.1741               537.3209               573.4582
 Red. masses --      4.1464                 5.0096                 5.0445
 Frc consts  --      0.6358                 0.8522                 0.9774
 IR Inten    --      0.7810                 2.0458                 1.2305

                     37                     38                     39
                      A                      A                      A
 Frequencies --    645.6940               676.8869               698.1574
 Red. masses --      5.7585                 5.7425                 3.2001
 Frc consts  --      1.4145                 1.5502                 0.9190
 IR Inten    --     19.5062                 3.2153                 2.9626

                     40                     41                     42
                      A                      A                      A
 Frequencies --    705.9960               711.5438               735.3558
 Red. masses --      3.3006                 5.1356                 1.1142
 Frc consts  --      0.9693                 1.5320                 0.3550
 IR Inten    --     20.4030                 2.3209               117.5686

                     43                     44                     45
                      A                      A                      A
 Frequencies --    739.3994               759.2556               762.8110
 Red. masses --      1.1387                 2.3926                 1.6114
 Frc consts  --      0.3668                 0.8126                 0.5524
 IR Inten    --      1.4444                 5.9020                 7.1085

                     46                     47                     48
                      A                      A                      A
 Frequencies --    781.8125               800.1012               838.1190
 Red. masses --      2.7318                 2.2401                 1.7118
 Frc consts  --      0.9838                 0.8449                 0.7084
 IR Inten    --      6.3421                 0.2612                 1.4296

                     49                     50                     51
                      A                      A                      A
 Frequencies --    851.5186               862.3771               879.2108
 Red. masses --      2.5194                 1.3894                 2.4150
 Frc consts  --      1.0763                 0.6088                 1.0999
 IR Inten    --      8.3611                 0.0638                12.7717

                     52                     53                     54
                      A                      A                      A
 Frequencies --    926.3408               932.7587               942.0895
 Red. masses --      1.2589                 2.0081                 1.5821
 Frc consts  --      0.6365                 1.0294                 0.8273
 IR Inten    --      2.5419                 7.0765                 0.4780

                     55                     56                     57
                      A                      A                      A
 Frequencies --    947.9513               960.2626               963.1082
 Red. masses --      3.8481                 1.5687                 1.7267
 Frc consts  --      2.0373                 0.8522                 0.9437
 IR Inten    --     17.9549                 3.0136                 3.1277

                     58                     59                     60
                      A                      A                      A
 Frequencies --    969.4263               978.5264               992.3091
 Red. masses --      1.3118                 1.2953                 2.0020
 Frc consts  --      0.7264                 0.7307                 1.1615
 IR Inten    --      1.3898                 1.0083                 0.7665

                     61                     62                     63
                      A                      A                      A
 Frequencies --   1011.4248              1033.9611              1039.1055
 Red. masses --      2.7769                 2.9852                 2.1457
 Frc consts  --      1.6737                 1.8803                 1.3650
 IR Inten    --      9.4786                18.1658                 6.5408

                     64                     65                     66
                      A                      A                      A
 Frequencies --   1048.8638              1057.3764              1070.3264
 Red. masses --      1.8993                 2.7169                 1.7768
 Frc consts  --      1.2311                 1.7897                 1.1993
 IR Inten    --      6.2871                10.7431                27.2537

                     67                     68                     69
                      A                      A                      A
 Frequencies --   1100.0148              1107.3160              1131.9177
 Red. masses --      2.6840                 2.0667                 1.9198
 Frc consts  --      1.9135                 1.4931                 1.4492
 IR Inten    --      1.1323                 4.7725                28.7469

                     70                     71                     72
                      A                      A                      A
 Frequencies --   1149.9408              1150.8262              1175.8260
 Red. masses --      2.3743                 1.3108                 1.8327
 Frc consts  --      1.8499                 1.0228                 1.4929
 IR Inten    --      4.5401                 0.9446                 5.0169

                     73                     74                     75
                      A                      A                      A
 Frequencies --   1188.2618              1194.5008              1204.6737
 Red. masses --      1.7730                 2.6842                 2.1773
 Frc consts  --      1.4750                 2.2565                 1.8617
 IR Inten    --      8.1729                 8.8589                14.3223

                     76                     77                     78
                      A                      A                      A
 Frequencies --   1215.9372              1236.6943              1252.5113
 Red. masses --      1.7864                 1.6554                 1.8072
 Frc consts  --      1.5561                 1.4917                 1.6704
 IR Inten    --     13.2490                 0.9216                15.9570

                     79                     80                     81
                      A                      A                      A
 Frequencies --   1265.4356              1288.1628              1289.6296
 Red. masses --      1.4582                 1.6581                 1.5860
 Frc consts  --      1.3758                 1.6211                 1.5541
 IR Inten    --     38.3053                 4.2706                16.1339

                     82                     83                     84
                      A                      A                      A
 Frequencies --   1306.5108              1327.5695              1329.5867
 Red. masses --      1.2971                 1.2744                 1.1491
 Frc consts  --      1.3045                 1.3233                 1.1969
 IR Inten    --      3.2179                 1.9209                16.9081

                     85                     86                     87
                      A                      A                      A
 Frequencies --   1332.1670              1344.7395              1352.2836
 Red. masses --      1.1729                 1.9828                 2.5221
 Frc consts  --      1.2264                 2.1126                 2.7173
 IR Inten    --     12.5559                32.1601                17.8889

                     88                     89                     90
                      A                      A                      A
 Frequencies --   1356.5500              1367.0043              1373.6601
 Red. masses --      2.0682                 1.3461                 1.4379
 Frc consts  --      2.2424                 1.4820                 1.5985
 IR Inten    --     55.2499                 3.0478                 1.6039

                     91                     92                     93
                      A                      A                      A
 Frequencies --   1380.2053              1383.5409              1393.4569
 Red. masses --      1.4481                 1.3818                 1.4494
 Frc consts  --      1.6253                 1.5584                 1.6582
 IR Inten    --      0.1614                 1.5791                 4.3554

                     94                     95                     96
                      A                      A                      A
 Frequencies --   1398.0540              1406.8778              1416.6258
 Red. masses --      1.2809                 1.2831                 1.2425
 Frc consts  --      1.4751                 1.4964                 1.4691
 IR Inten    --      3.7113                20.4789                 8.1504

                     97                     98                     99
                      A                      A                      A
 Frequencies --   1436.6597              1461.4244              1465.3360
 Red. masses --      2.4211                 1.4476                 2.2550
 Frc consts  --      2.9442                 1.8216                 2.8527
 IR Inten    --    343.0810                45.7003                22.9225

                    100                    101                    102
                      A                      A                      A
 Frequencies --   1478.4125              1479.9787              1485.5925
 Red. masses --      1.1398                 1.1125                 2.1631
 Frc consts  --      1.4679                 1.4356                 2.8127
 IR Inten    --      9.7745                 4.6073                64.4987

                    103                    104                    105
                      A                      A                      A
 Frequencies --   1489.7999              1490.5499              1494.0808
 Red. masses --      1.0542                 1.0736                 1.0622
 Frc consts  --      1.3786                 1.4053                 1.3970
 IR Inten    --      0.4541                 1.1475                 3.6971

                    106                    107                    108
                      A                      A                      A
 Frequencies --   1497.4729              1503.2844              1504.7092
 Red. masses --      1.0715                 1.0542                 1.0796
 Frc consts  --      1.4157                 1.4036                 1.4401
 IR Inten    --      3.5771                 4.0080                 2.3575

                    109                    110                    111
                      A                      A                      A
 Frequencies --   1508.5157              1512.0257              1524.7201
 Red. masses --      1.0572                 1.0580                 5.6006
 Frc consts  --      1.4174                 1.4251                 7.6712
 IR Inten    --      6.1046                17.8535               416.0307

                    112                    113                    114
                      A                      A                      A
 Frequencies --   1540.3316              1578.3631              1621.7065
 Red. masses --      5.7474                 5.4064                 5.8317
 Frc consts  --      8.0344                 7.9355                 9.0362
 IR Inten    --     67.9586                19.3751                12.9637

                    115                    116                    117
                      A                      A                      A
 Frequencies --   1640.0105              2971.3216              2978.8104
 Red. masses --      6.1897                 1.0798                 1.0756
 Frc consts  --      9.8087                 5.6167                 5.6234
 IR Inten    --      8.0420                 5.0698                 3.4729

                    118                    119                    120
                      A                      A                      A
 Frequencies --   2984.8712              2986.5051              2998.5225
 Red. masses --      1.0653                 1.0680                 1.0656
 Frc consts  --      5.5921                 5.6123                 5.6449
 IR Inten    --      4.9936                 3.9103                39.8394

                    121                    122                    123
                      A                      A                      A
 Frequencies --   3002.7996              3005.6637              3011.3804
 Red. masses --      1.0629                 1.0364                 1.0430
 Frc consts  --      5.6467                 5.5162                 5.5728
 IR Inten    --     47.9504                40.5114                37.1732

                    124                    125                    126
                      A                      A                      A
 Frequencies --   3011.9049              3019.4227              3023.1839
 Red. masses --      1.0386                 1.0929                 1.0974
 Frc consts  --      5.5512                 5.8703                 5.9094
 IR Inten    --     63.8578                12.1912                 3.0273

                    127                    128                    129
                      A                      A                      A
 Frequencies --   3025.1312              3051.9803              3057.1022
 Red. masses --      1.0610                 1.0964                 1.0990
 Frc consts  --      5.7210                 6.0168                 6.0517
 IR Inten    --     65.5855                 5.4780                59.1592

                    130                    131                    132
                      A                      A                      A
 Frequencies --   3060.9569              3067.7964              3068.6110
 Red. masses --      1.1009                 1.0976                 1.0999
 Frc consts  --      6.0775                 6.0862                 6.1021
 IR Inten    --      1.5657               100.8723                78.5286

                    133                    134                    135
                      A                      A                      A
 Frequencies --   3075.4352              3079.0397              3091.2426
 Red. masses --      1.1009                 1.1019                 1.0978
 Frc consts  --      6.1350                 6.1551                 6.1809
 IR Inten    --     53.6024                40.5519                47.8550

                    136                    137                    138
                      A                      A                      A
 Frequencies --   3094.2228              3133.1720              3152.4110
 Red. masses --      1.0968                 1.0846                 1.0909
 Frc consts  --      6.1873                 6.2729                 6.3873
 IR Inten    --     30.7982                15.5562                49.0480

                    139                    140                    141
                      A                      A                      A
 Frequencies --   3179.2400              3182.1845              3482.1386
 Red. masses --      1.0915                 1.0929                 1.0635
 Frc consts  --      6.5003                 6.5206                 7.5978
 IR Inten    --     14.3658                26.2489               108.6588

 - Thermochemistry -
 -------------------
 Temperature   298.150 Kelvin.  Pressure   1.00000 Atm.
 Atom     1 has atomic number  6 and mass  12.00000

 Molecular mass:   314.18819 amu.
 Principal axes and moments of inertia in atomic units:
                           1         2         3
     Eigenvalues --  3283.23887********************
           X            0.82371   0.48301   0.29698
           Y           -0.37968   0.08086   0.92158
           Z           -0.42112   0.87187  -0.25000
 This molecule is an asymmetric top.
 Rotational symmetry number  1.
 Warning -- assumption of classical behavior for rotation
           may cause significant error
 Rotational temperatures (Kelvin)      0.02638     0.00380     0.00349
 Rotational constants (GHZ):           0.54968     0.07915     0.07269
 Zero-point vibrational energy    1093400.1 (Joules/Mol)
                                  261.32890 (Kcal/Mol)
 Warning -- explicit consideration of  36 degrees of freedom as
           vibrations may cause significant error
 Vibrational temperatures:     20.59    24.86    33.40    57.34    64.04
          (Kelvin)            101.57   127.49   145.13   150.27   168.73
                              193.50   222.03   248.70   260.94   321.47
                              330.73   342.87   351.92   363.16   381.15
                              420.81   469.73   501.11   540.93   546.17
                              547.83   599.98   609.61   614.40   619.92
                              646.48   676.85   706.78   734.03   773.08
                              825.08   929.01   973.89  1004.49  1015.77
                             1023.75  1058.01  1063.83  1092.40  1097.51
                             1124.85  1151.17  1205.87  1225.15  1240.77
                             1264.99  1332.80  1342.03  1355.46  1363.89
                             1381.60  1385.70  1394.79  1407.88  1427.71
                             1455.21  1487.64  1495.04  1509.08  1521.33
                             1539.96  1582.68  1593.18  1628.58  1654.51
                             1655.78  1691.75  1709.64  1718.62  1733.26
                             1749.46  1779.33  1802.08  1820.68  1853.38
                             1855.49  1879.78  1910.08  1912.98  1916.69
                             1934.78  1945.63  1951.77  1966.81  1976.39
                             1985.81  1990.61  2004.87  2011.49  2024.18
                             2038.21  2067.03  2102.66  2108.29  2127.11
                             2129.36  2137.44  2143.49  2144.57  2149.65
                             2154.53  2162.89  2164.94  2170.42  2175.47
                             2193.73  2216.19  2270.91  2333.27  2359.61
                             4275.07  4285.84  4294.56  4296.91  4314.21
                             4320.36  4324.48  4332.70  4333.46  4344.28
                             4349.69  4352.49  4391.12  4398.49  4404.03
                             4413.87  4415.05  4424.87  4430.05  4447.61
                             4451.90  4507.94  4535.62  4574.22  4578.45
                             5010.02

 Zero-point correction=                           0.416454 (Hartree/Particle)
 Thermal correction to Energy=                    0.439993
 Thermal correction to Enthalpy=                  0.440937
 Thermal correction to Gibbs Free Energy=         0.359770
 Sum of electronic and zero-point Energies=          -1003.423488
 Sum of electronic and thermal Energies=             -1003.399949
 Sum of electronic and thermal Enthalpies=           -1003.399005
 Sum of electronic and thermal Free Energies=        -1003.480172

                     E (Thermal)             CV                S
                      KCal/Mol        Cal/Mol-Kelvin    Cal/Mol-Kelvin
 Total                  276.100             89.355            170.830
 Electronic               0.000              0.000              1.377
 Translational            0.889              2.981             43.130
 Rotational               0.889              2.981             35.873
 Vibrational            274.322             83.393             90.449
 Vibration     1          0.593              1.986              7.299
 Vibration     2          0.593              1.986              6.925
 Vibration     3          0.593              1.985              6.339
 Vibration     4          0.594              1.981              5.266
 Vibration     5          0.595              1.980              5.048
 Vibration     6          0.598              1.968              4.137
 Vibration     7          0.601              1.957              3.691
 Vibration     8          0.604              1.948              3.437
 Vibration     9          0.605              1.946              3.370
 Vibration    10          0.608              1.935              3.145
 Vibration    11          0.613              1.919              2.881
 Vibration    12          0.620              1.898              2.618
 Vibration    13          0.626              1.876              2.404
 Vibration    14          0.630              1.865              2.314
 Vibration    15          0.649              1.805              1.931
 Vibration    16          0.652              1.795              1.880
 Vibration    17          0.656              1.782              1.815
 Vibration    18          0.660              1.772              1.769
 Vibration    19          0.664              1.759              1.714
 Vibration    20          0.671              1.737              1.629
 Vibration    21          0.688              1.688              1.460
 Vibration    22          0.710              1.623              1.277
 Vibration    23          0.726              1.579              1.174
 Vibration    24          0.747              1.521              1.055
 Vibration    25          0.750              1.514              1.041
 Vibration    26          0.750              1.511              1.036
 Vibration    27          0.780              1.433              0.902
 Vibration    28          0.786              1.419              0.879
 Vibration    29          0.789              1.411              0.868
 Vibration    30          0.792              1.403              0.856
 Vibration    31          0.808              1.362              0.798
 Vibration    32          0.827              1.316              0.736
 Vibration    33          0.847              1.269              0.680
 Vibration    34          0.865              1.227              0.633
 Vibration    35          0.892              1.167              0.571
 Vibration    36          0.930              1.089              0.498

                           ! Non-Optimized Parameters !
 Normal termination of Gaussian 16 at Mon Jan  8 05:34:22 2024.
