 Gaussian 16, Revision A.03,
 Gaussian 16:  ES64L-G16RevA.03 25-Dec-2016

 ----------------------------------------------------------------
 #P UB3LYP/6-311++G(d,p) SCRF=(PCM,Solvent=n,n-DiMethylFormamide)
 ----------------------------------------------------------------

 ------------------
 Quinone PCM in DMF
 ------------------
 Symbolic Z-matrix:
 Charge =  0 Multiplicity = 1

                         Standard orientation:
 ---------------------------------------------------------------------
 Center     Atomic      Atomic             Coordinates (Angstroms)
 Number     Number       Type             X           Y           Z
 ---------------------------------------------------------------------
      1          7           0       -3.297085    1.892174    0.006700
      2          6           0       -2.829272    0.617293    0.001078
      3          6           0       -3.744257   -0.461704   -0.001300
      4          6           0       -3.304072   -1.769055   -0.002080
      5          6           0       -1.936859   -2.065140   -0.000514
      6          6           0       -1.013074   -1.029896    0.000749
      7          6           0        0.437472   -1.398640    0.001175
      8          8           0        0.756040   -2.593572    0.003188
      9          6           0        1.431682   -0.324208   -0.000790
     10          6           0        2.829279   -0.617302   -0.000776
     11          7           0        3.297041   -1.892206   -0.005261
     12          6           0        3.744260    0.461706    0.000826
     13          6           0        3.304083    1.769054    0.001214
     14          6           0        1.936866    2.065146   -0.000039
     15          6           0        1.013088    1.029897   -0.000786
     16          6           0       -0.437469    1.398667   -0.000986
     17          8           0       -0.756026    2.593588   -0.003047
     18          6           0       -1.431684    0.324210    0.001094
     19          1           0       -2.627094    2.651121   -0.004959
     20          1           0       -4.286775    2.066561   -0.013104
     21          1           0       -4.807210   -0.242445   -0.001748
     22          1           0       -4.029556   -2.575161   -0.003762
     23          1           0       -1.578841   -3.085420   -0.000694
     24          1           0        4.286784   -2.066602    0.011606
     25          1           0        2.627025   -2.651155    0.004873
     26          1           0        4.807212    0.242451    0.001094
     27          1           0        4.029574    2.575152    0.002341
     28          1           0        1.578835    3.085422   -0.000038
 ---------------------------------------------------------------------

 SCF Done:  E(UB3LYP) =  -799.734282299     A.U. after   14 cycles

 The electronic state is 1-A.
 Alpha  occ. eigenvalues --  -19.12073 -19.12072 -14.33333 -14.33333 -10.27414
 Alpha  occ. eigenvalues --  -10.27413 -10.24599 -10.24599 -10.20271 -10.20270
 Alpha  occ. eigenvalues --  -10.19746 -10.19745 -10.19509 -10.19509 -10.18916
 Alpha  occ. eigenvalues --  -10.18916 -10.18252 -10.18252  -1.05576  -1.05377
 Alpha  occ. eigenvalues --   -0.94345  -0.94292  -0.87495  -0.85882  -0.80638
 Alpha  occ. eigenvalues --   -0.76727  -0.75884  -0.75035  -0.68361  -0.66353
 Alpha  occ. eigenvalues --   -0.65082  -0.61241  -0.58824  -0.58325  -0.55516
 Alpha  occ. eigenvalues --   -0.53635  -0.52613  -0.51087  -0.49715  -0.48741
 Alpha  occ. eigenvalues --   -0.47383  -0.46444  -0.46426  -0.45318  -0.44910
 Alpha  occ. eigenvalues --   -0.43290  -0.42573  -0.41911  -0.40244  -0.38982
 Alpha  occ. eigenvalues --   -0.38731  -0.38190  -0.38159  -0.36810  -0.33543
 Alpha  occ. eigenvalues --   -0.32878  -0.28605  -0.28181  -0.27291  -0.26920
 Alpha  occ. eigenvalues --   -0.22882  -0.22211
 Alpha virt. eigenvalues --   -0.11111  -0.05517  -0.03255  -0.00658  -0.00559
 Alpha virt. eigenvalues --    0.00016   0.00604   0.01564   0.01664   0.03443
 Alpha virt. eigenvalues --    0.03692   0.03777   0.03948   0.04107   0.04713

  Beta  occ. eigenvalues --  -19.12073 -19.12072 -14.33333 -14.33333 -10.27414
  Beta  occ. eigenvalues --  -10.27413 -10.24599 -10.24599 -10.20271 -10.20270
  Beta  occ. eigenvalues --  -10.19746 -10.19745 -10.19509 -10.19509 -10.18916
  Beta  occ. eigenvalues --  -10.18916 -10.18252 -10.18252  -1.05576  -1.05377
  Beta  occ. eigenvalues --   -0.94345  -0.94292  -0.87495  -0.85882  -0.80638
  Beta  occ. eigenvalues --   -0.76727  -0.75884  -0.75035  -0.68361  -0.66353
  Beta  occ. eigenvalues --   -0.65082  -0.61241  -0.58824  -0.58325  -0.55516
  Beta  occ. eigenvalues --   -0.53635  -0.52613  -0.51087  -0.49715  -0.48741
  Beta  occ. eigenvalues --   -0.47383  -0.46444  -0.46426  -0.45318  -0.44910
  Beta  occ. eigenvalues --   -0.43290  -0.42573  -0.41911  -0.40244  -0.38982
  Beta  occ. eigenvalues --   -0.38731  -0.38190  -0.38159  -0.36810  -0.33543
  Beta  occ. eigenvalues --   -0.32878  -0.28605  -0.28181  -0.27291  -0.26920
  Beta  occ. eigenvalues --   -0.22882  -0.22211
  Beta virt. eigenvalues --   -0.11111  -0.05517  -0.03255  -0.00658  -0.00559
  Beta virt. eigenvalues --    0.00016   0.00604   0.01564   0.01664   0.03443
  Beta virt. eigenvalues --    0.03692   0.03777   0.03948   0.04107   0.04713

 Mulliken charges and spin densities:
               1          2
     1  N   -0.440552  -0.000000
     2  C    0.232668   0.000000
     3  C   -0.190314  -0.000000
     4  C   -0.437143  -0.000000
     5  C   -0.085106  -0.000000
     6  C    0.579633  -0.000000
     7  C   -0.740708   0.000000
     8  O   -0.327375  -0.000000
     9  C    0.187688  -0.000000
    10  C    0.232893  -0.000000
    11  N   -0.440873   0.000000
    12  C   -0.190464   0.000000
    13  C   -0.437114  -0.000000
    14  C   -0.084983  -0.000000
    15  C    0.579667   0.000000
    16  C   -0.740628   0.000000
    17  O   -0.327359   0.000000
    18  C    0.187832  -0.000000
    19  H    0.337734   0.000000
    20  H    0.312631  -0.000000
    21  H    0.183238  -0.000000
    22  H    0.207903  -0.000000
    23  H    0.179519   0.000000
    24  H    0.312745  -0.000000
    25  H    0.337815  -0.000000
    26  H    0.183230  -0.000000
    27  H    0.207902  -0.000000
    28  H    0.179518   0.000000
 Sum of Mulliken charges =  -0.00000   0.00000

 Dipole moment (field-independent basis, Debye):
    X=              0.0004    Y=             -0.0002    Z=             -0.0085  Tot=              0.0085
 Quadrupole moment (field-independent basis, Debye-Ang):
   XX=            -59.0455   YY=           -107.1418   ZZ=           -109.5255
   XY=             -2.9885   XZ=              0.4012   YZ=             -0.2004

 Normal termination of Gaussian 16 at Sun Jan 14 01:04:24 2024.
