 Gaussian 16, Revision A.03,
 Gaussian 16:  ES64L-G16RevA.03 25-Dec-2016

 ----------------------------------------------------------------------
 #P UB3LYP/6-311++G(d,p) nosym opt freq SCRF=(PCM,Solvent=n,n-DiMethylF
 ormamide)
 ----------------------------------------------------------------------

 --------
 Oxidized
 --------
 Symbolic Z-matrix:
 Charge =  0 Multiplicity = 1

 SCF Done:  E(UB3LYP) =  -932.842804929     A.U. after   16 cycles
 SCF Done:  E(UB3LYP) =  -932.840495478     A.U. after   15 cycles
 SCF Done:  E(UB3LYP) =  -932.842589792     A.U. after   13 cycles
 SCF Done:  E(UB3LYP) =  -932.842992405     A.U. after    8 cycles
 SCF Done:  E(UB3LYP) =  -932.843028904     A.U. after   12 cycles
 SCF Done:  E(UB3LYP) =  -932.843020441     A.U. after   10 cycles
 SCF Done:  E(UB3LYP) =  -932.843025495     A.U. after   11 cycles
 SCF Done:  E(UB3LYP) =  -932.843030844     A.U. after   11 cycles
 SCF Done:  E(UB3LYP) =  -932.843031715     A.U. after   10 cycles
 SCF Done:  E(UB3LYP) =  -932.843031854     A.U. after   10 cycles
 SCF Done:  E(UB3LYP) =  -932.843033100     A.U. after   10 cycles
 SCF Done:  E(UB3LYP) =  -932.843033838     A.U. after   10 cycles
 SCF Done:  E(UB3LYP) =  -932.843034154     A.U. after   10 cycles
 SCF Done:  E(UB3LYP) =  -932.843034574     A.U. after   10 cycles
 SCF Done:  E(UB3LYP) =  -932.843035131     A.U. after   11 cycles
 SCF Done:  E(UB3LYP) =  -932.843035438     A.U. after   10 cycles
 SCF Done:  E(UB3LYP) =  -932.843035764     A.U. after   10 cycles
 SCF Done:  E(UB3LYP) =  -932.843035869     A.U. after   10 cycles
 SCF Done:  E(UB3LYP) =  -932.843035896     A.U. after    8 cycles
 Optimization completed.
    -- Stationary point found.
 Normal termination of Gaussian 16 at Sat Feb 10 17:08:22 2024.

 ----------------------------------------------------------------------
 #P Geom=AllCheck Guess=TCheck SCRF=Check GenChk UB3LYP/6-311++G(d,p) F
 req
 ----------------------------------------------------------------------

 Structure from the checkpoint file:  "175.chk"
 --------
 Oxidized
 --------
 Charge =  0 Multiplicity = 1

                          Input orientation:
 ---------------------------------------------------------------------
 Center     Atomic      Atomic             Coordinates (Angstroms)
 Number     Number       Type             X           Y           Z
 ---------------------------------------------------------------------
      1          6           0        4.409759   -0.112885   -0.019900
      2          6           0        2.971733    0.322786   -0.114670
      3          6           0        2.636850    1.641406   -0.447409
      4          6           0        1.315953    2.054022   -0.533040
      5          6           0        0.274636    1.159172   -0.284950
      6          6           0       -1.132986    1.644517   -0.398107
      7          8           0       -1.369251    2.807939   -0.691645
      8          6           0       -2.224879    0.668325   -0.149400
      9          6           0       -3.554988    1.080783   -0.270396
     10          6           0       -4.590529    0.181650   -0.039427
     11          6           0       -4.305283   -1.138853    0.317427
     12          6           0       -2.985342   -1.557952    0.442367
     13          6           0       -1.937558   -0.661505    0.209307
     14          6           0       -0.538474   -1.140519    0.353532
     15          8           0       -0.289008   -2.283051    0.707902
     16          6           0        0.562458   -0.175079    0.057284
     17          6           0        1.907835   -0.550432    0.127049
     18          7           0        2.288328   -1.952151    0.459948
     19          8           0        2.376127   -2.742875   -0.466065
     20          8           0        2.574785   -2.192752    1.622071
     21          1           0        5.069248    0.678660   -0.373093
     22          1           0        4.598008   -1.007000   -0.619208
     23          1           0        4.679145   -0.345279    1.014080
     24          1           0        3.434652    2.347687   -0.643868
     25          1           0        1.073539    3.075671   -0.794762
     26          1           0       -3.761659    2.107003   -0.545793
     27          1           0       -5.619525    0.506892   -0.136061
     28          1           0       -5.112699   -1.838484    0.497636
     29          1           0       -2.750874   -2.577695    0.719189
 ---------------------------------------------------------------------

 SCF Done:  E(UB3LYP) =  -932.843035896     A.U. after    1 cycles

 Alpha  occ. eigenvalues --  -19.18922 -19.18900 -19.14339 -19.13858 -14.57923
 Alpha  occ. eigenvalues --  -10.29799 -10.29164 -10.26573 -10.23601 -10.23409
 Alpha  occ. eigenvalues --  -10.22337 -10.21667 -10.21546 -10.21168 -10.21072
 Alpha  occ. eigenvalues --  -10.20391 -10.20371 -10.20322 -10.20295 -10.18732
 Alpha  occ. eigenvalues --   -1.26573  -1.09232  -1.07917  -1.07189  -0.92144
 Alpha  occ. eigenvalues --   -0.89484  -0.84215  -0.82539  -0.79359  -0.78514
 Alpha  occ. eigenvalues --   -0.74489  -0.72545  -0.68748  -0.66874  -0.65270
 Alpha  occ. eigenvalues --   -0.61702  -0.59991  -0.58928  -0.56521  -0.55748
 Alpha  occ. eigenvalues --   -0.54770  -0.54253  -0.51441  -0.49989  -0.49112
 Alpha  occ. eigenvalues --   -0.48355  -0.46905  -0.46716  -0.45881  -0.45615
 Alpha  occ. eigenvalues --   -0.44599  -0.44566  -0.42944  -0.41787  -0.40743
 Alpha  occ. eigenvalues --   -0.39904  -0.39697  -0.38637  -0.37637  -0.37544
 Alpha  occ. eigenvalues --   -0.34623  -0.34143  -0.33830  -0.29907  -0.29874
 Alpha  occ. eigenvalues --   -0.28836  -0.28641  -0.28409  -0.28260
 Alpha virt. eigenvalues --   -0.12874  -0.10394  -0.08644  -0.04702  -0.03893
 Alpha virt. eigenvalues --   -0.00726   0.00018   0.00951   0.01678   0.01923
 Alpha virt. eigenvalues --    0.02119   0.02600   0.03500   0.03791   0.03940

  Beta  occ. eigenvalues --  -19.18922 -19.18900 -19.14339 -19.13858 -14.57923
  Beta  occ. eigenvalues --  -10.29799 -10.29164 -10.26573 -10.23601 -10.23409
  Beta  occ. eigenvalues --  -10.22337 -10.21667 -10.21546 -10.21168 -10.21072
  Beta  occ. eigenvalues --  -10.20391 -10.20371 -10.20322 -10.20295 -10.18732
  Beta  occ. eigenvalues --   -1.26573  -1.09232  -1.07917  -1.07189  -0.92144
  Beta  occ. eigenvalues --   -0.89484  -0.84215  -0.82539  -0.79359  -0.78514
  Beta  occ. eigenvalues --   -0.74489  -0.72545  -0.68748  -0.66874  -0.65270
  Beta  occ. eigenvalues --   -0.61702  -0.59991  -0.58928  -0.56521  -0.55748
  Beta  occ. eigenvalues --   -0.54770  -0.54253  -0.51441  -0.49989  -0.49112
  Beta  occ. eigenvalues --   -0.48355  -0.46905  -0.46716  -0.45881  -0.45615
  Beta  occ. eigenvalues --   -0.44599  -0.44566  -0.42944  -0.41787  -0.40743
  Beta  occ. eigenvalues --   -0.39904  -0.39697  -0.38637  -0.37637  -0.37544
  Beta  occ. eigenvalues --   -0.34623  -0.34143  -0.33830  -0.29907  -0.29874
  Beta  occ. eigenvalues --   -0.28836  -0.28641  -0.28409  -0.28260
  Beta virt. eigenvalues --   -0.12874  -0.10394  -0.08644  -0.04702  -0.03893
  Beta virt. eigenvalues --   -0.00726   0.00018   0.00951   0.01678   0.01923
  Beta virt. eigenvalues --    0.02119   0.02600   0.03500   0.03791   0.03940

 Mulliken charges and spin densities:
               1          2
     1  C   -0.462831  -0.000000
     2  C    0.917933  -0.000000
     3  C   -1.020994   0.000000
     4  C   -0.138798   0.000000
     5  C    0.620317  -0.000000
     6  C   -0.659155  -0.000000
     7  O   -0.257661   0.000000
     8  C    0.083958  -0.000000
     9  C    0.180372   0.000000
    10  C   -0.355110  -0.000000
    11  C   -0.398998   0.000000
    12  C    0.181007   0.000000
    13  C    0.062528  -0.000000
    14  C   -0.620359  -0.000000
    15  O   -0.218434   0.000000
    16  C    0.155390  -0.000000
    17  C    0.305420   0.000000
    18  N   -0.198302  -0.000000
    19  O    0.015576   0.000000
    20  O    0.015334  -0.000000
    21  H    0.193715  -0.000000
    22  H    0.194086   0.000000
    23  H    0.211109   0.000000
    24  H    0.195801   0.000000
    25  H    0.193919   0.000000
    26  H    0.188827  -0.000000
    27  H    0.212663  -0.000000
    28  H    0.213766   0.000000
    29  H    0.188925  -0.000000
 Sum of Mulliken charges =  -0.00000   0.00000

 Dipole moment (field-independent basis, Debye):
    X=             -1.4141    Y=              4.3622    Z=             -1.2366  Tot=              4.7495
 Quadrupole moment (field-independent basis, Debye-Ang):
   XX=            -78.2835   YY=           -133.9982   ZZ=           -120.0237
   XY=             21.0069   XZ=             -5.7159   YZ=              3.7526

  Exact polarizability: 379.589  -3.814 305.212   1.730 -41.468 159.269
 Approx polarizability: 403.406 -10.012 389.762   6.039 -51.461 210.429

                      1                      2                      3
                      A                      A                      A
 Frequencies --     19.2634                40.2733                78.1524
 Red. masses --     10.2580                 6.5439                 1.7135
 Frc consts  --      0.0022                 0.0063                 0.0062
 IR Inten    --      2.2559                10.6783                 0.0943

                      4                      5                      6
                      A                      A                      A
 Frequencies --    100.8103               112.3801               122.5074
 Red. masses --      2.3785                 2.8738                 7.2375
 Frc consts  --      0.0142                 0.0214                 0.0640
 IR Inten    --      0.3045                 1.4168                 0.1247

                      7                      8                      9
                      A                      A                      A
 Frequencies --    148.6290               162.1485               191.3507
 Red. masses --      8.9306                 7.6479                 6.0280
 Frc consts  --      0.1162                 0.1185                 0.1300
 IR Inten    --      3.5777                 1.1674                 0.3935

                     10                     11                     12
                      A                      A                      A
 Frequencies --    219.9315               267.0891               277.0552
 Red. masses --      4.3255                 5.8913                 4.8431
 Frc consts  --      0.1233                 0.2476                 0.2190
 IR Inten    --      5.9832                 0.4364                 1.9918

                     13                     14                     15
                      A                      A                      A
 Frequencies --    314.7194               334.0660               381.5683
 Red. masses --     11.1954                 6.5049                 5.1322
 Frc consts  --      0.6533                 0.4277                 0.4402
 IR Inten    --      4.4252                 6.6335                 2.5898

                     16                     17                     18
                      A                      A                      A
 Frequencies --    389.7772               423.2035               428.3339
 Red. masses --     10.9120                 4.5961                 3.5038
 Frc consts  --      0.9768                 0.4850                 0.3788
 IR Inten    --     48.8875                 7.5073                 0.5222

                     19                     20                     21
                      A                      A                      A
 Frequencies --    437.6228               445.1447               482.8921
 Red. masses --      6.3345                 4.6878                11.6942
 Frc consts  --      0.7148                 0.5473                 1.6067
 IR Inten    --      1.0852                 1.5735                 0.6731

                     22                     23                     24
                      A                      A                      A
 Frequencies --    508.2680               588.8029               601.8552
 Red. masses --      3.8652                 5.6811                 5.4559
 Frc consts  --      0.5883                 1.1604                 1.1644
 IR Inten    --      6.6173                 7.3939                 1.1064

                     25                     26                     27
                      A                      A                      A
 Frequencies --    656.5633               665.3828               688.7931
 Red. masses --      7.0265                 8.6056                 5.2340
 Frc consts  --      1.7846                 2.2448                 1.4630
 IR Inten    --     29.8602                 9.8788                 1.4197

                     28                     29                     30
                      A                      A                      A
 Frequencies --    712.7594               723.8282               747.3797
 Red. masses --      7.4939                 2.6350                 3.9836
 Frc consts  --      2.2431                 0.8134                 1.3110
 IR Inten    --     32.0008                97.0312                33.2125

                     31                     32                     33
                      A                      A                      A
 Frequencies --    750.9339               779.2253               796.7211
 Red. masses --      7.3030                 8.2897                 3.7978
 Frc consts  --      2.4264                 2.9656                 1.4203
 IR Inten    --      8.6897                16.8183                 0.4358

                     34                     35                     36
                      A                      A                      A
 Frequencies --    809.9078               844.2742               866.4103
 Red. masses --      2.0190                 7.6380                 1.4785
 Frc consts  --      0.7803                 3.2077                 0.6539
 IR Inten    --      9.7873                21.7411                29.7839

                     37                     38                     39
                      A                      A                      A
 Frequencies --    895.2570               915.6955               973.3615
 Red. masses --      8.2390                 1.4067                 3.7364
 Frc consts  --      3.8906                 0.6950                 2.0857
 IR Inten    --     22.6029                 0.1510                52.5776

                     40                     41                     42
                      A                      A                      A
 Frequencies --    998.4327              1003.6080              1008.0330
 Red. masses --      3.5823                 1.3765                 1.3558
 Frc consts  --      2.1040                 0.8169                 0.8117
 IR Inten    --    109.9186                 1.6127                 0.9225

                     43                     44                     45
                      A                      A                      A
 Frequencies --   1026.0184              1053.9123              1060.0495
 Red. masses --      1.3376                 2.0582                 1.5353
 Frc consts  --      0.8297                 1.3469                 1.0165
 IR Inten    --      0.0119                 6.3278                 6.6172

                     46                     47                     48
                      A                      A                      A
 Frequencies --   1068.4212              1116.0595              1164.2179
 Red. masses --      2.0880                 2.1116                 2.9724
 Frc consts  --      1.4043                 1.5497                 2.3737
 IR Inten    --     22.2114                 1.1826                17.7466

                     49                     50                     51
                      A                      A                      A
 Frequencies --   1180.0609              1181.7755              1207.4470
 Red. masses --      1.2647                 1.4900                 2.4327
 Frc consts  --      1.0377                 1.2261                 2.0896
 IR Inten    --     26.8613                16.5469                 4.5374

                     52                     53                     54
                      A                      A                      A
 Frequencies --   1232.1455              1276.4301              1296.6743
 Red. masses --      2.6031                 1.8173                 6.2339
 Frc consts  --      2.3285                 1.7445                 6.1755
 IR Inten    --     25.2430                30.4003              1196.6762

                     55                     56                     57
                      A                      A                      A
 Frequencies --   1316.8791              1341.5321              1362.2345
 Red. masses --      2.5303                 6.1663                 8.1125
 Frc consts  --      2.5853                 6.5385                 8.8697
 IR Inten    --      2.2772               132.6883                20.8249

                     58                     59                     60
                      A                      A                      A
 Frequencies --   1411.5785              1412.8309              1428.1002
 Red. masses --      9.4888                 1.2576                 4.0569
 Frc consts  --     11.1397                 1.4791                 4.8748
 IR Inten    --    131.4869                15.4536               119.6640

                     61                     62                     63
                      A                      A                      A
 Frequencies --   1476.3856              1480.5426              1489.4137
 Red. masses --      1.0864                 2.3179                 1.3677
 Frc consts  --      1.3953                 2.9935                 1.7876
 IR Inten    --     39.6334                 3.3099                 9.8277

                     64                     65                     66
                      A                      A                      A
 Frequencies --   1497.5101              1508.2569              1568.7183
 Red. masses --      2.2007                 2.6989                13.0255
 Frc consts  --      2.9077                 3.6174                18.8858
 IR Inten    --     20.0657                 6.6774               623.8648

                     67                     68                     69
                      A                      A                      A
 Frequencies --   1592.0831              1612.0011              1618.9240
 Red. masses --      6.3244                 6.9424                 6.1165
 Frc consts  --      9.4450                10.6289                 9.4452
 IR Inten    --     78.7144                69.3105               306.9022

                     70                     71                     72
                      A                      A                      A
 Frequencies --   1627.2701              1700.3094              1710.5478
 Red. masses --      6.7515                12.4857                12.0843
 Frc consts  --     10.5335                21.2677                20.8326
 IR Inten    --     22.7427                55.9911               679.7717

                     73                     74                     75
                      A                      A                      A
 Frequencies --   3040.3813              3094.6847              3132.6493
 Red. masses --      1.0381                 1.1004                 1.1009
 Frc consts  --      5.6539                 6.2093                 6.3655
 IR Inten    --      9.9601                 7.2663                14.1005

                     76                     77                     78
                      A                      A                      A
 Frequencies --   3181.8009              3188.7762              3193.7943
 Red. masses --      1.0877                 1.0903                 1.0916
 Frc consts  --      6.4879                 6.5317                 6.5601
 IR Inten    --      2.9151                 5.8555                 9.2496

                     79                     80                     81
                      A                      A                      A
 Frequencies --   3206.0035              3208.9088              3210.8897
 Red. masses --      1.0927                 1.0955                 1.0934
 Frc consts  --      6.6171                 6.6461                 6.6419
 IR Inten    --      1.9737                18.9363                 3.0564

 - Thermochemistry -
 -------------------
 Temperature   298.150 Kelvin.  Pressure   1.00000 Atm.
 Atom     1 has atomic number  6 and mass  12.00000

 Molecular mass:   267.05316 amu.
 Principal axes and moments of inertia in atomic units:
                           1         2         3
     Eigenvalues --  2706.513776712.614009138.83880
           X            0.98749   0.15747   0.00836
           Y           -0.15454   0.95584   0.24997
           Z            0.03137  -0.24814   0.96822
 This molecule is an asymmetric top.
 Rotational symmetry number  1.
 Warning -- assumption of classical behavior for rotation
           may cause significant error
 Rotational temperatures (Kelvin)      0.03200     0.01290     0.00948
 Rotational constants (GHZ):           0.66681     0.26886     0.19748
 Zero-point vibrational energy     546625.4 (Joules/Mol)
                                  130.64661 (Kcal/Mol)
 Warning -- explicit consideration of  24 degrees of freedom as
           vibrations may cause significant error
 Vibrational temperatures:     27.72    57.94   112.44   145.04   161.69
          (Kelvin)            176.26   213.84   233.30   275.31   316.43
                              384.28   398.62   452.81   480.65   548.99
                              560.80   608.90   616.28   629.64   640.46
                              694.77   731.28   847.16   865.94   944.65
                              957.34   991.02  1025.50  1041.43  1075.31
                             1080.43  1121.13  1146.30  1165.28  1214.72
                             1246.57  1288.08  1317.48  1400.45  1436.52
                             1443.97  1450.33  1476.21  1516.34  1525.17
                             1537.22  1605.76  1675.05  1697.84  1700.31
                             1737.25  1772.78  1836.50  1865.63  1894.70
                             1930.17  1959.95  2030.95  2032.75  2054.72
                             2124.19  2130.17  2142.93  2154.58  2170.05
                             2257.04  2290.65  2319.31  2329.27  2341.28
                             2446.37  2461.10  4374.43  4452.56  4507.18
                             4577.90  4587.94  4595.16  4612.72  4616.90
                             4619.75

 Zero-point correction=                           0.208199 (Hartree/Particle)
 Thermal correction to Energy=                    0.224057
 Thermal correction to Enthalpy=                  0.225001
 Thermal correction to Gibbs Free Energy=         0.163641
 Sum of electronic and zero-point Energies=           -932.634837
 Sum of electronic and thermal Energies=              -932.618979
 Sum of electronic and thermal Enthalpies=            -932.618035
 Sum of electronic and thermal Free Energies=         -932.679394

                     E (Thermal)             CV                S
                      KCal/Mol        Cal/Mol-Kelvin    Cal/Mol-Kelvin
 Total                  140.598             60.737            129.142
 Electronic               0.000              0.000              0.000
 Translational            0.889              2.981             42.646
 Rotational               0.889              2.981             33.473
 Vibrational            138.820             54.775             53.023
 Vibration     1          0.593              1.986              6.709
 Vibration     2          0.594              1.981              5.246
 Vibration     3          0.599              1.964              3.937
 Vibration     4          0.604              1.948              3.439
 Vibration     5          0.607              1.939              3.227
 Vibration     6          0.610              1.930              3.060
 Vibration     7          0.618              1.904              2.690
 Vibration     8          0.622              1.889              2.525
 Vibration     9          0.634              1.852              2.215
 Vibration    10          0.647              1.811              1.960
 Vibration    11          0.672              1.734              1.615
 Vibration    12          0.678              1.716              1.552
 Vibration    13          0.702              1.646              1.337
 Vibration    14          0.716              1.607              1.240
 Vibration    15          0.751              1.509              1.033
 Vibration    16          0.758              1.492              1.001
 Vibration    17          0.785              1.420              0.881
 Vibration    18          0.790              1.409              0.864
 Vibration    19          0.798              1.388              0.834
 Vibration    20          0.805              1.372              0.811
 Vibration    21          0.839              1.288              0.702
 Vibration    22          0.863              1.232              0.638
 Vibration    23          0.946              1.056              0.469
 Vibration    24          0.960              1.028              0.446

                           ! Non-Optimized Parameters !
 Normal termination of Gaussian 16 at Sat Feb 10 17:54:27 2024.
