 Q-Chem 5.4, Q-Chem, Inc., Pleasanton, CA (2021)
 Q-Chem 5.4.0 for Intel X86 EM64T Linux

User input:
--------------------------------------------------------------
$molecule
-2 1
C                 -0.0618100000      3.8910150000      0.1700340000
C                 -0.4704860000      3.5261050000      1.4377640000
C                 -0.0245820000      2.3043370000      2.0018940000
C                  0.8032560000      3.0686660000     -0.5969000000
C                  1.2593380000      1.8246950000     -0.0225530000
C                  0.8226040000      1.4848210000      1.2714020000
C                  1.2182540000      3.4571340000     -1.9114000000
C                  2.0897680000      2.5454330000     -2.5847210000
C                  2.5476610000      1.3358010000     -2.0705400000
C                  2.1548310000      0.9168500000     -0.7498160000
O                  0.8747750000      4.5448370000     -2.5345540000
O                  2.5531390000     -0.1827140000     -0.2391810000
H                 -0.3909150000      4.8217260000     -0.2813680000
H                 -1.1343970000      4.1762270000      2.0044360000
H                 -0.3441900000      2.0140830000      3.0001160000
H                  1.1829240000      0.5438240000      1.6753520000
O                  2.4469750000      2.9778730000     -3.8418220000
C                  3.4519800000      0.4376260000     -2.8768250000
C                  4.9553430000      0.6595480000     -2.6108480000
C                  5.8594970000     -0.2835060000     -3.4164890000
C                  7.3606290000     -0.0726960000     -3.1786750000
C                  8.2628170000     -1.0088740000     -3.9955870000
H                  1.9501610000      3.8323590000     -3.8730480000
H                  3.2590030000      0.5838980000     -3.9462100000
H                  3.2118370000     -0.6003750000     -2.6193470000
H                  5.1381320000      0.5202870000     -1.5397270000
H                  5.2092150000      1.7000710000     -2.8479480000
H                  5.6463720000     -0.1600470000     -4.4879860000
H                  5.5996570000     -1.3229830000     -3.1733410000
H                  7.5769600000     -0.2050250000     -2.1101410000
H                  7.6190180000      0.9691770000     -3.4121130000
H                  8.0476880000     -0.8763740000     -5.0645130000
H                  8.0058600000     -2.0513330000     -3.7643040000
C                  9.7640150000     -0.7991720000     -3.7578580000
C                 10.6588710000     -1.7345010000     -4.5779810000
H                  9.9806290000     -0.9338050000     -2.6902600000
H                 10.0220430000      0.2428280000     -3.9872720000
H                 10.4583500000     -2.7869030000     -4.3458790000
H                 11.7232690000     -1.5593230000     -4.3863800000
H                 10.4991290000     -1.6003890000     -5.6541900000
$end
$rem
MAX_SCF_CYCLES=200
SCF_Guess=core
BASIS  =  6-311++G(d,p)
GUI  =  2
JOB_TYPE  =  SP
METHOD  =  B3LYP
THRESH = 14
SCF_CONVERGENCE = 8
SOLVENT_METHOD = COSMO
$end
$solvent
dielectric 37.219
opticaldielectric 1.43
$end

--------------------------------------------------------------

             Standard Nuclear Orientation (Angstroms)
    I     Atom           X                Y                Z
 ----------------------------------------------------------------
    1      C       4.8283639817    -0.2857790725     0.7192353305
    2      C       5.5287161468     0.9003415573     0.8189320230
    3      C       4.9062979626     2.1230385374     0.4620037687
    4      C       3.4851947610    -0.3191659096     0.2636405698
    5      C       2.8497260887     0.9259320483    -0.0986573157
    6      C       3.5935418398     2.1151864570     0.0152836528
    7      C       2.7702122806    -1.5559468083     0.1625760447
    8      C       1.4240298463    -1.4608486685    -0.3094893449
    9      C       0.7765668397    -0.2839626879    -0.6741655291
   10      C       1.4637244459     0.9781831676    -0.5795637463
   11      O       3.2319212087    -2.7354022565     0.4543058149
   12      O       0.9072147774     2.0806156840    -0.9010880717
   13      H       5.2851282363    -1.2333862946     0.9870109839
   14      H       6.5582544253     0.8971760448     1.1719114827
   15      H       5.4548067594     3.0589622382     0.5396487648
   16      H       3.0880125245     3.0342765446    -0.2643500025
   17      O       0.7969567756    -2.6839517442    -0.3850032434
   18      C      -0.6443278035    -0.2995255106    -1.1795593330
   19      C      -1.7030471280    -0.0686785834    -0.0814170214
   20      C      -3.1410002853    -0.0569847789    -0.6181261565
   21      C      -4.2133443298     0.1578332027     0.4581289811
   22      C      -5.6514546927     0.1562523978    -0.0799729941
   23      H       1.5300647311    -3.2683447206    -0.0703874260
   24      H      -0.8506845752    -1.2578735046    -1.6706865099
   25      H      -0.7461873968     0.5003027331    -1.9220612258
   26      H      -1.4848025347     0.8858459400     0.4098648458
   27      H      -1.6035510943    -0.8523986921     0.6796604033
   28      H      -3.3403067630    -1.0054402192    -1.1372402259
   29      H      -3.2327292734     0.7303277244    -1.3789645256
   30      H      -4.0213275314     1.1095405033     0.9714103252
   31      H      -4.1156292643    -0.6233205984     1.2242934728
   32      H      -5.8445600771    -0.7957480699    -0.5926570588
   33      H      -5.7514425818     0.9361834401    -0.8467516348
   34      C      -6.7243181521     0.3716700011     0.9955011782
   35      C      -8.1572724277     0.3662874929     0.4525256661
   36      H      -6.5338035194     1.3240341438     1.5068913167
   37      H      -6.6246589495    -0.4063909860     1.7633959469
   38      H      -8.3077420607     1.1584808388    -0.2900499676
   39      H      -8.8985350333     0.5215814390     1.2442042102
   40      H      -8.3987043589    -0.5868990265    -0.0321138170
 ----------------------------------------------------------------

   66    -885.7905029829      2.82e-09  Convergence criterion met
 Total energy in the final basis set =     -885.7905029829
   12    -886.0511192373      5.65e-09  Convergence criterion met
 Total energy in the final basis set =     -886.0511192373

                    Orbital Energies (a.u.)
 --------------------------------------------------------------

 Alpha MOs
 -- Occupied --
-19.1136 -19.0308 -19.0218 -10.1777 -10.1751 -10.1638 -10.1560 -10.1529
-10.1516 -10.1500 -10.1489 -10.1483 -10.1451 -10.1446 -10.1442 -10.1437
-10.1398 -10.1375 -10.1332 -10.1248  -1.0280  -0.9445  -0.9363  -0.8249
 -0.7985  -0.7789  -0.7582  -0.7289  -0.7222  -0.6974  -0.6601  -0.6319
 -0.6057  -0.5836  -0.5707  -0.5654  -0.5525  -0.5354  -0.5034  -0.4727
 -0.4703  -0.4520  -0.4411  -0.4275  -0.4239  -0.4223  -0.4060  -0.4016
 -0.3997  -0.3943  -0.3821  -0.3744  -0.3689  -0.3596  -0.3568  -0.3519
 -0.3506  -0.3441  -0.3289  -0.3277  -0.3209  -0.3167  -0.3130  -0.3105
 -0.3085  -0.3045  -0.2998  -0.2932  -0.2312  -0.2275  -0.2196  -0.2000
 -0.1934  -0.1105

          Ground-State Mulliken Net Atomic Charges

     Atom                 Charge (a.u.)
  ----------------------------------------
      1 C                    -0.060932
      2 C                    -0.400650
      3 C                    -0.528095
      4 C                     0.438173
      5 C                    -0.119521
      6 C                     0.029078
      7 C                    -0.899537
      8 C                    -0.658843
      9 C                     1.979862
     10 C                    -0.723063
     11 O                    -0.772534
     12 O                    -0.679430
     13 H                     0.155923
     14 H                     0.177136
     15 H                     0.170889
     16 H                     0.153939
     17 O                    -0.355625
     18 C                    -0.304730
     19 C                    -0.613161
     20 C                    -0.108604
     21 C                    -0.109066
     22 C                    -0.280015
     23 H                     0.292974
     24 H                     0.199559
     25 H                     0.173768
     26 H                     0.178052
     27 H                     0.157865
     28 H                     0.110373
     29 H                     0.114604
     30 H                     0.125512
     31 H                     0.126506
     32 H                     0.129462
     33 H                     0.130505
     34 C                    -0.233008
     35 C                    -0.710764
     36 H                     0.135798
     37 H                     0.135669
     38 H                     0.145649
     39 H                     0.150565
     40 H                     0.145719
  ----------------------------------------
  Sum of atomic charges =    -2.000000

                    Cartesian Multipole Moments
 -----------------------------------------------------------------
    Charge (ESU x 10^10)
                -9.6064
    Dipole Moment (Debye)
         X     -20.8180      Y       2.4984      Z       1.9072
       Tot      21.0539
    Quadrupole Moments (Debye-Ang)
        XX    -200.9304     XY      17.2332     YY    -176.0600
        XZ      -3.9736     YZ       8.3606     ZZ    -138.4974

 Total job time:  866.21s(wall), 6856.57s(cpu)
        *  Thank you very much for using Q-Chem.  Have a nice day.  *
