 Gaussian 16, Revision A.03,
 Gaussian 16:  ES64L-G16RevA.03 25-Dec-2016

 ----------------------------------------------------------------
 #P UB3LYP/6-311++G(d,p) SCRF=(PCM,Solvent=n,n-DiMethylFormamide)
 ----------------------------------------------------------------

 -------
 Reduced
 -------
 Symbolic Z-matrix:
 Charge = -2 Multiplicity = 1

                         Standard orientation:
 ---------------------------------------------------------------------
 Center     Atomic      Atomic             Coordinates (Angstroms)
 Number     Number       Type             X           Y           Z
 ---------------------------------------------------------------------
      1          6           0       -3.376572   -1.327167    0.050730
      2          8           0       -2.787075   -0.064521    0.221043
      3          6           0       -1.406902    0.032352    0.052008
      4          6           0       -0.580018   -1.082559   -0.002304
      5          6           0        0.849549   -1.023890   -0.150887
      6          8           0        1.587385   -2.082009   -0.232878
      7          6           0        1.356745    0.320331   -0.211261
      8          6           0        0.530137    1.437951   -0.155060
      9          6           0       -0.896503    1.389900   -0.033088
     10          8           0       -1.641051    2.434187    0.014851
     11          8           0        2.728168    0.548437   -0.410171
     12          6           0        3.559489   -0.011574    0.595432
     13          1           0       -4.461718   -1.195800    0.109967
     14          1           0       -3.072333   -2.040583    0.829800
     15          1           0       -3.128746   -1.772458   -0.928080
     16          1           0       -0.991680   -2.085204    0.042129
     17          1           0        0.984698    2.423600   -0.219353
     18          1           0        3.365062    0.464982    1.571942
     19          1           0        3.391562   -1.089803    0.671933
     20          1           0        4.598186    0.194449    0.305498
 ---------------------------------------------------------------------

 SCF Done:  E(UB3LYP) =  -610.933563519     A.U. after   17 cycles

 The electronic state is 1-A.
 Alpha  occ. eigenvalues --  -19.12145 -19.10819 -19.00975 -19.00893 -10.20191
 Alpha  occ. eigenvalues --  -10.18740 -10.17570 -10.16480 -10.16400 -10.16355
 Alpha  occ. eigenvalues --  -10.11741 -10.11380  -1.03270  -1.01582  -0.92613
 Alpha  occ. eigenvalues --   -0.92156  -0.77281  -0.71350  -0.68168  -0.65723
 Alpha  occ. eigenvalues --   -0.61646  -0.55597  -0.53312  -0.47779  -0.46409
 Alpha  occ. eigenvalues --   -0.45323  -0.44455  -0.43029  -0.41898  -0.40206
 Alpha  occ. eigenvalues --   -0.37505  -0.36275  -0.35460  -0.35235  -0.33513
 Alpha  occ. eigenvalues --   -0.32162  -0.31063  -0.30520  -0.28751  -0.25952
 Alpha  occ. eigenvalues --   -0.21436  -0.19242  -0.19139  -0.18551  -0.10645
 Alpha virt. eigenvalues --    0.00223   0.01007   0.01864   0.02841   0.03108
 Alpha virt. eigenvalues --    0.03670   0.04318   0.04512   0.05023   0.05595
 Alpha virt. eigenvalues --    0.06691   0.07498   0.08167   0.08328   0.08812

  Beta  occ. eigenvalues --  -19.12145 -19.10819 -19.00975 -19.00893 -10.20191
  Beta  occ. eigenvalues --  -10.18740 -10.17570 -10.16480 -10.16400 -10.16355
  Beta  occ. eigenvalues --  -10.11741 -10.11380  -1.03270  -1.01582  -0.92613
  Beta  occ. eigenvalues --   -0.92156  -0.77281  -0.71350  -0.68168  -0.65723
  Beta  occ. eigenvalues --   -0.61646  -0.55597  -0.53312  -0.47779  -0.46409
  Beta  occ. eigenvalues --   -0.45323  -0.44455  -0.43029  -0.41898  -0.40206
  Beta  occ. eigenvalues --   -0.37505  -0.36275  -0.35460  -0.35235  -0.33513
  Beta  occ. eigenvalues --   -0.32162  -0.31063  -0.30520  -0.28751  -0.25952
  Beta  occ. eigenvalues --   -0.21436  -0.19242  -0.19139  -0.18551  -0.10645
  Beta virt. eigenvalues --    0.00223   0.01007   0.01864   0.02841   0.03108
  Beta virt. eigenvalues --    0.03670   0.04318   0.04512   0.05023   0.05595
  Beta virt. eigenvalues --    0.06691   0.07498   0.08167   0.08328   0.08812

 Mulliken charges and spin densities:
               1          2
     1  C   -0.287874  -0.000000
     2  O   -0.239297  -0.000000
     3  C   -0.368490   0.000000
     4  C    0.529057  -0.000000
     5  C   -0.420849   0.000000
     6  O   -0.725424  -0.000000
     7  C   -0.388573  -0.000000
     8  C    0.606195   0.000000
     9  C   -0.591742  -0.000000
    10  O   -0.743591   0.000000
    11  O   -0.266272   0.000000
    12  C   -0.259723   0.000000
    13  H    0.168952  -0.000000
    14  H    0.136240  -0.000000
    15  H    0.138259   0.000000
    16  H    0.156559  -0.000000
    17  H    0.149208   0.000000
    18  H    0.104705  -0.000000
    19  H    0.176663  -0.000000
    20  H    0.125996   0.000000
 Sum of Mulliken charges =  -2.00000  -0.00000

 Dipole moment (field-independent basis, Debye):
    X=             -0.2645    Y=             -4.2818    Z=              1.9388  Tot=              4.7077
 Quadrupole moment (field-independent basis, Debye-Ang):
   XX=           -103.9494   YY=           -119.6148   ZZ=            -80.6115
   XY=             30.1839   XZ=              6.8964   YZ=             -1.7329

 Normal termination of Gaussian 16 at Wed Jan 24 22:49:55 2024.
