 Q-Chem 5.4, Q-Chem, Inc., Pleasanton, CA (2021)
 Q-Chem 5.4.0 for Intel X86 EM64T Linux

User input:
--------------------------------------------------------------
$molecule
-1 2
C                  4.0673440000      1.6596040000      0.1972350000
C                  3.2449780000      0.4812870000      0.6439810000
O                  3.0118830000      0.1773440000      1.7843120000
O                  2.8335840000     -0.2378820000     -0.4388610000
C                  1.7795320000     -1.1474410000     -0.2908870000
C                  2.1118670000     -2.4812120000     -0.3672350000
C                  1.1000670000     -3.4593100000     -0.3268820000
C                 -0.2169360000     -3.0704060000     -0.2187500000
C                 -0.5758310000     -1.7076520000     -0.1477760000
C                 -2.0034630000     -1.3851760000     -0.0627160000
O                 -2.8825550000     -2.2810270000     -0.0364720000
C                 -2.3472440000      0.0342090000     -0.0199540000
C                 -3.7051110000      0.4167250000      0.0475290000
C                 -4.0699650000      1.7469880000      0.0896050000
C                 -3.0750970000      2.7490520000      0.0674030000
C                 -1.7422170000      2.3963170000      0.0031360000
C                 -1.3448930000      1.0412090000     -0.0441430000
C                  0.0861090000      0.7273420000     -0.1097950000
O                  0.9410720000      1.6507680000     -0.1053420000
C                  0.4378130000     -0.6933500000     -0.1765760000
H                  4.7442250000      1.3782850000     -0.6121290000
H                  4.6235380000      2.0637040000      1.0421130000
H                  3.3658030000      2.4053540000     -0.1830940000
H                  3.1573980000     -2.7514290000     -0.4603750000
H                  1.3637460000     -4.5106370000     -0.3820000000
H                 -1.0235920000     -3.7928140000     -0.1900830000
H                 -4.4445460000     -0.3755300000      0.0650850000
H                 -5.1186690000      2.0243010000      0.1413550000
H                 -3.3598350000      3.7964850000      0.1026930000
H                 -0.9590060000      3.1448910000     -0.0113770000
$end
$rem
MAX_SCF_CYCLES=200
BASIS  =  6-311++G(d,p)
GUI  =  2
JOB_TYPE  =  SP
METHOD  =  B3LYP
SOLVENT_METHOD = PCM
$end
$pcm
theory = CPCM
$end
$solvent
dielectric 37.219
opticaldielectric 1.43
$end

--------------------------------------------------------------

             Standard Nuclear Orientation (Angstroms)
    I     Atom           X                Y                Z
 ----------------------------------------------------------------
    1      C       4.0673440000     1.6596040000     0.1972350000
    2      C       3.2449780000     0.4812870000     0.6439810000
    3      O       3.0118830000     0.1773440000     1.7843120000
    4      O       2.8335840000    -0.2378820000    -0.4388610000
    5      C       1.7795320000    -1.1474410000    -0.2908870000
    6      C       2.1118670000    -2.4812120000    -0.3672350000
    7      C       1.1000670000    -3.4593100000    -0.3268820000
    8      C      -0.2169360000    -3.0704060000    -0.2187500000
    9      C      -0.5758310000    -1.7076520000    -0.1477760000
   10      C      -2.0034630000    -1.3851760000    -0.0627160000
   11      O      -2.8825550000    -2.2810270000    -0.0364720000
   12      C      -2.3472440000     0.0342090000    -0.0199540000
   13      C      -3.7051110000     0.4167250000     0.0475290000
   14      C      -4.0699650000     1.7469880000     0.0896050000
   15      C      -3.0750970000     2.7490520000     0.0674030000
   16      C      -1.7422170000     2.3963170000     0.0031360000
   17      C      -1.3448930000     1.0412090000    -0.0441430000
   18      C       0.0861090000     0.7273420000    -0.1097950000
   19      O       0.9410720000     1.6507680000    -0.1053420000
   20      C       0.4378130000    -0.6933500000    -0.1765760000
   21      H       4.7442250000     1.3782850000    -0.6121290000
   22      H       4.6235380000     2.0637040000     1.0421130000
   23      H       3.3658030000     2.4053540000    -0.1830940000
   24      H       3.1573980000    -2.7514290000    -0.4603750000
   25      H       1.3637460000    -4.5106370000    -0.3820000000
   26      H      -1.0235920000    -3.7928140000    -0.1900830000
   27      H      -4.4445460000    -0.3755300000     0.0650850000
   28      H      -5.1186690000     2.0243010000     0.1413550000
   29      H      -3.3598350000     3.7964850000     0.1026930000
   30      H      -0.9590060000     3.1448910000    -0.0113770000
 ----------------------------------------------------------------

    8    -917.0440416254      7.44e-06  Convergence criterion met
 Total energy in the final basis set =     -917.0440416254

                    Orbital Energies (a.u.)
 --------------------------------------------------------------

 Alpha MOs
 -- Occupied --
-19.1724 -19.1212 -19.0795 -19.0795 -10.3127 -10.2415 -10.2324 -10.2288
-10.1860 -10.1801 -10.1776 -10.1765 -10.1756 -10.1747 -10.1737 -10.1733
-10.1717 -10.1712 -10.1708 -10.1701  -1.1169  -1.0372  -1.0084  -1.0059
 -0.8672  -0.8550  -0.7906  -0.7760  -0.7522  -0.7442  -0.7343  -0.6746
 -0.6489  -0.6285  -0.6193  -0.5761  -0.5475  -0.5367  -0.5230  -0.4966
 -0.4859  -0.4839  -0.4764  -0.4641  -0.4581  -0.4509  -0.4282  -0.4251
 -0.4192  -0.4160  -0.4110  -0.4061  -0.3980  -0.3876  -0.3857  -0.3755
 -0.3679  -0.3596  -0.3514  -0.3430  -0.3384  -0.3252  -0.2924  -0.2728
 -0.2588  -0.2569  -0.2528  -0.2506  -0.2397  -0.1459

 Beta MOs
 -- Occupied --
-19.1724 -19.1212 -19.0744 -19.0742 -10.3127 -10.2414 -10.2306 -10.2269
-10.1853 -10.1792 -10.1769 -10.1759 -10.1749 -10.1741 -10.1733 -10.1728
-10.1717 -10.1711 -10.1707 -10.1701  -1.1168  -1.0371  -0.9992  -0.9965
 -0.8646  -0.8538  -0.7866  -0.7749  -0.7502  -0.7424  -0.7332  -0.6675
 -0.6475  -0.6264  -0.6175  -0.5748  -0.5452  -0.5347  -0.5217  -0.4962
 -0.4851  -0.4832  -0.4738  -0.4633  -0.4566  -0.4501  -0.4248  -0.4195
 -0.4168  -0.4113  -0.4072  -0.4037  -0.3967  -0.3868  -0.3760  -0.3655
 -0.3622  -0.3582  -0.3498  -0.3372  -0.3315  -0.3241  -0.2922  -0.2554
 -0.2525  -0.2478  -0.2473  -0.2456  -0.2350

          Ground-State Mulliken Net Atomic Charges

     Atom                 Charge (a.u.)    Spin (a.u.)
  --------------------------------------------------------
      1 C                    -0.487034       0.002345
      2 C                     0.081786      -0.001021
      3 O                    -0.308854      -0.000523
      4 O                    -0.015252      -0.000954
      5 C                    -0.134761       0.041719
      6 C                     0.097890       0.040034
      7 C                    -0.470256       0.051006
      8 C                    -0.075561       0.028697
      9 C                     0.525664       0.053506
     10 C                    -0.508569       0.104953
     11 O                    -0.469163       0.195882
     12 C                    -0.057374       0.006085
     13 C                    -0.028990       0.029399
     14 C                    -0.505652       0.030081
     15 C                    -0.418791       0.035677
     16 C                     0.070332       0.032399
     17 C                     0.068280       0.019232
     18 C                    -0.290609       0.097566
     19 O                    -0.444611       0.205517
     20 C                     0.477307       0.046264
     21 H                     0.183827       0.000372
     22 H                     0.170424      -0.000249
     23 H                     0.204793      -0.000682
     24 H                     0.214536      -0.003585
     25 H                     0.213956      -0.003701
     26 H                     0.172077      -0.001501
     27 H                     0.168714      -0.001767
     28 H                     0.198846      -0.002554
     29 H                     0.203350      -0.003025
     30 H                     0.163696      -0.001171
  --------------------------------------------------------
  Sum of atomic charges =    -1.000000

                    Cartesian Multipole Moments
 -----------------------------------------------------------------
    Charge (ESU x 10^10)
                -4.8032
    Dipole Moment (Debye)
         X       3.7383      Y       2.5374      Z      -2.2555
       Tot       5.0498
    Quadrupole Moments (Debye-Ang)
        XX    -131.4562     XY     -17.6327     YY    -124.7750
        XZ      -7.7496     YZ       1.0558     ZZ    -129.5297

 Total job time:  101.42s(wall), 473.52s(cpu)
        *  Thank you very much for using Q-Chem.  Have a nice day.  *
