 Gaussian 16, Revision A.03,
 Gaussian 16:  ES64L-G16RevA.03 25-Dec-2016

 --------------------------------------
 #P UB3LYP/6-311++G(d,p) nosym opt freq
 --------------------------------------

 -------
 Radical
 -------
 Symbolic Z-matrix:
 Charge = -1 Multiplicity = 2

 SCF Done:  E(UB3LYP) =  -916.963204977     A.U. after   21 cycles
 Optimization completed.
    -- Stationary point found.
 Normal termination of Gaussian 16 at Wed Dec 27 19:55:32 2023.

 ----------------------------------------------------------------------
 #P Geom=AllCheck Guess=TCheck SCRF=Check GenChk UB3LYP/6-311++G(d,p) F
 req
 ----------------------------------------------------------------------

 Structure from the checkpoint file:  "143-rad.chk"
 -------
 Radical
 -------
 Charge = -1 Multiplicity = 2

                          Input orientation:
 ---------------------------------------------------------------------
 Center     Atomic      Atomic             Coordinates (Angstroms)
 Number     Number       Type             X           Y           Z
 ---------------------------------------------------------------------
      1          6           0        4.067344    1.659604    0.197235
      2          6           0        3.244978    0.481287    0.643981
      3          8           0        3.011883    0.177344    1.784312
      4          8           0        2.833584   -0.237882   -0.438861
      5          6           0        1.779532   -1.147441   -0.290887
      6          6           0        2.111867   -2.481212   -0.367235
      7          6           0        1.100067   -3.459310   -0.326882
      8          6           0       -0.216936   -3.070406   -0.218750
      9          6           0       -0.575831   -1.707652   -0.147776
     10          6           0       -2.003463   -1.385176   -0.062716
     11          8           0       -2.882555   -2.281027   -0.036472
     12          6           0       -2.347244    0.034209   -0.019954
     13          6           0       -3.705111    0.416725    0.047529
     14          6           0       -4.069965    1.746988    0.089605
     15          6           0       -3.075097    2.749052    0.067403
     16          6           0       -1.742217    2.396317    0.003136
     17          6           0       -1.344893    1.041209   -0.044143
     18          6           0        0.086109    0.727342   -0.109795
     19          8           0        0.941072    1.650768   -0.105342
     20          6           0        0.437813   -0.693350   -0.176576
     21          1           0        4.744225    1.378285   -0.612129
     22          1           0        4.623538    2.063704    1.042113
     23          1           0        3.365803    2.405354   -0.183094
     24          1           0        3.157398   -2.751429   -0.460375
     25          1           0        1.363746   -4.510637   -0.382000
     26          1           0       -1.023592   -3.792814   -0.190083
     27          1           0       -4.444546   -0.375530    0.065085
     28          1           0       -5.118669    2.024301    0.141355
     29          1           0       -3.359835    3.796485    0.102693
     30          1           0       -0.959006    3.144891   -0.011377
 ---------------------------------------------------------------------

 SCF Done:  E(UB3LYP) =  -916.963204977     A.U. after    1 cycles

 Alpha  occ. eigenvalues --  -19.05536 -19.00113 -18.95312 -18.95199 -10.19659
 Alpha  occ. eigenvalues --  -10.12449 -10.10697 -10.10220 -10.07386 -10.06569
 Alpha  occ. eigenvalues --  -10.06514 -10.06386 -10.06339 -10.06292 -10.05927
 Alpha  occ. eigenvalues --  -10.05644 -10.05616 -10.05569 -10.05542 -10.05481
 Alpha  occ. eigenvalues --   -0.99872  -0.91729  -0.88048  -0.87767  -0.74851
 Alpha  occ. eigenvalues --   -0.73869  -0.67341  -0.66476  -0.63560  -0.62849
 Alpha  occ. eigenvalues --   -0.62505  -0.55515  -0.53455  -0.51238  -0.50482
 Alpha  occ. eigenvalues --   -0.46050  -0.43225  -0.42077  -0.40428  -0.38377
 Alpha  occ. eigenvalues --   -0.37092  -0.36817  -0.35910  -0.35211  -0.34444
 Alpha  occ. eigenvalues --   -0.33856  -0.31207  -0.30975  -0.30305  -0.30121
 Alpha  occ. eigenvalues --   -0.28931  -0.28837  -0.28512  -0.27679  -0.26598
 Alpha  occ. eigenvalues --   -0.25632  -0.25101  -0.24412  -0.23628  -0.22327
 Alpha  occ. eigenvalues --   -0.22124  -0.20522  -0.17272  -0.15072  -0.14111
 Alpha  occ. eigenvalues --   -0.13655  -0.13586  -0.12240  -0.11300  -0.02191
 Alpha virt. eigenvalues --    0.06162   0.07844   0.08104   0.08589   0.08932
 Alpha virt. eigenvalues --    0.09982   0.10359   0.10835   0.11326   0.11604
 Alpha virt. eigenvalues --    0.11958   0.12669   0.13932   0.14331   0.14938

  Beta  occ. eigenvalues --  -19.05534 -19.00112 -18.94716 -18.94606 -10.19657
  Beta  occ. eigenvalues --  -10.12451 -10.10549 -10.10096 -10.07387 -10.06498
  Beta  occ. eigenvalues --  -10.06429 -10.06332 -10.06293 -10.06245 -10.05811
  Beta  occ. eigenvalues --  -10.05653 -10.05609 -10.05560 -10.05501 -10.05398
  Beta  occ. eigenvalues --   -0.99866  -0.91721  -0.87035  -0.86729  -0.74600
  Beta  occ. eigenvalues --   -0.73749  -0.66960  -0.66379  -0.63382  -0.62651
  Beta  occ. eigenvalues --   -0.62387  -0.54831  -0.53326  -0.51048  -0.50289
  Beta  occ. eigenvalues --   -0.45934  -0.42992  -0.41905  -0.40317  -0.38347
  Beta  occ. eigenvalues --   -0.37030  -0.36756  -0.35643  -0.35131  -0.34308
  Beta  occ. eigenvalues --   -0.33787  -0.31147  -0.30948  -0.30020  -0.29526
  Beta  occ. eigenvalues --   -0.28528  -0.28378  -0.28172  -0.27498  -0.26401
  Beta  occ. eigenvalues --   -0.24863  -0.24307  -0.23653  -0.23202  -0.21953
  Beta  occ. eigenvalues --   -0.21172  -0.20385  -0.17255  -0.13754  -0.13068
  Beta  occ. eigenvalues --   -0.12895  -0.12520  -0.11688  -0.10755
  Beta virt. eigenvalues --    0.03743   0.07014   0.07844   0.08097   0.08585
  Beta virt. eigenvalues --    0.09940   0.10044   0.10397   0.10926   0.11390
  Beta virt. eigenvalues --    0.11641   0.11960   0.12669   0.13928   0.14332

 Mulliken charges and spin densities:
               1          2
     1  C   -0.456825   0.003059
     2  C   -0.023143  -0.002558
     3  O   -0.221994  -0.000262
     4  O    0.003476  -0.001348
     5  C   -0.108425   0.036433
     6  C    0.154215   0.040105
     7  C   -0.391795   0.058705
     8  C   -0.046555   0.011507
     9  C    0.563543   0.071405
    10  C   -0.748747   0.061609
    11  O   -0.356985   0.221353
    12  C   -0.002756   0.024993
    13  C   -0.026053   0.014424
    14  C   -0.419506   0.037103
    15  C   -0.369511   0.035944
    16  C    0.094017   0.025489
    17  C    0.154641   0.029304
    18  C   -0.416078   0.069349
    19  O   -0.348259   0.226584
    20  C    0.499224   0.054735
    21  H    0.138360   0.000406
    22  H    0.134393  -0.000299
    23  H    0.202703  -0.000814
    24  H    0.140588  -0.003715
    25  H    0.137880  -0.004376
    26  H    0.158998  -0.000767
    27  H    0.155117  -0.001206
    28  H    0.124507  -0.003123
    29  H    0.129284  -0.003103
    30  H    0.145686  -0.000936
 Sum of Mulliken charges =  -1.00000   1.00000

 Dipole moment (field-independent basis, Debye):
    X=              3.0842    Y=              2.0131    Z=             -1.6253  Tot=              4.0257
 Quadrupole moment (field-independent basis, Debye-Ang):
   XX=           -143.5798   YY=           -133.2809   ZZ=           -129.0027
   XY=             -9.4566   XZ=             -6.1364   YZ=              0.0865

  Exact polarizability: 308.968 -35.787 288.236  -4.868   9.331 119.729
 Approx polarizability: 479.457 -23.642 485.046 -16.468  10.435 197.409

                      1                      2                      3
                      A                      A                      A
 Frequencies --     39.6013                52.3842                76.0242
 Red. masses --      8.1006                 6.3450                 5.8811
 Frc consts  --      0.0075                 0.0103                 0.0200
 IR Inten    --      2.4185                 1.3372                 3.6868

                      4                      5                      6
                      A                      A                      A
 Frequencies --    102.0704               118.4178               121.9135
 Red. masses --      3.1184                 4.6696                 1.1339
 Frc consts  --      0.0191                 0.0386                 0.0099
 IR Inten    --      5.5261                 1.1594                 0.2089

                      7                      8                      9
                      A                      A                      A
 Frequencies --    141.5216               167.7134               219.7045
 Red. masses --      6.3625                 7.8194                 5.1268
 Frc consts  --      0.0751                 0.1296                 0.1458
 IR Inten    --      0.9368                 2.4623                 1.1877

                     10                     11                     12
                      A                      A                      A
 Frequencies --    221.9672               284.2477               308.7541
 Red. masses --      5.4674                 6.1313                 6.2916
 Frc consts  --      0.1587                 0.2919                 0.3534
 IR Inten    --      4.3456                 0.4914                 2.3813

                     13                     14                     15
                      A                      A                      A
 Frequencies --    312.1023               350.6762               391.7173
 Red. masses --      4.4231                 6.6054                11.6184
 Frc consts  --      0.2538                 0.4786                 1.0504
 IR Inten    --      1.2499                 0.4429                 8.1896

                     16                     17                     18
                      A                      A                      A
 Frequencies --    412.7447               417.1578               438.8277
 Red. masses --      6.6649                 6.2062                 3.4670
 Frc consts  --      0.6690                 0.6363                 0.3934
 IR Inten    --      1.0514                 0.0240                 0.6947

                     19                     20                     21
                      A                      A                      A
 Frequencies --    466.5376               495.7561               499.7198
 Red. masses --      6.7949                 9.7919                 4.0934
 Frc consts  --      0.8714                 1.4179                 0.6023
 IR Inten    --      0.5773                 1.4960                 0.3403

                     22                     23                     24
                      A                      A                      A
 Frequencies --    545.6257               550.8562               568.4713
 Red. masses --      4.9959                 4.9979                 3.2335
 Frc consts  --      0.8763                 0.8935                 0.6157
 IR Inten    --      6.1408                12.1061                 7.6933

                     25                     26                     27
                      A                      A                      A
 Frequencies --    614.9848               637.8563               657.8255
 Red. masses --      6.3731                 4.8927                 6.0856
 Frc consts  --      1.4201                 1.1729                 1.5516
 IR Inten    --     13.6667                 2.6114                 4.1404

                     28                     29                     30
                      A                      A                      A
 Frequencies --    689.7096               696.5876               709.6538
 Red. masses --      3.7609                 5.7668                 3.3225
 Frc consts  --      1.0541                 1.6487                 0.9859
 IR Inten    --     30.8846                 8.5041                35.9875

                     31                     32                     33
                      A                      A                      A
 Frequencies --    737.2353               771.3250               786.0691
 Red. masses --      2.4034                 1.9403                 2.0878
 Frc consts  --      0.7696                 0.6801                 0.7601
 IR Inten    --      1.2317                 1.7603                38.4897

                     34                     35                     36
                      A                      A                      A
 Frequencies --    794.6530               817.4635               860.3062
 Red. masses --      5.3684                 3.9280                 3.7453
 Frc consts  --      1.9973                 1.5465                 1.6332
 IR Inten    --      4.1712                 5.0654                20.4482

                     37                     38                     39
                      A                      A                      A
 Frequencies --    871.2269               891.9566               925.7258
 Red. masses --      1.5092                 1.9326                 4.4237
 Frc consts  --      0.6749                 0.9059                 2.2336
 IR Inten    --      0.1759                13.9182                29.1050

                     40                     41                     42
                      A                      A                      A
 Frequencies --    936.6443               980.4861               984.0844
 Red. masses --      6.5548                 1.2965                 1.3329
 Frc consts  --      3.3881                 0.7343                 0.7605
 IR Inten    --      0.4273                 0.0363                 2.7859

                     43                     44                     45
                      A                      A                      A
 Frequencies --    985.3927               999.2059              1033.3868
 Red. masses --      1.2865                 2.8760                 2.2784
 Frc consts  --      0.7360                 1.6918                 1.4335
 IR Inten    --      0.5084                 4.0609                49.9479

                     46                     47                     48
                      A                      A                      A
 Frequencies --   1045.0529              1055.9935              1078.9054
 Red. masses --      2.1266                 1.8157                 1.9206
 Frc consts  --      1.3684                 1.1929                 1.3172
 IR Inten    --     47.8328                48.2249                32.8392

                     49                     50                     51
                      A                      A                      A
 Frequencies --   1110.9737              1141.8833              1171.5066
 Red. masses --      2.1208                 1.4608                 1.1673
 Frc consts  --      1.5423                 1.1222                 0.9439
 IR Inten    --     12.8372                21.9483                 7.1823

                     52                     53                     54
                      A                      A                      A
 Frequencies --   1182.9046              1203.0932              1216.9505
 Red. masses --      3.0642                 2.3092                 3.8392
 Frc consts  --      2.5262                 1.9693                 3.3500
 IR Inten    --     23.9404                23.2296               347.9510

                     55                     56                     57
                      A                      A                      A
 Frequencies --   1228.6294              1236.3789              1249.2564
 Red. masses --      2.7862                 3.2676                 1.8947
 Frc consts  --      2.4780                 2.9429                 1.7422
 IR Inten    --     74.7286                68.3777                84.0297

                     58                     59                     60
                      A                      A                      A
 Frequencies --   1337.0357              1354.5223              1365.0559
 Red. masses --      3.5876                 4.5047                10.6310
 Frc consts  --      3.7787                 4.8695                11.6714
 IR Inten    --     13.6481                14.4022                 5.2933

                     61                     62                     63
                      A                      A                      A
 Frequencies --   1379.4469              1412.7604              1439.6885
 Red. masses --      1.3614                 3.3947                 2.6611
 Frc consts  --      1.5263                 3.9920                 3.2497
 IR Inten    --    144.4030               271.7373                99.8808

                     64                     65                     66
                      A                      A                      A
 Frequencies --   1470.7861              1480.9361              1481.8925
 Red. masses --      1.0678                 1.0660                 2.6526
 Frc consts  --      1.3609                 1.3775                 3.4320
 IR Inten    --      6.1015                11.3143                28.5099

                     67                     68                     69
                      A                      A                      A
 Frequencies --   1485.5947              1530.0086              1537.4093
 Red. masses --      3.0138                 5.3228                 7.6545
 Frc consts  --      3.9189                 7.3414                10.6597
 IR Inten    --      1.1570               438.9847               212.0124

                     70                     71                     72
                      A                      A                      A
 Frequencies --   1560.7461              1612.9672              1624.5115
 Red. masses --      5.8728                 7.4832                 6.2965
 Frc consts  --      8.4288                11.4707                 9.7903
 IR Inten    --    109.5903                 6.1042                12.6266

                     73                     74                     75
                      A                      A                      A
 Frequencies --   1631.9323              1804.5881              3045.5699
 Red. masses --      6.8584                11.6142                 1.0338
 Frc consts  --     10.7617                22.2841                 5.6499
 IR Inten    --      6.4197               260.0209                23.7982

                     76                     77                     78
                      A                      A                      A
 Frequencies --   3115.8619              3135.5585              3139.7553
 Red. masses --      1.1004                 1.0848                 1.1042
 Frc consts  --      6.2942                 6.2840                 6.4136
 IR Inten    --      6.8616                17.9725                17.0700

                     79                     80                     81
                      A                      A                      A
 Frequencies --   3150.6445              3154.5810              3179.4914
 Red. masses --      1.0866                 1.0914                 1.0921
 Frc consts  --      6.3548                 6.3988                 6.5045
 IR Inten    --     27.0014                50.9825                20.2114

                     82                     83                     84
                      A                      A                      A
 Frequencies --   3184.5911              3188.5330              3191.6440
 Red. masses --      1.0917                 1.0923                 1.0928
 Frc consts  --      6.5234                 6.5429                 6.5586
 IR Inten    --     14.5010                26.8954                15.1170

 - Thermochemistry -
 -------------------
 Temperature   298.150 Kelvin.  Pressure   1.00000 Atm.
 Atom     1 has atomic number  6 and mass  12.00000

 Molecular mass:   266.05791 amu.
 Principal axes and moments of inertia in atomic units:
                           1         2         3
     Eigenvalues --  3244.091756139.474258977.17083
           X            0.98429   0.16795  -0.05451
           Y           -0.17230   0.98104  -0.08870
           Z            0.03858   0.09670   0.99457
 This molecule is an asymmetric top.
 Rotational symmetry number  1.
 Warning -- assumption of classical behavior for rotation
           may cause significant error
 Rotational temperatures (Kelvin)      0.02670     0.01411     0.00965
 Rotational constants (GHZ):           0.55632     0.29396     0.20104
 Zero-point vibrational energy     571838.5 (Joules/Mol)
                                  136.67268 (Kcal/Mol)
 Warning -- explicit consideration of  25 degrees of freedom as
           vibrations may cause significant error
 Vibrational temperatures:     56.98    75.37   109.38   146.86   170.38
          (Kelvin)            175.41   203.62   241.30   316.11   319.36
                              408.97   444.23   449.05   504.54   563.59
                              593.85   600.20   631.38   671.24   713.28
                              718.99   785.03   792.56   817.90   884.83
                              917.73   946.46   992.34  1002.23  1021.03
                             1060.72  1109.76  1130.98  1143.33  1176.15
                             1237.79  1253.50  1283.33  1331.91  1347.62
                             1410.70  1415.88  1417.76  1437.63  1486.81
                             1503.60  1519.34  1552.30  1598.44  1642.92
                             1685.54  1701.94  1730.98  1750.92  1767.72
                             1778.87  1797.40  1923.70  1948.86  1964.01
                             1984.72  2032.65  2071.39  2116.13  2130.74
                             2132.11  2137.44  2201.34  2211.99  2245.57
                             2320.70  2337.31  2347.99  2596.40  4381.90
                             4483.03  4511.37  4517.41  4533.07  4538.74
                             4574.58  4581.92  4587.59  4592.06

 Zero-point correction=                           0.217802 (Hartree/Particle)
 Thermal correction to Energy=                    0.233597
 Thermal correction to Enthalpy=                  0.234541
 Thermal correction to Gibbs Free Energy=         0.173600
 Sum of electronic and zero-point Energies=           -916.745403
 Sum of electronic and thermal Energies=              -916.729608
 Sum of electronic and thermal Enthalpies=            -916.728664
 Sum of electronic and thermal Free Energies=         -916.789605

                     E (Thermal)             CV                S
                      KCal/Mol        Cal/Mol-Kelvin    Cal/Mol-Kelvin
 Total                  146.584             62.087            128.261
 Electronic               0.000              0.000              1.377
 Translational            0.889              2.981             42.635
 Rotational               0.889              2.981             33.547
 Vibrational            144.807             56.125             50.702
 Vibration     1          0.594              1.981              5.279
 Vibration     2          0.596              1.977              4.725
 Vibration     3          0.599              1.965              3.991
 Vibration     4          0.604              1.948              3.414
 Vibration     5          0.609              1.934              3.126
 Vibration     6          0.609              1.931              3.070
 Vibration     7          0.615              1.912              2.783
 Vibration     8          0.624              1.882              2.461
 Vibration     9          0.647              1.811              1.962
 Vibration    10          0.648              1.808              1.943
 Vibration    11          0.683              1.703              1.508
 Vibration    12          0.698              1.657              1.369
 Vibration    13          0.700              1.651              1.351
 Vibration    14          0.728              1.574              1.163
 Vibration    15          0.759              1.488              0.994
 Vibration    16          0.777              1.443              0.917
 Vibration    17          0.780              1.433              0.902
 Vibration    18          0.799              1.386              0.830
 Vibration    19          0.824              1.324              0.747
 Vibration    20          0.851              1.259              0.669
 Vibration    21          0.855              1.251              0.659
 Vibration    22          0.901              1.149              0.553
 Vibration    23          0.906              1.138              0.542
 Vibration    24          0.924              1.099              0.507
 Vibration    25          0.974              1.000              0.425

                           ! Non-Optimized Parameters !
 Normal termination of Gaussian 16 at Wed Dec 27 21:34:44 2023.
