 Gaussian 16, Revision A.03,
 Gaussian 16:  ES64L-G16RevA.03 25-Dec-2016

 --------------------------------------
 #P UB3LYP/6-311++G(d,p) nosym opt freq
 --------------------------------------

 -------
 Reduced
 -------
 Symbolic Z-matrix:
 Charge = -2 Multiplicity = 1

 SCF Done:  E(UB3LYP) =  -460.149678389     A.U. after   69 cycles
 SCF Done:  E(UB3LYP) =  -460.178025534     A.U. after   37 cycles
 SCF Done:  E(UB3LYP) =  -460.182718878     A.U. after   39 cycles
 SCF Done:  E(UB3LYP) =  -460.183078105     A.U. after   39 cycles
 SCF Done:  E(UB3LYP) =  -460.183229278     A.U. after   31 cycles
 SCF Done:  E(UB3LYP) =  -460.183263026     A.U. after   39 cycles
 SCF Done:  E(UB3LYP) =  -460.183387841     A.U. after   28 cycles
 SCF Done:  E(UB3LYP) =  -460.183619634     A.U. after   30 cycles
 SCF Done:  E(UB3LYP) =  -460.183818435     A.U. after   32 cycles
 SCF Done:  E(UB3LYP) =  -460.183839710     A.U. after   30 cycles
 SCF Done:  E(UB3LYP) =  -460.183876572     A.U. after   36 cycles
 SCF Done:  E(UB3LYP) =  -460.183934376     A.U. after   30 cycles
 SCF Done:  E(UB3LYP) =  -460.183953844     A.U. after   31 cycles
 SCF Done:  E(UB3LYP) =  -460.183955524     A.U. after   28 cycles
 SCF Done:  E(UB3LYP) =  -460.183968532     A.U. after   28 cycles
 SCF Done:  E(UB3LYP) =  -460.183972550     A.U. after   37 cycles
 SCF Done:  E(UB3LYP) =  -460.183974087     A.U. after   30 cycles
 SCF Done:  E(UB3LYP) =  -460.183974156     A.U. after   28 cycles
 Optimization completed.
    -- Stationary point found.
 Normal termination of Gaussian 16 at Sun Dec 17 21:38:32 2023.

 ----------------------------------------------------------------------
 #P Geom=AllCheck Guess=TCheck SCRF=Check GenChk UB3LYP/6-311++G(d,p) F
 req
 ----------------------------------------------------------------------

 Structure from the checkpoint file:  "038-an.chk"
 -------
 Reduced
 -------
 Charge = -2 Multiplicity = 1

                          Input orientation:
 ---------------------------------------------------------------------
 Center     Atomic      Atomic             Coordinates (Angstroms)
 Number     Number       Type             X           Y           Z
 ---------------------------------------------------------------------
      1          6           0        2.903429    0.261010   -0.078057
      2          6           0        1.401241    0.129026   -0.042480
      3          6           0        0.790588   -0.963302    0.581742
      4          6           0       -0.624103   -1.165531    0.669362
      5          8           0       -1.171917   -2.196433    1.246871
      6          6           0       -1.401768   -0.130207    0.040981
      7          6           0       -0.792407    0.962422   -0.585750
      8          6           0        0.621655    1.165740   -0.671546
      9          8           0        1.165138    2.192758   -1.257084
     10          6           0       -2.903011   -0.261286    0.083433
     11          1           0        3.394549   -0.544330    0.483350
     12          1           0        3.232802    1.223616    0.347671
     13          1           0        3.289048    0.255845   -1.105763
     14          1           0        1.416831   -1.740595    1.023767
     15          1           0       -1.417920    1.737903   -1.034277
     16          1           0       -3.258413   -0.425900    1.110242
     17          1           0       -3.389611    0.635017   -0.324214
     18          1           0       -3.256130   -1.135752   -0.488252
 ---------------------------------------------------------------------

 SCF Done:  E(UB3LYP) =  -460.183974156     A.U. after    6 cycles

 Alpha  occ. eigenvalues --  -18.74641 -18.74573  -9.90346  -9.90049  -9.90023
 Alpha  occ. eigenvalues --   -9.89497  -9.86919  -9.86786  -9.85847  -9.85698
 Alpha  occ. eigenvalues --   -0.65491  -0.65102  -0.52195  -0.48822  -0.43340
 Alpha  occ. eigenvalues --   -0.39404  -0.34976  -0.28917  -0.24330  -0.18663
 Alpha  occ. eigenvalues --   -0.15621  -0.14898  -0.14027  -0.13908  -0.12979
 Alpha  occ. eigenvalues --   -0.10899  -0.09071  -0.07974  -0.06678  -0.05333
 Alpha  occ. eigenvalues --   -0.04590  -0.03181   0.05056   0.05882   0.07821
 Alpha  occ. eigenvalues --    0.08011   0.15697
 Alpha virt. eigenvalues --    0.17598   0.18117   0.20616   0.21125   0.21879
 Alpha virt. eigenvalues --    0.22703   0.22992   0.23910   0.26754   0.28104
 Alpha virt. eigenvalues --    0.28319   0.29422   0.30198   0.30568   0.31196

  Beta  occ. eigenvalues --  -18.74641 -18.74573  -9.90346  -9.90049  -9.90023
  Beta  occ. eigenvalues --   -9.89497  -9.86919  -9.86786  -9.85847  -9.85698
  Beta  occ. eigenvalues --   -0.65491  -0.65102  -0.52195  -0.48822  -0.43340
  Beta  occ. eigenvalues --   -0.39404  -0.34976  -0.28917  -0.24330  -0.18663
  Beta  occ. eigenvalues --   -0.15621  -0.14898  -0.14027  -0.13908  -0.12979
  Beta  occ. eigenvalues --   -0.10899  -0.09071  -0.07974  -0.06678  -0.05333
  Beta  occ. eigenvalues --   -0.04590  -0.03181   0.05056   0.05882   0.07821
  Beta  occ. eigenvalues --    0.08011   0.15697
  Beta virt. eigenvalues --    0.17598   0.18117   0.20616   0.21125   0.21879
  Beta virt. eigenvalues --    0.22703   0.22992   0.23910   0.26754   0.28104
  Beta virt. eigenvalues --    0.28319   0.29422   0.30198   0.30568   0.31196

 Mulliken charges and spin densities:
               1          2
     1  C    1.377116   0.000000
     2  C   -0.235085  -0.000000
     3  C    0.317975   0.000000
     4  C   -0.919074   0.000000
     5  O   -0.567912   0.000000
     6  C    1.504331  -0.000000
     7  C   -0.186061   0.000000
     8  C   -1.759497  -0.000000
     9  O   -0.570580   0.000000
    10  C   -0.551446  -0.000000
    11  H   -0.675563  -0.000000
    12  H   -0.146865  -0.000000
    13  H    0.122027  -0.000000
    14  H    0.041290   0.000000
    15  H    0.005812   0.000000
    16  H    0.125641   0.000000
    17  H    0.094446  -0.000000
    18  H    0.023443  -0.000000
 Sum of Mulliken charges =  -2.00000   0.00000

 Dipole moment (field-independent basis, Debye):
    X=             -3.7822    Y=              0.1618    Z=             -1.0831  Tot=              3.9375
 Quadrupole moment (field-independent basis, Debye-Ang):
   XX=           -117.4908   YY=           -110.3168   ZZ=            -85.8243
   XY=            -18.1194   XZ=              3.1220   YZ=             20.1197

  Exact polarizability:1794.536 102.190 429.085 499.683  38.344 392.535
 Approx polarizability:2089.832 -21.797 365.795 428.657 -71.331 312.060

                      1                      2                      3
                      A                      A                      A
 Frequencies --     91.0129               110.1085               151.1498
 Red. masses --      1.1200                 3.0840                 1.3742
 Frc consts  --      0.0055                 0.0220                 0.0185
 IR Inten    --     13.3095                 2.0487                 9.0365

                      4                      5                      6
                      A                      A                      A
 Frequencies --    175.9615               252.1071               278.9371
 Red. masses --      2.3642                 3.4258                 2.6160
 Frc consts  --      0.0431                 0.1283                 0.1199
 IR Inten    --     34.0611                 6.4347                 7.5431

                      7                      8                      9
                      A                      A                      A
 Frequencies --    284.2459               340.5051               359.7163
 Red. masses --      3.5634                 6.2866                 9.6137
 Frc consts  --      0.1696                 0.4294                 0.7329
 IR Inten    --      1.9924                42.8665                56.3969

                     10                     11                     12
                      A                      A                      A
 Frequencies --    412.2441               449.1828               498.8163
 Red. masses --      6.5040                 2.9288                 6.9766
 Frc consts  --      0.6512                 0.3482                 1.0228
 IR Inten    --    775.1513                 8.6219               241.2810

                     13                     14                     15
                      A                      A                      A
 Frequencies --    613.4077               647.0960               697.2395
 Red. masses --      3.5817                 2.8914                 2.4010
 Frc consts  --      0.7940                 0.7133                 0.6877
 IR Inten    --      3.3428               496.1160               146.3033

                     16                     17                     18
                      A                      A                      A
 Frequencies --    701.8616               727.5747               793.5649
 Red. masses --      4.7864                 6.3577                 1.8470
 Frc consts  --      1.3892                 1.9829                 0.6853
 IR Inten    --     36.4585                22.0649               177.0501

                     19                     20                     21
                      A                      A                      A
 Frequencies --    837.4208               840.2057               979.8799
 Red. masses --      2.6045                 1.7582                 1.6238
 Frc consts  --      1.0761                 0.7313                 0.9186
 IR Inten    --     27.2492                23.0681               284.0130

                     22                     23                     24
                      A                      A                      A
 Frequencies --   1000.4463              1029.5245              1050.2178
 Red. masses --      1.4354                 1.4197                 1.4703
 Frc consts  --      0.8464                 0.8866                 0.9554
 IR Inten    --    730.7967               100.2570               130.1077

                     25                     26                     27
                      A                      A                      A
 Frequencies --   1112.8652              1144.5710              1189.5816
 Red. masses --      5.6619                 2.4278                 5.0893
 Frc consts  --      4.1314                 1.8739                 4.2432
 IR Inten    --     15.2810                24.8951               134.1558

                     28                     29                     30
                      A                      A                      A
 Frequencies --   1222.2302              1287.6243              1338.3237
 Red. masses --      1.3724                 3.0544                 4.8461
 Frc consts  --      1.2079                 2.9837                 5.1141
 IR Inten    --    818.9996               152.8103              2105.2167

                     31                     32                     33
                      A                      A                      A
 Frequencies --   1360.7777              1382.2712              1417.0926
 Red. masses --      1.4176                 1.4377                 4.2514
 Frc consts  --      1.5466                 1.6184                 5.0301
 IR Inten    --    379.3993                28.5279               539.8052

                     34                     35                     36
                      A                      A                      A
 Frequencies --   1437.7452              1451.1159              1457.4879
 Red. masses --      1.1071                 2.2033                 1.1833
 Frc consts  --      1.3484                 2.7336                 1.4811
 IR Inten    --    456.2076               959.3450               140.0988

                     37                     38                     39
                      A                      A                      A
 Frequencies --   1475.8780              1481.9338              1491.6083
 Red. masses --      3.1909                 1.3937                 1.1882
 Frc consts  --      4.0951                 1.8034                 1.5576
 IR Inten    --    401.3636               186.2393                96.9402

                     40                     41                     42
                      A                      A                      A
 Frequencies --   1582.5094              2897.5724              2934.3606
 Red. masses --      4.7108                 1.0877                 1.0522
 Frc consts  --      6.9508                 5.3804                 5.3378
 IR Inten    --   1940.8490              9430.5731               155.4845

                     43                     44                     45
                      A                      A                      A
 Frequencies --   2951.7443              2980.5898              3015.8973
 Red. masses --      1.0423                 1.0785                 1.1000
 Frc consts  --      5.3507                 5.6449                 5.8950
 IR Inten    --    561.6428               996.2093                52.6962

                     46                     47                     48
                      A                      A                      A
 Frequencies --   3024.3716              3063.6843              3073.9714
 Red. masses --      1.1003                 1.0862                 1.0868
 Frc consts  --      5.9295                 6.0067                 6.0506
 IR Inten    --     23.1246               253.3906               391.7003

 - Thermochemistry -
 -------------------
 Temperature   298.150 Kelvin.  Pressure   1.00000 Atm.
 Atom     1 has atomic number  6 and mass  12.00000

 Molecular mass:   136.05243 amu.
 Principal axes and moments of inertia in atomic units:
                           1         2         3
     Eigenvalues --   775.460301674.479952427.92824
           X            0.83028  -0.55694  -0.02139
           Y            0.48995   0.71104   0.50436
           Z           -0.26569  -0.42924   0.86323
 This molecule is an asymmetric top.
 Rotational symmetry number  1.
 Warning -- assumption of classical behavior for rotation
           may cause significant error
 Rotational temperatures (Kelvin)      0.11169     0.05173     0.03567
 Rotational constants (GHZ):           2.32732     1.07779     0.74333
 Zero-point vibrational energy     353485.9 (Joules/Mol)
                                   84.48517 (Kcal/Mol)
 Warning -- explicit consideration of  13 degrees of freedom as
           vibrations may cause significant error
 Vibrational temperatures:    130.95   158.42   217.47   253.17   362.73
          (Kelvin)            401.33   408.97   489.91   517.55   593.13
                              646.27   717.69   882.56   931.03  1003.17
                             1009.82  1046.82  1141.76  1204.86  1208.87
                             1409.83  1439.42  1481.26  1511.03  1601.16
                             1646.78  1711.54  1758.52  1852.60  1925.55
                             1957.86  1988.78  2038.88  2068.59  2087.83
                             2097.00  2123.46  2132.17  2146.09  2276.88
                             4168.96  4221.89  4246.90  4288.40  4339.20
                             4351.40  4407.96  4422.76

 Zero-point correction=                           0.134636 (Hartree/Particle)
 Thermal correction to Energy=                    0.144189
 Thermal correction to Enthalpy=                  0.145133
 Thermal correction to Gibbs Free Energy=         0.100193
 Sum of electronic and zero-point Energies=           -460.049338
 Sum of electronic and thermal Energies=              -460.039785
 Sum of electronic and thermal Enthalpies=            -460.038841
 Sum of electronic and thermal Free Energies=         -460.083781

                     E (Thermal)             CV                S
                      KCal/Mol        Cal/Mol-Kelvin    Cal/Mol-Kelvin
 Total                   90.480             35.775             94.584
 Electronic               0.000              0.000              0.000
 Translational            0.889              2.981             40.636
 Rotational               0.889              2.981             29.534
 Vibrational             88.703             29.813             24.414
 Vibration     1          0.602              1.956              3.638
 Vibration     2          0.606              1.941              3.267
 Vibration     3          0.619              1.901              2.658
 Vibration     4          0.628              1.872              2.371
 Vibration     5          0.664              1.759              1.716
 Vibration     6          0.679              1.713              1.540
 Vibration     7          0.683              1.703              1.508
 Vibration     8          0.720              1.595              1.210
 Vibration     9          0.734              1.555              1.123
 Vibration    10          0.776              1.444              0.919
 Vibration    11          0.808              1.363              0.798
 Vibration    12          0.854              1.253              0.661
 Vibration    13          0.973              1.003              0.427

 Optimization completed.
    -- Stationary point found.
 Normal termination of Gaussian 16 at Sun Dec 17 21:47:19 2023.
