 Gaussian 16, Revision A.03,
 Gaussian 16:  ES64L-G16RevA.03 25-Dec-2016

 --------------------------------------
 #P UB3LYP/6-311++G(d,p) nosym opt freq
 --------------------------------------

 -------
 Radical
 -------
 Symbolic Z-matrix:
 Charge = -1 Multiplicity = 2

 SCF Done:  E(UB3LYP) =  -763.242237145     A.U. after   23 cycles
 SCF Done:  E(UB3LYP) =  -763.268625712     A.U. after   18 cycles
 SCF Done:  E(UB3LYP) =  -763.275223150     A.U. after   20 cycles
 SCF Done:  E(UB3LYP) =  -763.276749029     A.U. after   17 cycles
 SCF Done:  E(UB3LYP) =  -763.276725236     A.U. after   17 cycles
 SCF Done:  E(UB3LYP) =  -763.276921609     A.U. after   15 cycles
 SCF Done:  E(UB3LYP) =  -763.277050465     A.U. after   14 cycles
 SCF Done:  E(UB3LYP) =  -763.277071725     A.U. after   16 cycles
 SCF Done:  E(UB3LYP) =  -763.277078687     A.U. after   14 cycles
 SCF Done:  E(UB3LYP) =  -763.277081439     A.U. after   12 cycles
 SCF Done:  E(UB3LYP) =  -763.277082336     A.U. after   12 cycles
 SCF Done:  E(UB3LYP) =  -763.277082771     A.U. after   11 cycles
 SCF Done:  E(UB3LYP) =  -763.277083182     A.U. after   11 cycles
 SCF Done:  E(UB3LYP) =  -763.277083778     A.U. after   11 cycles
 SCF Done:  E(UB3LYP) =  -763.277084315     A.U. after   10 cycles
 SCF Done:  E(UB3LYP) =  -763.277084485     A.U. after   11 cycles
 SCF Done:  E(UB3LYP) =  -763.277084572     A.U. after   11 cycles
 Optimization completed.
    -- Stationary point found.
 Normal termination of Gaussian 16 at Tue Dec 26 21:23:18 2023.

 ----------------------------------------------------------------------
 #P Geom=AllCheck Guess=TCheck SCRF=Check GenChk UB3LYP/6-311++G(d,p) F
 req
 ----------------------------------------------------------------------

 Structure from the checkpoint file:  "262-rad.chk"
 -------
 Radical
 -------
 Charge = -1 Multiplicity = 2

                          Input orientation:
 ---------------------------------------------------------------------
 Center     Atomic      Atomic             Coordinates (Angstroms)
 Number     Number       Type             X           Y           Z
 ---------------------------------------------------------------------
      1          6           0        3.578389   -1.436296    0.336176
      2          6           0        2.574438   -0.539737   -0.336546
      3          8           0        2.401877   -0.442183   -1.523236
      4          8           0        1.910173    0.199992    0.596576
      5          6           0        0.700117    0.811662    0.244832
      6          6           0        0.714569    2.188407    0.151134
      7          6           0       -0.479341    2.882704   -0.099272
      8          6           0       -1.659469    2.180216   -0.242985
      9          6           0       -1.687689    0.777011   -0.143084
     10          6           0       -2.993485    0.096358   -0.281258
     11          8           0       -4.053325    0.741670   -0.498132
     12          6           0       -2.966651   -1.331405   -0.144192
     13          6           0       -1.808685   -2.033261    0.089666
     14          6           0       -0.511973   -1.425988    0.216292
     15          8           0        0.522038   -2.125648    0.407664
     16          6           0       -0.483099    0.047785    0.102709
     17          1           0        4.088237   -0.911896    1.147048
     18          1           0        4.295709   -1.803648   -0.396735
     19          1           0        3.015005   -2.269148    0.762724
     20          1           0        1.657467    2.708289    0.276861
     21          1           0       -0.467598    3.965363   -0.177012
     22          1           0       -2.602195    2.680053   -0.431495
     23          1           0       -3.919425   -1.844673   -0.238493
     24          1           0       -1.825084   -3.115629    0.180758
 ---------------------------------------------------------------------

 SCF Done:  E(UB3LYP) =  -763.277084572     A.U. after    1 cycles

 Alpha  occ. eigenvalues --  -19.05188 -18.99776 -18.94608 -18.94451 -10.19331
 Alpha  occ. eigenvalues --  -10.12028 -10.09734 -10.09236 -10.07039 -10.06292
 Alpha  occ. eigenvalues --  -10.06100 -10.06073 -10.05519 -10.05139 -10.03838
 Alpha  occ. eigenvalues --  -10.03742  -0.99506  -0.91373  -0.86987  -0.86698
 Alpha  occ. eigenvalues --   -0.74300  -0.68216  -0.66131  -0.62479  -0.62101
 Alpha  occ. eigenvalues --   -0.55409  -0.52364  -0.49981  -0.47958  -0.41261
 Alpha  occ. eigenvalues --   -0.39121  -0.38649  -0.37949  -0.36363  -0.35522
 Alpha  occ. eigenvalues --   -0.34938  -0.33090  -0.30836  -0.30413  -0.29394
 Alpha  occ. eigenvalues --   -0.29037  -0.27884  -0.27509  -0.26776  -0.26303
 Alpha  occ. eigenvalues --   -0.24601  -0.23491  -0.23389  -0.22741  -0.20155
 Alpha  occ. eigenvalues --   -0.16940  -0.14959  -0.13424  -0.13232  -0.11226
 Alpha  occ. eigenvalues --   -0.10616  -0.02575
 Alpha virt. eigenvalues --    0.08069   0.08575   0.08766   0.09886   0.10228
 Alpha virt. eigenvalues --    0.10790   0.11497   0.11804   0.12448   0.13247
 Alpha virt. eigenvalues --    0.14137   0.15112   0.15484   0.16737   0.16987

  Beta  occ. eigenvalues --  -19.05186 -18.99775 -18.93926 -18.93770 -10.19329
  Beta  occ. eigenvalues --  -10.12027 -10.09607 -10.09133 -10.07039 -10.06243
  Beta  occ. eigenvalues --  -10.06064 -10.06020 -10.05438 -10.05150 -10.03693
  Beta  occ. eigenvalues --  -10.03591  -0.99499  -0.91366  -0.85823  -0.85506
  Beta  occ. eigenvalues --   -0.74128  -0.67674  -0.66079  -0.62246  -0.61997
  Beta  occ. eigenvalues --   -0.54556  -0.52262  -0.49625  -0.47750  -0.41050
  Beta  occ. eigenvalues --   -0.39019  -0.38438  -0.37900  -0.36277  -0.35458
  Beta  occ. eigenvalues --   -0.34708  -0.32941  -0.30809  -0.30196  -0.28993
  Beta  occ. eigenvalues --   -0.28776  -0.27277  -0.27006  -0.26346  -0.26047
  Beta  occ. eigenvalues --   -0.23320  -0.22962  -0.22245  -0.21829  -0.19915
  Beta  occ. eigenvalues --   -0.16924  -0.12827  -0.12696  -0.11698  -0.10585
  Beta  occ. eigenvalues --   -0.09996
  Beta virt. eigenvalues --    0.04170   0.08075   0.08755   0.09201   0.10235
  Beta virt. eigenvalues --    0.10757   0.11043   0.11644   0.11807   0.12480
  Beta virt. eigenvalues --    0.13256   0.14148   0.15129   0.15524   0.16811

 Mulliken charges and spin densities:
               1          2
     1  C   -0.469505   0.003435
     2  C   -0.008010  -0.001739
     3  O   -0.227689  -0.000149
     4  O    0.003706  -0.002785
     5  C   -0.320220   0.039199
     6  C    0.193115   0.028521
     7  C   -0.490895   0.036598
     8  C    0.029383   0.020329
     9  C    0.362914   0.052286
    10  C   -0.572682   0.058016
    11  O   -0.397455   0.247682
    12  C    0.009462   0.107311
    13  C   -0.043680   0.086178
    14  C   -0.396783   0.066172
    15  O   -0.398029   0.251356
    16  C    0.520644   0.035783
    17  H    0.136387   0.000369
    18  H    0.132415  -0.000335
    19  H    0.208766  -0.000970
    20  H    0.140168  -0.002515
    21  H    0.134752  -0.002977
    22  H    0.161037  -0.001677
    23  H    0.146015  -0.010125
    24  H    0.146182  -0.009964
 Sum of Mulliken charges =  -1.00000   1.00000

 Dipole moment (field-independent basis, Debye):
    X=              6.0620    Y=              1.5256    Z=              2.1530  Tot=              6.6114
 Quadrupole moment (field-independent basis, Debye-Ang):
   XX=           -132.4563   YY=           -103.7030   ZZ=           -104.2169
   XY=              8.4282   XZ=              0.7515   YZ=              1.0728

  Exact polarizability: 224.336  -7.306 204.928  13.891  -7.287 100.547
 Approx polarizability: 352.402 -24.177 334.865  32.089 -16.267 165.881

                      1                      2                      3
                      A                      A                      A
 Frequencies --     49.5001                71.2147               102.7785
 Red. masses --      7.9478                 6.3702                 4.9058
 Frc consts  --      0.0115                 0.0190                 0.0305
 IR Inten    --      0.3766                 0.5086                10.6609

                      4                      5                      6
                      A                      A                      A
 Frequencies --    112.5670               122.4004               131.1356
 Red. masses --      3.2159                 1.1672                 7.7064
 Frc consts  --      0.0240                 0.0103                 0.0781
 IR Inten    --      7.3569                 0.4195                 0.9857

                      7                      8                      9
                      A                      A                      A
 Frequencies --    189.4199               268.7361               275.2721
 Red. masses --      5.3307                 8.4703                 5.6847
 Frc consts  --      0.1127                 0.3604                 0.2538
 IR Inten    --      0.3943                 1.4477                 0.6894

                     10                     11                     12
                      A                      A                      A
 Frequencies --    315.0704               331.6014               362.4550
 Red. masses --      3.8023                 5.1474                 9.5864
 Frc consts  --      0.2224                 0.3335                 0.7420
 IR Inten    --      3.0815                 0.0784                 7.6459

                     13                     14                     15
                      A                      A                      A
 Frequencies --    401.2920               460.9609               478.4575
 Red. masses --      7.8541                 9.8419                 4.3583
 Frc consts  --      0.7452                 1.2321                 0.5878
 IR Inten    --      4.5967                 1.7830                 0.2388

                     16                     17                     18
                      A                      A                      A
 Frequencies --    479.4039               514.3703               534.8632
 Red. masses --      5.6189                 4.3120                 5.6375
 Frc consts  --      0.7609                 0.6722                 0.9502
 IR Inten    --      1.8278                 1.2478                 6.4464

                     19                     20                     21
                      A                      A                      A
 Frequencies --    561.5690               608.1587               629.7186
 Red. masses --      3.0971                 5.7272                 4.5512
 Frc consts  --      0.5755                 1.2480                 1.0633
 IR Inten    --      7.3474                 3.0307                 0.8366

                     22                     23                     24
                      A                      A                      A
 Frequencies --    637.5987               661.3420               719.1953
 Red. masses --      2.6918                 5.4569                 3.7445
 Frc consts  --      0.6448                 1.4062                 1.1412
 IR Inten    --      0.5311                 4.8275                12.6351

                     25                     26                     27
                      A                      A                      A
 Frequencies --    760.5774               764.3109               789.8036
 Red. masses --      1.8349                 6.4903                 4.9156
 Frc consts  --      0.6254                 2.2338                 1.8066
 IR Inten    --     39.9544                27.2924                 6.3047

                     28                     29                     30
                      A                      A                      A
 Frequencies --    812.6475               831.1522               876.6380
 Red. masses --      3.6608                 1.9686                 2.6472
 Frc consts  --      1.4244                 0.8013                 1.1986
 IR Inten    --     10.6505                27.3724                14.3927

                     31                     32                     33
                      A                      A                      A
 Frequencies --    908.9457               936.8172               956.9114
 Red. masses --      2.0223                 1.2825                 5.4887
 Frc consts  --      0.9844                 0.6631                 2.9612
 IR Inten    --     11.6961                 0.0447                32.7857

                     34                     35                     36
                      A                      A                      A
 Frequencies --    979.4913              1022.8486              1055.1217
 Red. masses --      1.2876                 1.9372                 1.7758
 Frc consts  --      0.7278                 1.1941                 1.1648
 IR Inten    --      1.1429                72.5354                25.7805

                     37                     38                     39
                      A                      A                      A
 Frequencies --   1060.1773              1087.7008              1130.5366
 Red. masses --      2.9180                 1.6663                 2.3221
 Frc consts  --      1.9324                 1.1615                 1.7487
 IR Inten    --     23.1246                 3.4069                56.3608

                     40                     41                     42
                      A                      A                      A
 Frequencies --   1165.2825              1175.0727              1217.8335
 Red. masses --      1.2200                 2.2853                 3.7668
 Frc consts  --      0.9761                 1.8592                 3.2915
 IR Inten    --     18.2927                33.7093               343.5913

                     43                     44                     45
                      A                      A                      A
 Frequencies --   1230.0685              1238.0609              1304.7400
 Red. masses --      2.7310                 2.8785                 2.0828
 Frc consts  --      2.4346                 2.5996                 2.0891
 IR Inten    --     62.1213                78.3565                 1.3698

                     46                     47                     48
                      A                      A                      A
 Frequencies --   1339.2879              1378.5273              1414.1720
 Red. masses --      8.5696                 1.3545                 2.9154
 Frc consts  --      9.0564                 1.5166                 3.4352
 IR Inten    --      9.2320               129.7209                22.4943

                     49                     50                     51
                      A                      A                      A
 Frequencies --   1430.7532              1453.8321              1470.7924
 Red. masses --      4.2583                 2.6150                 1.0859
 Frc consts  --      5.1359                 3.2565                 1.3840
 IR Inten    --     80.6022               110.8776                 6.9385

                     52                     53                     54
                      A                      A                      A
 Frequencies --   1481.4349              1497.6396              1547.1148
 Red. masses --      1.0564                 9.2478                 5.1137
 Frc consts  --      1.3660                12.2209                 7.2116
 IR Inten    --     11.7860                 8.9954               433.8254

                     55                     56                     57
                      A                      A                      A
 Frequencies --   1553.1720              1621.6947              1634.8179
 Red. masses --      5.8698                 6.8824                 7.2607
 Frc consts  --      8.3429                10.6642                11.4332
 IR Inten    --    210.3176                13.7708                 7.9594

                     58                     59                     60
                      A                      A                      A
 Frequencies --   1803.5643              3044.8019              3115.6146
 Red. masses --     11.6113                 1.0338                 1.1004
 Frc consts  --     22.2533                 5.6466                 6.2935
 IR Inten    --    264.2723                24.2481                 7.1925

                     61                     62                     63
                      A                      A                      A
 Frequencies --   3137.8072              3138.7766              3148.0312
 Red. masses --      1.0851                 1.1042                 1.0866
 Frc consts  --      6.2947                 6.4095                 6.3443
 IR Inten    --     21.9525                18.0593                24.7830

                     64                     65                     66
                      A                      A                      A
 Frequencies --   3159.1396              3177.7393              3188.0437
 Red. masses --      1.0939                 1.0920                 1.0929
 Frc consts  --      6.4323                 6.4970                 6.5443
 IR Inten    --     40.3225                18.3840                16.4272

 - Thermochemistry -
 -------------------
 Temperature   298.150 Kelvin.  Pressure   1.00000 Atm.
 Atom     1 has atomic number  6 and mass  12.00000

 Molecular mass:   216.04226 amu.
 Principal axes and moments of inertia in atomic units:
                           1         2         3
     Eigenvalues --  1869.557274058.007045529.11041
           X            0.97974   0.19913  -0.02127
           Y           -0.19800   0.97911   0.04618
           Z            0.03002  -0.04104   0.99871
 This molecule is an asymmetric top.
 Rotational symmetry number  1.
 Warning -- assumption of classical behavior for rotation
           may cause significant error
 Rotational temperatures (Kelvin)      0.04633     0.02134     0.01567
 Rotational constants (GHZ):           0.96533     0.44474     0.32641
 Zero-point vibrational energy     448961.9 (Joules/Mol)
                                  107.30448 (Kcal/Mol)
 Warning -- explicit consideration of  20 degrees of freedom as
           vibrations may cause significant error
 Vibrational temperatures:     71.22   102.46   147.88   161.96   176.11
          (Kelvin)            188.67   272.53   386.65   396.06   453.32
                              477.10   521.49   577.37   663.22   688.39
                              689.76   740.06   769.55   807.97   875.00
                              906.02   917.36   951.52  1034.76  1094.30
                             1099.67  1136.35  1169.22  1195.84  1261.29
                             1307.77  1347.87  1376.78  1409.27  1471.65
                             1518.08  1525.36  1564.96  1626.59  1676.58
                             1690.67  1752.19  1769.79  1781.29  1877.23
                             1926.94  1983.39  2034.68  2058.53  2091.74
                             2116.14  2131.45  2154.77  2225.95  2234.67
                             2333.26  2352.14  2594.93  4380.79  4482.67
                             4514.60  4516.00  4529.31  4545.30  4572.06
                             4586.88

 Zero-point correction=                           0.171001 (Hartree/Particle)
 Thermal correction to Energy=                    0.184155
 Thermal correction to Enthalpy=                  0.185099
 Thermal correction to Gibbs Free Energy=         0.130292
 Sum of electronic and zero-point Energies=           -763.106084
 Sum of electronic and thermal Energies=              -763.092930
 Sum of electronic and thermal Enthalpies=            -763.091986
 Sum of electronic and thermal Free Energies=         -763.146792

                     E (Thermal)             CV                S
                      KCal/Mol        Cal/Mol-Kelvin    Cal/Mol-Kelvin
 Total                  115.559             50.627            115.351
 Electronic               0.000              0.000              1.377
 Translational            0.889              2.981             42.014
 Rotational               0.889              2.981             32.106
 Vibrational            113.781             44.665             39.853
 Vibration     1          0.595              1.978              4.837
 Vibration     2          0.598              1.968              4.119
 Vibration     3          0.605              1.947              3.401
 Vibration     4          0.607              1.939              3.224
 Vibration     5          0.610              1.930              3.062
 Vibration     6          0.612              1.922              2.929
 Vibration     7          0.633              1.854              2.233
 Vibration     8          0.673              1.731              1.604
 Vibration     9          0.677              1.719              1.563
 Vibration    10          0.702              1.645              1.336
 Vibration    11          0.714              1.612              1.252
 Vibration    12          0.736              1.550              1.112
 Vibration    13          0.767              1.467              0.958
 Vibration    14          0.819              1.337              0.763
 Vibration    15          0.835              1.298              0.714
 Vibration    16          0.836              1.296              0.712
 Vibration    17          0.869              1.218              0.623
 Vibration    18          0.890              1.173              0.576
 Vibration    19          0.917              1.114              0.521
 Vibration    20          0.967              1.015              0.436

 Optimization completed.
    -- Stationary point found.
 Normal termination of Gaussian 16 at Tue Dec 26 22:01:59 2023.
