 Gaussian 16, Revision A.03,
 Gaussian 16:  ES64L-G16RevA.03 25-Dec-2016

 ----------------------------------------------------------------
 #P UB3LYP/6-311++G(d,p) SCRF=(PCM,Solvent=n,n-DiMethylFormamide)
 ----------------------------------------------------------------

 ------------------
 Radical PCM in DMF
 ------------------
 Symbolic Z-matrix:
 Charge = -1 Multiplicity = 2

                         Standard orientation:
 ---------------------------------------------------------------------
 Center     Atomic      Atomic             Coordinates (Angstroms)
 Number     Number       Type             X           Y           Z
 ---------------------------------------------------------------------
      1          6           0        3.971706   -1.133873    0.000117
      2          6           0        2.644099   -0.411208    0.000004
      3          6           0        2.603888    1.002755   -0.000054
      4          6           0        1.395866    1.674093   -0.000114
      5          6           0        0.173391    0.975296   -0.000049
      6          6           0       -1.102118    1.712984   -0.000021
      7          8           0       -1.142893    2.973595    0.000105
      8          6           0       -2.285459    0.897311    0.000002
      9          6           0       -2.280020   -0.483919    0.000006
     10          6           0       -3.562040   -1.274112    0.000059
     11          6           0       -1.042702   -1.234061   -0.000005
     12          8           0       -1.026169   -2.497357   -0.000108
     13          6           0        0.198786   -0.443332   -0.000013
     14          6           0        1.445079   -1.104402   -0.000001
     15          1           0        4.571889   -0.873599   -0.880224
     16          1           0        4.570319   -0.876215    0.882304
     17          1           0        3.829542   -2.217382   -0.001587
     18          1           0        3.535541    1.564168   -0.000109
     19          1           0        1.351847    2.757704   -0.000199
     20          1           0       -3.230258    1.436231    0.000020
     21          1           0       -3.617073   -1.932600    0.873930
     22          1           0       -4.432381   -0.611705    0.000456
     23          1           0       -3.617509   -1.932155   -0.874118
     24          1           0        1.427728   -2.189528   -0.000049
 ---------------------------------------------------------------------

 SCF Done:  E(UB3LYP) =  -614.066693042     A.U. after   19 cycles

 The electronic state is 2-A.
 Alpha  occ. eigenvalues --  -19.07297 -19.07284 -10.21803 -10.21547 -10.17986
 Alpha  occ. eigenvalues --  -10.16949 -10.16935 -10.16819 -10.16762 -10.16701
 Alpha  occ. eigenvalues --  -10.16347 -10.16322 -10.15614 -10.15504  -0.99681
 Alpha  occ. eigenvalues --   -0.99433  -0.85735  -0.81067  -0.76842  -0.74728
 Alpha  occ. eigenvalues --   -0.70993  -0.67783  -0.65582  -0.59960  -0.58771
 Alpha  occ. eigenvalues --   -0.55261  -0.49980  -0.48605  -0.46662  -0.43878
 Alpha  occ. eigenvalues --   -0.42893  -0.42669  -0.41849  -0.41586  -0.40872
 Alpha  occ. eigenvalues --   -0.39168  -0.38534  -0.37944  -0.37911  -0.36870
 Alpha  occ. eigenvalues --   -0.36598  -0.34196  -0.33718  -0.33209  -0.26857
 Alpha  occ. eigenvalues --   -0.25230  -0.24175  -0.23910  -0.23380  -0.14921
 Alpha virt. eigenvalues --   -0.02891  -0.01306  -0.00358   0.00519   0.01336
 Alpha virt. eigenvalues --    0.02461   0.02685   0.03562   0.03965   0.04376
 Alpha virt. eigenvalues --    0.04627   0.05166   0.05543   0.06296   0.06611

  Beta  occ. eigenvalues --  -19.06687 -19.06669 -10.21652 -10.21361 -10.17958
  Beta  occ. eigenvalues --  -10.16890 -10.16803 -10.16783 -10.16741 -10.16655
  Beta  occ. eigenvalues --  -10.16329 -10.16324 -10.15625 -10.15374  -0.98614
  Beta  occ. eigenvalues --   -0.98330  -0.85558  -0.80570  -0.76697  -0.74575
  Beta  occ. eigenvalues --   -0.70631  -0.67642  -0.64844  -0.59841  -0.58464
  Beta  occ. eigenvalues --   -0.54968  -0.49762  -0.48355  -0.46408  -0.43776
  Beta  occ. eigenvalues --   -0.42713  -0.41993  -0.41704  -0.41245  -0.40300
  Beta  occ. eigenvalues --   -0.38405  -0.38244  -0.37864  -0.37737  -0.36431
  Beta  occ. eigenvalues --   -0.34486  -0.34037  -0.33086  -0.32705  -0.24651
  Beta  occ. eigenvalues --   -0.24084  -0.23605  -0.23370  -0.22821
  Beta virt. eigenvalues --   -0.08281  -0.02144  -0.00343  -0.00277   0.00523
  Beta virt. eigenvalues --    0.01348   0.02475   0.02692   0.03760   0.04059
  Beta virt. eigenvalues --    0.04391   0.04636   0.05548   0.06360   0.06635

 Mulliken charges and spin densities:
               1          2
     1  C   -0.448341  -0.000589
     2  C    0.504243   0.018389
     3  C   -0.400371   0.029511
     4  C    0.004669   0.016723
     5  C    0.343940   0.032206
     6  C   -0.633906   0.095452
     7  O   -0.506179   0.213584
     8  C   -0.483909   0.097726
     9  C    0.956850   0.108911
    10  C   -0.329964   0.005673
    11  C   -0.624894   0.116134
    12  O   -0.474756   0.234078
    13  C   -0.122556   0.007038
    14  C   -0.359039   0.027743
    15  H    0.159646   0.001504
    16  H    0.159822   0.001507
    17  H    0.167962   0.000060
    18  H    0.181547  -0.002218
    19  H    0.152833  -0.002324
    20  H    0.143825  -0.009528
    21  H    0.163589   0.005813
    22  H    0.152459  -0.000209
    23  H    0.163599   0.005821
    24  H    0.128934  -0.003005
 Sum of Mulliken charges =  -1.00000   1.00000

 Dipole moment (field-independent basis, Debye):
    X=              5.2336    Y=             -1.8212    Z=              0.0002  Tot=              5.5414
 Quadrupole moment (field-independent basis, Debye-Ang):
   XX=            -83.9820   YY=           -124.4665   ZZ=            -87.9782
   XY=              2.7809   XZ=              0.0006   YZ=             -0.0022

 Normal termination of Gaussian 16 at Sun Jan 21 08:19:16 2024.
