 Q-Chem 5.4, Q-Chem, Inc., Pleasanton, CA (2021)
 Q-Chem 5.4.0 for Intel X86 EM64T Linux

User input:
--------------------------------------------------------------
$molecule
-2 1
C                 -1.4954500000      0.3433180000      0.9466200000
C                 -1.9868850000      1.4874140000      0.3516870000
C                 -1.0776260000      2.4209280000     -0.2980880000
O                 -1.4944550000      3.4891950000     -0.8556050000
C                  0.3197530000      2.0594810000     -0.2718550000
C                  0.8109080000      0.9143930000      0.3212840000
C                 -0.0977640000     -0.0166450000      0.9755140000
O                  0.3195560000     -1.0831090000      1.5360930000
H                  0.9846370000      2.7649390000     -0.7631140000
C                  2.2769040000      0.5396030000      0.3473000000
C                  3.2531320000      1.4884860000     -0.3546440000
C                  4.7086030000      1.0076380000     -0.2804010000
C                  5.7174750000      1.9475300000     -0.9552060000
C                  7.1657450000      1.4475410000     -0.8635760000
C                  8.2450570000      2.3878130000     -1.4359460000
C                  9.6499190000      1.8755090000     -1.0859150000
C                  8.1081590000      2.5886110000     -2.9525390000
C                 -3.4529480000      1.8617660000      0.3248380000
C                 -4.4354320000      0.8846000000      0.9774160000
C                 -5.8931770000      1.3555490000      0.8862340000
C                 -6.9050610000      0.3994640000      1.5330320000
C                 -8.3563960000      0.8855510000      1.4187530000
C                 -9.4356940000     -0.0687500000      1.9676100000
C                -10.8392420000      0.4275830000      1.5901810000
C                 -9.3269400000     -0.2700660000      3.4864520000
H                 -2.1605020000     -0.3628740000      1.4366130000
H                  2.3803200000     -0.4698610000     -0.0748150000
H                  2.5821690000      0.4155770000      1.3963930000
H                  3.1824110000      2.4895360000      0.0892680000
H                  2.9661500000      1.6050880000     -1.4074100000
H                  4.7834350000      0.0118020000     -0.7380380000
H                  4.9912550000      0.8750200000      0.7726990000
H                  5.6496250000      2.9413230000     -0.4920010000
H                  5.4299930000      2.0820520000     -2.0045380000
H                  7.2464300000      0.4726460000     -1.3651260000
H                  7.4003320000      1.2597920000      0.1927220000
H                  8.1185980000      3.3684250000     -0.9558450000
H                  9.7808110000      1.7782060000     -0.0020660000
H                 10.4318250000      2.5481490000     -1.4551180000
H                  9.8303020000      0.8891860000     -1.5308010000
H                  8.8932340000      3.2506880000     -3.3336610000
H                  7.1431220000      3.0267130000     -3.2222950000
H                  8.2011460000      1.6318920000     -3.4804840000
H                 -3.7449030000      2.0304200000     -0.7211740000
H                 -3.5642040000      2.8524430000      0.7890540000
H                 -4.1698020000      0.7386430000      2.0320030000
H                 -4.3466610000     -0.1020290000      0.5051570000
H                 -6.1597540000      1.5002030000     -0.1695720000
H                 -5.9830280000      2.3445890000      1.3556840000
H                 -6.6362280000      0.2590510000      2.5866690000
H                 -6.8179480000     -0.5896280000      1.0632800000
H                 -8.5744580000      1.0765510000      0.3594750000
H                 -8.4555880000      1.8567880000      1.9238840000
H                 -9.2877340000     -1.0469700000      1.4887410000
H                -11.6207250000     -0.2533890000      1.9446350000
H                -10.9501080000      0.5235980000      0.5039870000
H                -11.0391060000      1.4118390000      2.0313550000
H                -10.1099820000     -0.9440350000      3.8507190000
H                 -9.4445790000      0.6843730000      4.0135740000
H                 -8.3612700000     -0.6943140000      3.7754960000
$end

$rem
MAX_SCF_CYCLES=200
BASIS  =  6-311++G(d,p)
GUI  =  2
JOB_TYPE  =  SP
METHOD  =  B3LYP
THRESH      14
SCF_CONVERGENCE  = 5
SOLVENT_METHOD = sm12
$end

$smx
solvent dimethylformamide
charges CM5
$end

--------------------------------------------------------------

             Standard Nuclear Orientation (Angstroms)
    I     Atom           X                Y                Z
 ----------------------------------------------------------------
    1      C      -1.4954500000     0.3433180000     0.9466200000
    2      C      -1.9868850000     1.4874140000     0.3516870000
    3      C      -1.0776260000     2.4209280000    -0.2980880000
    4      O      -1.4944550000     3.4891950000    -0.8556050000
    5      C       0.3197530000     2.0594810000    -0.2718550000
    6      C       0.8109080000     0.9143930000     0.3212840000
    7      C      -0.0977640000    -0.0166450000     0.9755140000
    8      O       0.3195560000    -1.0831090000     1.5360930000
    9      H       0.9846370000     2.7649390000    -0.7631140000
   10      C       2.2769040000     0.5396030000     0.3473000000
   11      C       3.2531320000     1.4884860000    -0.3546440000
   12      C       4.7086030000     1.0076380000    -0.2804010000
   13      C       5.7174750000     1.9475300000    -0.9552060000
   14      C       7.1657450000     1.4475410000    -0.8635760000
   15      C       8.2450570000     2.3878130000    -1.4359460000
   16      C       9.6499190000     1.8755090000    -1.0859150000
   17      C       8.1081590000     2.5886110000    -2.9525390000
   18      C      -3.4529480000     1.8617660000     0.3248380000
   19      C      -4.4354320000     0.8846000000     0.9774160000
   20      C      -5.8931770000     1.3555490000     0.8862340000
   21      C      -6.9050610000     0.3994640000     1.5330320000
   22      C      -8.3563960000     0.8855510000     1.4187530000
   23      C      -9.4356940000    -0.0687500000     1.9676100000
   24      C     -10.8392420000     0.4275830000     1.5901810000
   25      C      -9.3269400000    -0.2700660000     3.4864520000
   26      H      -2.1605020000    -0.3628740000     1.4366130000
   27      H       2.3803200000    -0.4698610000    -0.0748150000
   28      H       2.5821690000     0.4155770000     1.3963930000
   29      H       3.1824110000     2.4895360000     0.0892680000
   30      H       2.9661500000     1.6050880000    -1.4074100000
   31      H       4.7834350000     0.0118020000    -0.7380380000
   32      H       4.9912550000     0.8750200000     0.7726990000
   33      H       5.6496250000     2.9413230000    -0.4920010000
   34      H       5.4299930000     2.0820520000    -2.0045380000
   35      H       7.2464300000     0.4726460000    -1.3651260000
   36      H       7.4003320000     1.2597920000     0.1927220000
   37      H       8.1185980000     3.3684250000    -0.9558450000
   38      H       9.7808110000     1.7782060000    -0.0020660000
   39      H      10.4318250000     2.5481490000    -1.4551180000
   40      H       9.8303020000     0.8891860000    -1.5308010000
   41      H       8.8932340000     3.2506880000    -3.3336610000
   42      H       7.1431220000     3.0267130000    -3.2222950000
   43      H       8.2011460000     1.6318920000    -3.4804840000
   44      H      -3.7449030000     2.0304200000    -0.7211740000
   45      H      -3.5642040000     2.8524430000     0.7890540000
   46      H      -4.1698020000     0.7386430000     2.0320030000
   47      H      -4.3466610000    -0.1020290000     0.5051570000
   48      H      -6.1597540000     1.5002030000    -0.1695720000
   49      H      -5.9830280000     2.3445890000     1.3556840000
   50      H      -6.6362280000     0.2590510000     2.5866690000
   51      H      -6.8179480000    -0.5896280000     1.0632800000
   52      H      -8.5744580000     1.0765510000     0.3594750000
   53      H      -8.4555880000     1.8567880000     1.9238840000
   54      H      -9.2877340000    -1.0469700000     1.4887410000
   55      H     -11.6207250000    -0.2533890000     1.9446350000
   56      H     -10.9501080000     0.5235980000     0.5039870000
   57      H     -11.0391060000     1.4118390000     2.0313550000
   58      H     -10.1099820000    -0.9440350000     3.8507190000
   59      H      -9.4445790000     0.6843730000     4.0135740000
   60      H      -8.3612700000    -0.6943140000     3.7754960000
 ----------------------------------------------------------------

   10   -1010.7031125061      2.41e-06  Convergence criterion met
 Total energy in the final basis set =    -1011.0095956788

                    Orbital Energies (a.u.)
 --------------------------------------------------------------

 Alpha MOs
 -- Occupied --
-19.0129 -19.0129 -10.1753 -10.1753 -10.1687 -10.1687 -10.1678 -10.1678
-10.1678 -10.1678 -10.1669 -10.1668 -10.1652 -10.1651 -10.1626 -10.1626
-10.1579 -10.1579 -10.1576 -10.1576 -10.1331 -10.1331 -10.1263 -10.1263
 -0.9357  -0.9331  -0.8216  -0.8215  -0.8033  -0.7998  -0.7789  -0.7597
 -0.7375  -0.7093  -0.6842  -0.6841  -0.6790  -0.6636  -0.6368  -0.6224
 -0.5920  -0.5881  -0.5816  -0.5611  -0.5596  -0.5442  -0.5140  -0.4857
 -0.4855  -0.4635  -0.4626  -0.4481  -0.4432  -0.4425  -0.4376  -0.4357
 -0.4305  -0.4209  -0.4169  -0.4088  -0.4062  -0.3931  -0.3889  -0.3855
 -0.3849  -0.3808  -0.3766  -0.3741  -0.3602  -0.3589  -0.3549  -0.3530
 -0.3495  -0.3475  -0.3442  -0.3367  -0.3335  -0.3322  -0.3296  -0.3275
 -0.3233  -0.3231  -0.3213  -0.3211  -0.3147  -0.3070  -0.3046  -0.3008
 -0.2236  -0.2197  -0.1903  -0.1868  -0.1080

          Ground-State Mulliken Net Atomic Charges

     Atom                 Charge (a.u.)
  ----------------------------------------
      1 C                    -2.344963
      2 C                    -0.942847
      3 C                    -3.563490
      4 O                    -0.376243
      5 C                    -2.378448
      6 C                    -0.930167
      7 C                    -3.571207
      8 O                    -0.375879
      9 H                    -0.185147
     10 C                    -6.602192
     11 C                     3.381370
     12 C                    -0.674973
     13 C                     3.036118
     14 C                     3.313435
     15 C                     1.886884
     16 C                     0.591854
     17 C                    -0.731415
     18 C                    -6.572393
     19 C                     3.400834
     20 C                    -0.730814
     21 C                     3.050120
     22 C                     3.292201
     23 C                     1.869809
     24 C                     0.587883
     25 C                    -0.717072
     26 H                    -0.184275
     27 H                     0.127875
     28 H                     0.066631
     29 H                    -0.039090
     30 H                    -0.017441
     31 H                     0.111691
     32 H                     0.260222
     33 H                     0.138044
     34 H                     0.158092
     35 H                     0.154895
     36 H                     0.052054
     37 H                     0.114060
     38 H                     0.137734
     39 H                     0.295978
     40 H                     0.153927
     41 H                     0.253909
     42 H                     0.155250
     43 H                     0.113825
     44 H                     0.088794
     45 H                     0.101025
     46 H                    -0.050274
     47 H                    -0.002208
     48 H                     0.231293
     49 H                     0.144481
     50 H                     0.164509
     51 H                     0.123970
     52 H                     0.066089
     53 H                     0.140522
     54 H                     0.113973
     55 H                     0.296125
     56 H                     0.136277
     57 H                     0.155602
     58 H                     0.253558
     59 H                     0.113431
     60 H                     0.156194
  ----------------------------------------
  Sum of atomic charges =    -2.000000

                    Cartesian Multipole Moments
 -----------------------------------------------------------------
    Charge (ESU x 10^10)
                -9.6064
    Dipole Moment (Debye)
         X       5.6436      Y     -11.5578      Z      -3.2708
       Tot      13.2715
    Quadrupole Moments (Debye-Ang)
        XX    -202.0736     XY      22.6316     YY    -222.7524
        XZ      -0.5897     YZ      19.0989     ZZ    -181.0072

 Total job time:  2462.49s(wall), 16772.89s(cpu)
        *  Thank you very much for using Q-Chem.  Have a nice day.  *
