 Q-Chem 5.4, Q-Chem, Inc., Pleasanton, CA (2021)
 Q-Chem 5.4.0 for Intel X86 EM64T Linux

User input:
--------------------------------------------------------------
$molecule
0 1
C                  3.7175190000      2.2367760000     -0.4604120000
O                  2.3669060000      1.7955150000     -0.3748080000
C                  2.1007260000      0.4824010000     -0.2392550000
C                  3.1145800000     -0.4843000000     -0.1775200000
C                  2.8032890000     -1.8318380000     -0.0373440000
C                  1.4812920000     -2.2436990000      0.0439590000
C                  0.4584540000     -1.2971860000     -0.0155080000
C                 -0.9451190000     -1.8152850000      0.0785690000
O                 -1.1638520000     -3.0101420000      0.2006390000
C                 -2.0531190000     -0.8303900000      0.0184610000
C                 -3.3766140000     -1.2779600000      0.1036170000
C                 -4.4232170000     -0.3673510000      0.0487120000
C                 -4.1541230000      0.9977750000     -0.0918200000
C                 -2.8421310000      1.4473130000     -0.1767930000
C                 -1.7808500000      0.5376900000     -0.1224020000
C                 -0.3791160000      1.0686060000     -0.2179240000
O                 -0.2049630000      2.2688300000     -0.3394810000
C                  0.7381390000      0.0809040000     -0.1575950000
H                  4.2222090000      1.8146540000     -1.3355170000
H                  4.2785740000      1.9879610000      0.4462440000
H                  3.6587770000      3.3184230000     -0.5637550000
H                  4.1513880000     -0.1854550000     -0.2390250000
H                  3.6049820000     -2.5604050000      0.0080020000
H                  1.2154270000     -3.2865170000      0.1531930000
H                 -3.5566630000     -2.3402960000      0.2120460000
H                 -5.4480630000     -0.7146560000      0.1147380000
H                 -4.9715510000      1.7088300000     -0.1347080000
H                 -2.6128840000      2.4998000000     -0.2858310000
$end
$rem
MAX_SCF_CYCLES=200
BASIS  =  6-311++G(d,p)
GUI  =  2
JOB_TYPE  =  SP
METHOD  =  B3LYP
SOLVENT_METHOD = PCM
$end
$pcm
theory = CPCM
$end
$solvent
dielectric 37.219
opticaldielectric 1.43
$end

--------------------------------------------------------------

             Standard Nuclear Orientation (Angstroms)
    I     Atom           X                Y                Z
 ----------------------------------------------------------------
    1      C       3.7175190000     2.2367760000    -0.4604120000
    2      O       2.3669060000     1.7955150000    -0.3748080000
    3      C       2.1007260000     0.4824010000    -0.2392550000
    4      C       3.1145800000    -0.4843000000    -0.1775200000
    5      C       2.8032890000    -1.8318380000    -0.0373440000
    6      C       1.4812920000    -2.2436990000     0.0439590000
    7      C       0.4584540000    -1.2971860000    -0.0155080000
    8      C      -0.9451190000    -1.8152850000     0.0785690000
    9      O      -1.1638520000    -3.0101420000     0.2006390000
   10      C      -2.0531190000    -0.8303900000     0.0184610000
   11      C      -3.3766140000    -1.2779600000     0.1036170000
   12      C      -4.4232170000    -0.3673510000     0.0487120000
   13      C      -4.1541230000     0.9977750000    -0.0918200000
   14      C      -2.8421310000     1.4473130000    -0.1767930000
   15      C      -1.7808500000     0.5376900000    -0.1224020000
   16      C      -0.3791160000     1.0686060000    -0.2179240000
   17      O      -0.2049630000     2.2688300000    -0.3394810000
   18      C       0.7381390000     0.0809040000    -0.1575950000
   19      H       4.2222090000     1.8146540000    -1.3355170000
   20      H       4.2785740000     1.9879610000     0.4462440000
   21      H       3.6587770000     3.3184230000    -0.5637550000
   22      H       4.1513880000    -0.1854550000    -0.2390250000
   23      H       3.6049820000    -2.5604050000     0.0080020000
   24      H       1.2154270000    -3.2865170000     0.1531930000
   25      H      -3.5566630000    -2.3402960000     0.2120460000
   26      H      -5.4480630000    -0.7146560000     0.1147380000
   27      H      -4.9715510000     1.7088300000    -0.1347080000
   28      H      -2.6128840000     2.4998000000    -0.2858310000
 ----------------------------------------------------------------

    9    -803.5183961962      1.78e-06  Convergence criterion met
 Total energy in the final basis set =     -803.5183961962

                    Orbital Energies (a.u.)
 --------------------------------------------------------------

 Alpha MOs
 -- Occupied --
-19.1706 -19.1300 -19.1239 -10.2820 -10.2811 -10.2655 -10.2234 -10.2094
-10.2089 -10.2057 -10.2045 -10.1979 -10.1954 -10.1951 -10.1943 -10.1934
-10.1933 -10.1885  -1.0916  -1.0656  -1.0601  -0.8909  -0.8786  -0.8102
 -0.7823  -0.7751  -0.7694  -0.7155  -0.6878  -0.6604  -0.6444  -0.6076
 -0.5829  -0.5615  -0.5596  -0.5182  -0.5050  -0.4961  -0.4857  -0.4826
 -0.4776  -0.4571  -0.4527  -0.4511  -0.4481  -0.4410  -0.4234  -0.4179
 -0.4004  -0.3957  -0.3892  -0.3753  -0.3718  -0.3655  -0.3514  -0.3413
 -0.2889  -0.2848  -0.2761  -0.2754  -0.2666  -0.2476

          Ground-State Mulliken Net Atomic Charges

     Atom                 Charge (a.u.)
  ----------------------------------------
      1 C                    -0.313272
      2 O                    -0.140777
      3 C                    -0.046083
      4 C                    -0.003966
      5 C                    -0.379343
      6 C                     0.052221
      7 C                     0.518660
      8 C                    -0.522481
      9 O                    -0.287691
     10 C                    -0.121622
     11 C                     0.160215
     12 C                    -0.496928
     13 C                    -0.440517
     14 C                     0.167592
     15 C                     0.327774
     16 C                    -0.433788
     17 O                    -0.303126
     18 C                     0.214155
     19 H                     0.177965
     20 H                     0.177970
     21 H                     0.208280
     22 H                     0.233720
     23 H                     0.236612
     24 H                     0.183593
     25 H                     0.196089
     26 H                     0.220699
     27 H                     0.223912
     28 H                     0.190138
  ----------------------------------------
  Sum of atomic charges =     0.000000

                    Cartesian Multipole Moments
 -----------------------------------------------------------------
    Charge (ESU x 10^10)
                 0.0000
    Dipole Moment (Debye)
         X       2.8740      Y       0.4553      Z      -0.1338
       Tot       2.9129
    Quadrupole Moments (Debye-Ang)
        XX     -60.2130     XY      -3.0679     YY    -114.8723
        XZ      -1.5184     YZ       0.8830     ZZ    -106.1155

 Total job time:  248.01s(wall), 362.23s(cpu)
        *  Thank you very much for using Q-Chem.  Have a nice day.  *
