 Q-Chem 5.4, Q-Chem, Inc., Pleasanton, CA (2021)
 Q-Chem 5.4.0 for Intel X86 EM64T Linux

User input:
--------------------------------------------------------------
$molecule
0 1
C                  1.0834220000      1.4374030000     -3.0060750000
C                 -0.2879700000      1.6457930000     -3.5298770000
C                 -1.2365000000      0.7185870000     -3.3626270000
C                 -0.9538790000     -0.5521540000     -2.6526790000
C                  0.4232050000     -0.7786590000     -2.1018640000
O                  1.9438460000      2.2907080000     -3.1516330000
O                 -1.8259260000     -1.3958240000     -2.5242790000
H                 -0.4625040000      2.5863800000     -4.0406100000
C                  1.3735250000      0.1621420000     -2.2902140000
C                  2.7668160000      0.0599790000     -1.6821330000
C                  3.9071570000     -0.3006880000     -2.5632950000
C                  5.2534360000     -0.1434480000     -2.1443390000
C                  3.6325260000     -0.8236600000     -3.8375210000
C                  6.2592110000     -0.5258270000     -3.0371450000
C                  5.9730140000     -1.0553080000     -4.2930070000
C                  4.6503300000     -1.2084880000     -4.6993870000
O                  2.8722120000      0.2841590000     -0.4905730000
C                  5.6504330000      0.4263630000     -0.8063200000
H                  2.6022270000     -0.9386270000     -4.1518610000
H                  7.2942000000     -0.4023840000     -2.7368310000
H                  6.7838410000     -1.3427760000     -4.9532450000
H                  4.4153840000     -1.6167600000     -5.6751760000
C                  0.6313340000     -2.0727240000     -1.3740820000
H                 -2.2498780000      0.8379020000     -3.7296520000
H                 -0.0021010000     -2.1055350000     -0.4827850000
H                  1.6668240000     -2.2075270000     -1.0669480000
H                  0.3227260000     -2.9135500000     -2.0003780000
H                  5.1609800000      1.3833590000     -0.6150950000
H                  6.7322610000      0.5689150000     -0.7684730000
H                  5.3539800000     -0.2328520000      0.0123950000
$end
$rem
MAX_SCF_CYCLES=200
BASIS  =  6-311++G(d,p)
GUI  =  2
JOB_TYPE  =  SP
METHOD  =  B3LYP
SOLVENT_METHOD = PCM
$end
$pcm
theory = CPCM
$end
$solvent
dielectric 37.219
opticaldielectric 1.43
$end

--------------------------------------------------------------

             Standard Nuclear Orientation (Angstroms)
    I     Atom           X                Y                Z
 ----------------------------------------------------------------
    1      C       1.0834220000     1.4374030000    -3.0060750000
    2      C      -0.2879700000     1.6457930000    -3.5298770000
    3      C      -1.2365000000     0.7185870000    -3.3626270000
    4      C      -0.9538790000    -0.5521540000    -2.6526790000
    5      C       0.4232050000    -0.7786590000    -2.1018640000
    6      O       1.9438460000     2.2907080000    -3.1516330000
    7      O      -1.8259260000    -1.3958240000    -2.5242790000
    8      H      -0.4625040000     2.5863800000    -4.0406100000
    9      C       1.3735250000     0.1621420000    -2.2902140000
   10      C       2.7668160000     0.0599790000    -1.6821330000
   11      C       3.9071570000    -0.3006880000    -2.5632950000
   12      C       5.2534360000    -0.1434480000    -2.1443390000
   13      C       3.6325260000    -0.8236600000    -3.8375210000
   14      C       6.2592110000    -0.5258270000    -3.0371450000
   15      C       5.9730140000    -1.0553080000    -4.2930070000
   16      C       4.6503300000    -1.2084880000    -4.6993870000
   17      O       2.8722120000     0.2841590000    -0.4905730000
   18      C       5.6504330000     0.4263630000    -0.8063200000
   19      H       2.6022270000    -0.9386270000    -4.1518610000
   20      H       7.2942000000    -0.4023840000    -2.7368310000
   21      H       6.7838410000    -1.3427760000    -4.9532450000
   22      H       4.4153840000    -1.6167600000    -5.6751760000
   23      C       0.6313340000    -2.0727240000    -1.3740820000
   24      H      -2.2498780000     0.8379020000    -3.7296520000
   25      H      -0.0021010000    -2.1055350000    -0.4827850000
   26      H       1.6668240000    -2.2075270000    -1.0669480000
   27      H       0.3227260000    -2.9135500000    -2.0003780000
   28      H       5.1609800000     1.3833590000    -0.6150950000
   29      H       6.7322610000     0.5689150000    -0.7684730000
   30      H       5.3539800000    -0.2328520000     0.0123950000
 ----------------------------------------------------------------

    9    -804.7007072742      3.23e-06  Convergence criterion met
 Total energy in the final basis set =     -804.7007072742

                    Orbital Energies (a.u.)
 --------------------------------------------------------------

 Alpha MOs
 -- Occupied --
-19.1480 -19.1476 -19.1352 -10.2942 -10.2913 -10.2875 -10.2284 -10.2190
-10.2138 -10.2129 -10.2052 -10.1989 -10.1929 -10.1903 -10.1839 -10.1823
-10.1783 -10.1650  -1.0811  -1.0781  -1.0694  -0.8794  -0.8719  -0.8166
 -0.7866  -0.7790  -0.7414  -0.7001  -0.6971  -0.6630  -0.6324  -0.6054
 -0.6009  -0.5647  -0.5375  -0.5267  -0.5044  -0.4915  -0.4805  -0.4755
 -0.4641  -0.4557  -0.4516  -0.4432  -0.4402  -0.4316  -0.4303  -0.4212
 -0.4130  -0.4103  -0.4014  -0.3917  -0.3888  -0.3697  -0.3681  -0.3555
 -0.3164  -0.3035  -0.2989  -0.2912  -0.2741  -0.2664  -0.2620

          Ground-State Mulliken Net Atomic Charges

     Atom                 Charge (a.u.)
  ----------------------------------------
      1 C                    -0.478772
      2 C                    -0.221872
      3 C                     0.079942
      4 C                    -0.313867
      5 C                     0.340454
      6 O                    -0.274898
      7 O                    -0.289239
      8 H                     0.263224
      9 C                     0.795083
     10 C                    -0.085098
     11 C                     0.115892
     12 C                     0.622007
     13 C                    -0.303408
     14 C                    -0.533186
     15 C                    -0.257973
     16 C                    -0.196117
     17 O                    -0.288065
     18 C                    -0.634625
     19 H                     0.205103
     20 H                     0.184831
     21 H                     0.214953
     22 H                     0.220556
     23 C                    -0.574844
     24 H                     0.265807
     25 H                     0.216648
     26 H                     0.170665
     27 H                     0.207416
     28 H                     0.191327
     29 H                     0.162273
     30 H                     0.195783
  ----------------------------------------
  Sum of atomic charges =     0.000000

                    Cartesian Multipole Moments
 -----------------------------------------------------------------
    Charge (ESU x 10^10)
                 0.0000
    Dipole Moment (Debye)
         X       1.1110      Y      -1.7664      Z      -3.4037
       Tot       3.9925
    Quadrupole Moments (Debye-Ang)
        XX     -90.5036     XY     -17.9866     YY    -109.7765
        XZ      -9.3292     YZ       5.0517     ZZ     -86.1845

 Total job time:  55.07s(wall), 392.23s(cpu)
        *  Thank you very much for using Q-Chem.  Have a nice day.  *
