 Q-Chem 5.4, Q-Chem, Inc., Pleasanton, CA (2021)
 Q-Chem 5.4.0 for Intel X86 EM64T Linux

User input:
--------------------------------------------------------------
$molecule
0 1
C                 -0.7843740000      2.8426190000     -0.6035500000
C                 -2.1385610000      2.5124030000     -0.6862690000
C                 -2.5949140000      1.2704640000     -0.2612960000
C                  0.1156370000      1.8967890000     -0.0938060000
C                 -0.3438230000      0.6305760000      0.3213610000
C                 -1.7062200000      0.3149300000      0.2310050000
C                  1.5598730000      2.2547450000      0.0360620000
C                  2.5190590000      1.1533810000      0.3406990000
C                  2.0696760000     -0.0270600000      0.7927470000
C                  0.6272090000     -0.3434740000      0.9026100000
O                  1.9297290000      3.4113980000     -0.0402750000
O                  0.2689810000     -1.3686140000      1.4550810000
H                 -3.6505040000      1.0334730000     -0.3231230000
H                  2.7524430000     -0.8036940000      1.1193500000
C                 -2.2850020000     -1.0097910000      0.6595640000
O                 -3.0062860000     -1.1366370000      1.6164350000
O                 -1.9834310000     -1.9792640000     -0.2132720000
C                 -2.4393380000     -3.3040500000      0.1345340000
H                 -2.8395760000      3.2291040000     -1.0989090000
H                 -2.1328640000     -3.9398540000     -0.6924470000
H                 -3.5232170000     -3.3154380000      0.2517920000
H                 -1.9653170000     -3.6224740000      1.0635020000
C                  4.0019090000      1.3924150000      0.2443340000
O                  4.7954540000      0.9984470000      1.0637570000
O                  4.3138100000      2.0382830000     -0.8803270000
C                 -0.3598070000      4.1595420000     -1.2267990000
O                 -0.0874480000      4.2127220000     -2.3958740000
O                 -0.4535830000      5.2826040000     -0.4937260000
C                 -0.5577300000      5.2259530000      0.9402070000
C                  5.7130880000      2.3265820000     -1.0859530000
H                 -0.7025890000      6.2567060000      1.2564800000
H                  0.3671910000      4.8353330000      1.3655620000
H                 -1.4108490000      4.6241260000      1.2592430000
H                  5.7592770000      2.8509760000     -2.0367400000
H                  6.2884860000      1.4009720000     -1.1228040000
H                  6.0863400000      2.9564160000     -0.2780840000
$end
$rem
MAX_SCF_CYCLES=200
BASIS  =  6-311++G(d,p)
GUI  =  2
JOB_TYPE  =  SP
METHOD  =  B3LYP
SOLVENT_METHOD = COSMO
$end
$solvent
dielectric 37.219
opticaldielectric 1.43
$end

--------------------------------------------------------------

             Standard Nuclear Orientation (Angstroms)
    I     Atom           X                Y                Z
 ----------------------------------------------------------------
    1      C      -0.0249051610    -1.9855402671     0.2888849135
    2      C      -1.2946600695    -2.5488942076     0.4305262940
    3      C      -2.4376614530    -1.7723909882     0.2826642684
    4      C       0.0834582347    -0.6173216135     0.0048281853
    5      C      -1.0749796789     0.1745670020    -0.1282000516
    6      C      -2.3418900029    -0.4064556362     0.0176530067
    7      C       1.4358766729    -0.0135466329    -0.1881380290
    8      C       1.5264022109     1.4748073974    -0.2376511806
    9      C       0.4215096801     2.2121956623    -0.4252797275
   10      C      -0.9348653198     1.6200451604    -0.4753135884
   11      O       2.4166535327    -0.7121815740    -0.3626457111
   12      O      -1.8884130098     2.3082464540    -0.7940443647
   13      H      -3.4158630938    -2.2270261161     0.3860374301
   14      H       0.4766753188     3.2856169304    -0.5692387470
   15      C      -3.6319109690     0.3625310787    -0.1166693195
   16      O      -4.4032070884     0.2039787592    -1.0287581777
   17      O      -3.8472027170     1.1441693102     0.9488619033
   18      C      -5.0286202803     1.9719137252     0.8943653276
   19      H      -1.3887992920    -3.6017427119     0.6713622485
   20      H      -5.0511011275     2.5035530432     1.8424818080
   21      H      -5.9201177550     1.3560283283     0.7735752525
   22      H      -4.9483054562     2.6705644843     0.0609938960
   23      C       2.8684254209     2.1540127275    -0.1836010900
   24      O       3.1748066865     3.0825049790    -0.8909985482
   25      O       3.6342908879     1.6322250786     0.7758142570
   26      C       1.1607671162    -2.8753089449     0.6136549746
   27      O       1.5548152024    -2.9647463166     1.7452339401
   28      O       1.6497233748    -3.6784564818    -0.3472477408
   29      C       1.3560310553    -3.4384654640    -1.7351846683
   30      C       4.9514152730     2.2034344097     0.9250809337
   31      H       1.8016061378    -4.2747113728    -2.2696190546
   32      H       1.8185134681    -2.5051310784    -2.0576542935
   33      H       0.2806920911    -3.4184442585    -1.9223663948
   34      H       5.4116197639     1.6496381137     1.7391078985
   35      H       4.8783768215     3.2641576334     1.1674161436
   36      H       5.5186117918     2.0780748819     0.0024578567
 ----------------------------------------------------------------

    9   -1219.0497432533      6.21e-06  Convergence criterion met
 Total energy in the final basis set =    -1219.0497432533
    5   -1219.0836928131      4.44e-06  Convergence criterion met
 Total energy in the final basis set =    -1219.0836928131

                    Orbital Energies (a.u.)
 --------------------------------------------------------------

 Alpha MOs
 -- Occupied --
-19.1923 -19.1879 -19.1874 -19.1573 -19.1555 -19.1417 -19.1389 -19.1387
-10.3364 -10.3352 -10.3317 -10.3090 -10.3044 -10.2418 -10.2367 -10.2360
-10.2352 -10.2341 -10.2321 -10.2298 -10.2280 -10.2258 -10.2192 -10.2183
 -1.1373  -1.1323  -1.1301  -1.0926  -1.0884  -1.0530  -1.0519  -1.0485
 -0.9176  -0.8698  -0.8248  -0.8063  -0.7593  -0.7489  -0.7400  -0.7192
 -0.6906  -0.6728  -0.6493  -0.6060  -0.5934  -0.5796  -0.5672  -0.5597
 -0.5461  -0.5399  -0.5309  -0.5118  -0.5072  -0.5041  -0.5006  -0.4984
 -0.4938  -0.4871  -0.4776  -0.4722  -0.4670  -0.4629  -0.4474  -0.4412
 -0.4392  -0.4362  -0.4215  -0.4180  -0.4162  -0.4110  -0.4024  -0.3985
 -0.3800  -0.3758  -0.3711  -0.3370  -0.3314  -0.3270  -0.3242  -0.3228
 -0.3156  -0.3145  -0.3078  -0.2986  -0.2933  -0.2863

          Ground-State Mulliken Net Atomic Charges

     Atom                 Charge (a.u.)
  ----------------------------------------
      1 C                    -0.088894
      2 C                     0.241765
      3 C                    -0.009003
      4 C                     0.619146
      5 C                     0.601802
      6 C                     0.668789
      7 C                    -0.822885
      8 C                     0.327485
      9 C                    -0.426486
     10 C                    -0.556371
     11 O                    -0.177935
     12 O                    -0.211462
     13 H                     0.257535
     14 H                     0.270558
     15 C                    -0.775095
     16 O                    -0.234203
     17 O                     0.026000
     18 C                    -0.271047
     19 H                     0.275564
     20 H                     0.191346
     21 H                     0.185958
     22 H                     0.198516
     23 C                     0.045680
     24 O                    -0.281093
     25 O                    -0.031920
     26 C                    -0.288784
     27 O                    -0.257218
     28 O                    -0.030057
     29 C                    -0.370993
     30 C                    -0.268783
     31 H                     0.198341
     32 H                     0.222042
     33 H                     0.180461
     34 H                     0.189482
     35 H                     0.194086
     36 H                     0.207674
  ----------------------------------------
  Sum of atomic charges =     0.000000

                    Cartesian Multipole Moments
 -----------------------------------------------------------------
    Charge (ESU x 10^10)
                -0.0000
    Dipole Moment (Debye)
         X      -2.1089      Y       0.1560      Z       0.3008
       Tot       2.1360
    Quadrupole Moments (Debye-Ang)
        XX    -130.0894     XY      13.8964     YY    -136.2996
        XZ     -13.7624     YZ      24.2459     ZZ    -142.3579

 Total job time:  120.08s(wall), 880.61s(cpu)
        *  Thank you very much for using Q-Chem.  Have a nice day.  *
