 Gaussian 16, Revision A.03,
 Gaussian 16:  ES64L-G16RevA.03 25-Dec-2016

 --------------------------------------
 #P UB3LYP/6-311++G(d,p) nosym opt freq
 --------------------------------------

 --------
 Oxidized
 --------
 Symbolic Z-matrix:
 Charge =  0 Multiplicity = 1

 SCF Done:  E(UB3LYP) =  -1219.04974540     A.U. after   16 cycles
 Optimization completed.
    -- Stationary point found.
 Normal termination of Gaussian 16 at Mon Jan  8 01:28:15 2024.

 ----------------------------------------------------------------------
 #P Geom=AllCheck Guess=TCheck SCRF=Check GenChk UB3LYP/6-311++G(d,p) F
 req
 ----------------------------------------------------------------------

 Structure from the checkpoint file:  "265.chk"
 --------
 Oxidized
 --------
 Charge =  0 Multiplicity = 1

                          Input orientation:
 ---------------------------------------------------------------------
 Center     Atomic      Atomic             Coordinates (Angstroms)
 Number     Number       Type             X           Y           Z
 ---------------------------------------------------------------------
      1          6           0       -0.784374    2.842619   -0.603550
      2          6           0       -2.138561    2.512403   -0.686269
      3          6           0       -2.594914    1.270464   -0.261296
      4          6           0        0.115637    1.896789   -0.093806
      5          6           0       -0.343823    0.630576    0.321361
      6          6           0       -1.706220    0.314930    0.231005
      7          6           0        1.559873    2.254745    0.036062
      8          6           0        2.519059    1.153381    0.340699
      9          6           0        2.069676   -0.027060    0.792747
     10          6           0        0.627209   -0.343474    0.902610
     11          8           0        1.929729    3.411398   -0.040275
     12          8           0        0.268981   -1.368614    1.455081
     13          1           0       -3.650504    1.033473   -0.323123
     14          1           0        2.752443   -0.803694    1.119350
     15          6           0       -2.285002   -1.009791    0.659564
     16          8           0       -3.006286   -1.136637    1.616435
     17          8           0       -1.983431   -1.979264   -0.213272
     18          6           0       -2.439338   -3.304050    0.134534
     19          1           0       -2.839576    3.229104   -1.098909
     20          1           0       -2.132864   -3.939854   -0.692447
     21          1           0       -3.523217   -3.315438    0.251792
     22          1           0       -1.965317   -3.622474    1.063502
     23          6           0        4.001909    1.392415    0.244334
     24          8           0        4.795454    0.998447    1.063757
     25          8           0        4.313810    2.038283   -0.880327
     26          6           0       -0.359807    4.159542   -1.226799
     27          8           0       -0.087448    4.212722   -2.395874
     28          8           0       -0.453583    5.282604   -0.493726
     29          6           0       -0.557730    5.225953    0.940207
     30          6           0        5.713088    2.326582   -1.085953
     31          1           0       -0.702589    6.256706    1.256480
     32          1           0        0.367191    4.835333    1.365562
     33          1           0       -1.410849    4.624126    1.259243
     34          1           0        5.759277    2.850976   -2.036740
     35          1           0        6.288486    1.400972   -1.122804
     36          1           0        6.086340    2.956416   -0.278084
 ---------------------------------------------------------------------

 SCF Done:  E(UB3LYP) =  -1219.04974540     A.U. after    1 cycles

 Alpha  occ. eigenvalues --  -19.19403 -19.18667 -19.18110 -19.15746 -19.15592
 Alpha  occ. eigenvalues --  -19.13905 -19.13179 -19.12384 -10.33371 -10.32679
 Alpha  occ. eigenvalues --  -10.32463 -10.30941 -10.30518 -10.24687 -10.24179
 Alpha  occ. eigenvalues --  -10.24131 -10.24054 -10.24019 -10.23980 -10.23909
 Alpha  occ. eigenvalues --  -10.23788 -10.23620 -10.22838 -10.22776  -1.13823
 Alpha  occ. eigenvalues --   -1.12980  -1.12042  -1.09213  -1.08821  -1.05067
 Alpha  occ. eigenvalues --   -1.04339  -1.04103  -0.92302  -0.87537  -0.82808
 Alpha  occ. eigenvalues --   -0.81322  -0.76620  -0.75370  -0.74442  -0.72427
 Alpha  occ. eigenvalues --   -0.69602  -0.67890  -0.65296  -0.61005  -0.59841
 Alpha  occ. eigenvalues --   -0.58381  -0.57023  -0.56348  -0.54664  -0.54167
 Alpha  occ. eigenvalues --   -0.53452  -0.51338  -0.50732  -0.50091  -0.49765
 Alpha  occ. eigenvalues --   -0.49469  -0.49148  -0.49065  -0.47786  -0.47374
 Alpha  occ. eigenvalues --   -0.47025  -0.46718  -0.45145  -0.44316  -0.44101
 Alpha  occ. eigenvalues --   -0.43870  -0.42495  -0.42153  -0.41934  -0.41349
 Alpha  occ. eigenvalues --   -0.40725  -0.40181  -0.38536  -0.37817  -0.36791
 Alpha  occ. eigenvalues --   -0.33786  -0.33364  -0.32602  -0.32074  -0.31718
 Alpha  occ. eigenvalues --   -0.31533  -0.30802  -0.30608  -0.30072  -0.29240
 Alpha  occ. eigenvalues --   -0.28115
 Alpha virt. eigenvalues --   -0.14886  -0.08777  -0.07030  -0.02647  -0.01710
 Alpha virt. eigenvalues --   -0.01445  -0.01101  -0.00806  -0.00515   0.00032
 Alpha virt. eigenvalues --    0.00520   0.00990   0.01847   0.02205   0.02553

  Beta  occ. eigenvalues --  -19.19403 -19.18667 -19.18110 -19.15746 -19.15592
  Beta  occ. eigenvalues --  -19.13905 -19.13179 -19.12384 -10.33371 -10.32679
  Beta  occ. eigenvalues --  -10.32463 -10.30941 -10.30518 -10.24687 -10.24179
  Beta  occ. eigenvalues --  -10.24131 -10.24054 -10.24019 -10.23980 -10.23909
  Beta  occ. eigenvalues --  -10.23788 -10.23620 -10.22838 -10.22776  -1.13823
  Beta  occ. eigenvalues --   -1.12980  -1.12042  -1.09213  -1.08821  -1.05067
  Beta  occ. eigenvalues --   -1.04339  -1.04103  -0.92302  -0.87537  -0.82808
  Beta  occ. eigenvalues --   -0.81322  -0.76620  -0.75370  -0.74442  -0.72427
  Beta  occ. eigenvalues --   -0.69602  -0.67890  -0.65296  -0.61005  -0.59841
  Beta  occ. eigenvalues --   -0.58381  -0.57023  -0.56348  -0.54664  -0.54167
  Beta  occ. eigenvalues --   -0.53452  -0.51338  -0.50732  -0.50091  -0.49765
  Beta  occ. eigenvalues --   -0.49469  -0.49148  -0.49065  -0.47786  -0.47374
  Beta  occ. eigenvalues --   -0.47025  -0.46718  -0.45145  -0.44316  -0.44101
  Beta  occ. eigenvalues --   -0.43870  -0.42495  -0.42153  -0.41934  -0.41349
  Beta  occ. eigenvalues --   -0.40725  -0.40181  -0.38536  -0.37817  -0.36791
  Beta  occ. eigenvalues --   -0.33786  -0.33364  -0.32602  -0.32074  -0.31718
  Beta  occ. eigenvalues --   -0.31533  -0.30802  -0.30608  -0.30072  -0.29240
  Beta  occ. eigenvalues --   -0.28115
  Beta virt. eigenvalues --   -0.14886  -0.08777  -0.07030  -0.02647  -0.01710
  Beta virt. eigenvalues --   -0.01445  -0.01101  -0.00806  -0.00515   0.00032
  Beta virt. eigenvalues --    0.00520   0.00990   0.01847   0.02205   0.02553

 Mulliken charges and spin densities:
               1          2
     1  C   -0.116805   0.000000
     2  C    0.283812  -0.000000
     3  C    0.005498  -0.000000
     4  C    0.594607   0.000000
     5  C    0.540514   0.000000
     6  C    0.668790   0.000000
     7  C   -0.814514  -0.000000
     8  C    0.342386   0.000000
     9  C   -0.401851  -0.000000
    10  C   -0.581557  -0.000000
    11  O   -0.117319   0.000000
    12  O   -0.153629  -0.000000
    13  H    0.204333   0.000000
    14  H    0.244386   0.000000
    15  C   -0.863347  -0.000000
    16  O   -0.147072   0.000000
    17  O    0.053821   0.000000
    18  C   -0.238399  -0.000000
    19  H    0.221100  -0.000000
    20  H    0.162677  -0.000000
    21  H    0.167823   0.000000
    22  H    0.192800   0.000000
    23  C   -0.049026  -0.000000
    24  O   -0.206664  -0.000000
    25  O   -0.000613   0.000000
    26  C   -0.359180  -0.000000
    27  O   -0.153287   0.000000
    28  O    0.033571   0.000000
    29  C   -0.336860   0.000000
    30  C   -0.240118  -0.000000
    31  H    0.173501  -0.000000
    32  H    0.206421   0.000000
    33  H    0.147272   0.000000
    34  H    0.169636  -0.000000
    35  H    0.175905  -0.000000
    36  H    0.191388   0.000000
 Sum of Mulliken charges =  -0.00000   0.00000

 Dipole moment (field-independent basis, Debye):
    X=             -0.7329    Y=             -1.0627    Z=             -0.1307  Tot=              1.2975
 Quadrupole moment (field-independent basis, Debye-Ang):
   XX=           -123.0178   YY=           -137.7740   ZZ=           -151.5566
   XY=             -1.6510   XZ=             -2.8619   YZ=             19.9735

  Exact polarizability: 244.845  24.335 247.434  -3.748 -32.143 157.957
 Approx polarizability: 350.605  35.783 392.530  -5.318 -68.575 270.627

                      1                      2                      3
                      A                      A                      A
 Frequencies --     21.6834                26.3829                42.2505
 Red. masses --      7.2156                 6.4630                 5.5348
 Frc consts  --      0.0020                 0.0027                 0.0058
 IR Inten    --      0.4692                 2.4904                 4.4269

                      4                      5                      6
                      A                      A                      A
 Frequencies --     46.4899                65.4125                67.4489
 Red. masses --      5.1122                 4.9481                 3.6591
 Frc consts  --      0.0065                 0.0125                 0.0098
 IR Inten    --      4.4643                 0.1989                 0.1489

                      7                      8                      9
                      A                      A                      A
 Frequencies --     79.9047                93.6689               105.1926
 Red. masses --      3.3104                 2.0156                 2.1857
 Frc consts  --      0.0125                 0.0104                 0.0142
 IR Inten    --      1.1430                 0.5322                 0.2192

                     10                     11                     12
                      A                      A                      A
 Frequencies --    119.6556               128.6151               132.3341
 Red. masses --      1.8447                 2.2744                 1.1879
 Frc consts  --      0.0156                 0.0222                 0.0123
 IR Inten    --      0.7496                 3.9797                 0.2433

                     13                     14                     15
                      A                      A                      A
 Frequencies --    141.6371               143.1279               169.3279
 Red. masses --      5.4893                 5.2538                 4.4245
 Frc consts  --      0.0649                 0.0634                 0.0747
 IR Inten    --      2.0678                 2.8198                 1.8414

                     16                     17                     18
                      A                      A                      A
 Frequencies --    183.1857               202.3135               208.3157
 Red. masses --      2.9087                 5.1689                 5.6658
 Frc consts  --      0.0575                 0.1247                 0.1449
 IR Inten    --      3.1356                 5.5053                 4.5600

                     19                     20                     21
                      A                      A                      A
 Frequencies --    235.8611               260.2337               265.3972
 Red. masses --      6.0965                 7.1804                 7.0516
 Frc consts  --      0.1998                 0.2865                 0.2926
 IR Inten    --      0.7848                 0.0560                 3.2937

                     22                     23                     24
                      A                      A                      A
 Frequencies --    278.0969               309.9772               317.8238
 Red. masses --      7.8648                 4.3745                 6.2296
 Frc consts  --      0.3584                 0.2476                 0.3708
 IR Inten    --      2.6535                12.2760                12.1617

                     25                     26                     27
                      A                      A                      A
 Frequencies --    331.6901               369.3276               374.6540
 Red. masses --      5.5895                 8.2240                 8.8793
 Frc consts  --      0.3623                 0.6609                 0.7343
 IR Inten    --      5.9497                17.9157                16.8916

                     28                     29                     30
                      A                      A                      A
 Frequencies --    392.6942               437.9997               459.1896
 Red. masses --      5.7379                 5.7070                 5.4783
 Frc consts  --      0.5213                 0.6451                 0.6806
 IR Inten    --     13.0633                 0.6424                 0.5698

                     31                     32                     33
                      A                      A                      A
 Frequencies --    489.3115               519.0698               550.2588
 Red. masses --     10.5337                 7.9957                 7.6482
 Frc consts  --      1.4859                 1.2693                 1.3644
 IR Inten    --      6.9021                 7.3692                 4.3591

                     34                     35                     36
                      A                      A                      A
 Frequencies --    612.8757               622.2991               656.3849
 Red. masses --      5.7698                 7.2414                 6.0851
 Frc consts  --      1.2769                 1.6522                 1.5447
 IR Inten    --      9.8189                22.8062                 3.3794

                     37                     38                     39
                      A                      A                      A
 Frequencies --    673.8648               726.6133               735.5502
 Red. masses --      7.1991                 4.9858                 7.4822
 Frc consts  --      1.9261                 1.5509                 2.3851
 IR Inten    --      3.4944                 2.2056                 2.9378

                     40                     41                     42
                      A                      A                      A
 Frequencies --    748.3111               759.9763               782.7498
 Red. masses --      8.4214                 8.6800                 6.5217
 Frc consts  --      2.7784                 2.9537                 2.3543
 IR Inten    --     51.5674                 4.2649                14.1807

                     43                     44                     45
                      A                      A                      A
 Frequencies --    799.2736               811.5047               829.1173
 Red. masses --      6.0286                 8.4715                 8.2366
 Frc consts  --      2.2691                 3.2869                 3.3360
 IR Inten    --     11.4013                 0.8580                 9.1669

                     46                     47                     48
                      A                      A                      A
 Frequencies --    864.0817               867.7293               883.2401
 Red. masses --      6.5767                 1.7300                 4.5669
 Frc consts  --      2.8931                 0.7675                 2.0991
 IR Inten    --     12.5434                24.4832                 5.6015

                     49                     50                     51
                      A                      A                      A
 Frequencies --    919.7434               954.6996               983.2746
 Red. masses --      5.4191                 1.6245                 5.5082
 Frc consts  --      2.7009                 0.8724                 3.1377
 IR Inten    --      6.7089                14.0971                38.5713

                     52                     53                     54
                      A                      A                      A
 Frequencies --    994.6316              1010.3477              1042.2710
 Red. masses --      1.4580                 7.1955                 7.1068
 Frc consts  --      0.8499                 4.3276                 4.5487
 IR Inten    --      2.2528                37.7195                84.5909

                     55                     56                     57
                      A                      A                      A
 Frequencies --   1121.7563              1129.2462              1161.0790
 Red. masses --      4.9791                 4.1719                 2.3079
 Frc consts  --      3.6914                 3.1345                 1.8331
 IR Inten    --    102.1481               188.7819               171.5617

                     58                     59                     60
                      A                      A                      A
 Frequencies --   1167.0659              1169.0796              1169.5612
 Red. masses --      1.2915                 1.3707                 1.2802
 Frc consts  --      1.0365                 1.1038                 1.0317
 IR Inten    --      9.4881                19.4790                 0.6989

                     61                     62                     63
                      A                      A                      A
 Frequencies --   1172.0633              1201.0603              1211.7844
 Red. masses --      1.7596                 1.6681                 1.5732
 Frc consts  --      1.4242                 1.4177                 1.3611
 IR Inten    --     33.3803                24.4018                 9.3929

                     64                     65                     66
                      A                      A                      A
 Frequencies --   1217.3425              1236.7016              1272.7262
 Red. masses --      1.7964                 2.5168                 4.0198
 Frc consts  --      1.5684                 2.2680                 3.8364
 IR Inten    --    125.3227               130.3878               308.6856

                     67                     68                     69
                      A                      A                      A
 Frequencies --   1282.3134              1300.0304              1311.6172
 Red. masses --      2.8793                 4.7447                 3.7060
 Frc consts  --      2.7894                 4.7246                 3.7564
 IR Inten    --    300.3743               153.3909               245.4014

                     70                     71                     72
                      A                      A                      A
 Frequencies --   1343.0720              1366.1531              1416.6765
 Red. masses --      8.0652                 3.5192                 4.9968
 Frc consts  --      8.5717                 3.8699                 5.9086
 IR Inten    --     29.3043                89.1111                25.5327

                     73                     74                     75
                      A                      A                      A
 Frequencies --   1467.7438              1470.6338              1474.8181
 Red. masses --      1.2165                 1.2054                 1.1833
 Frc consts  --      1.5441                 1.5360                 1.5165
 IR Inten    --     15.2659                17.4106                10.5007

                     76                     77                     78
                      A                      A                      A
 Frequencies --   1483.9014              1484.1590              1492.4854
 Red. masses --      1.0448                 1.0443                 1.0635
 Frc consts  --      1.3555                 1.3553                 1.3958
 IR Inten    --     10.5041                10.1880                14.1968

                     79                     80                     81
                      A                      A                      A
 Frequencies --   1493.7879              1495.2339              1500.6370
 Red. masses --      1.0476                 1.0515                 2.9091
 Frc consts  --      1.3773                 1.3851                 3.8598
 IR Inten    --     10.2981                12.3288                53.7532

                     82                     83                     84
                      A                      A                      A
 Frequencies --   1506.7163              1583.3799              1625.8535
 Red. masses --      1.0636                 6.7039                 6.8590
 Frc consts  --      1.4226                 9.9026                10.6825
 IR Inten    --     13.5525                27.2286                 0.0906

                     85                     86                     87
                      A                      A                      A
 Frequencies --   1676.5415              1727.6726              1733.0397
 Red. masses --      9.4881                11.2684                12.9223
 Frc consts  --     15.7130                19.8169                22.8669
 IR Inten    --      9.7642                84.2334               346.2020

                     88                     89                     90
                      A                      A                      A
 Frequencies --   1779.2442              1787.9295              1800.8289
 Red. masses --     11.7209                11.9450                12.8154
 Frc consts  --     21.8617                22.4977                24.4865
 IR Inten    --    249.9133               296.3368               344.8448

                     91                     92                     93
                      A                      A                      A
 Frequencies --   3045.1385              3054.7109              3055.4188
 Red. masses --      1.0314                 1.0292                 1.0297
 Frc consts  --      5.6350                 5.6581                 5.6639
 IR Inten    --     25.4998                36.4004                27.8878

                     94                     95                     96
                      A                      A                      A
 Frequencies --   3122.5009              3131.0878              3131.9714
 Red. masses --      1.1060                 1.1075                 1.1076
 Frc consts  --      6.3536                 6.3968                 6.4013
 IR Inten    --     13.5435                13.4122                12.2149

                     97                     98                     99
                      A                      A                      A
 Frequencies --   3150.8618              3163.3123              3168.9429
 Red. masses --      1.1046                 1.1067                 1.1064
 Frc consts  --      6.4613                 6.5245                 6.5463
 IR Inten    --     15.5880                10.6541                 8.0320

                    100                    101                    102
                      A                      A                      A
 Frequencies --   3177.4474              3190.7204              3193.1129
 Red. masses --      1.0888                 1.0925                 1.0951
 Frc consts  --      6.4765                 6.5534                 6.5786
 IR Inten    --      0.5847                 0.5584                 1.8990

 - Thermochemistry -
 -------------------
 Temperature   298.150 Kelvin.  Pressure   1.00000 Atm.
 Atom     1 has atomic number  6 and mass  12.00000

 Molecular mass:   332.05322 amu.
 Principal axes and moments of inertia in atomic units:
                           1         2         3
     Eigenvalues --  5946.313559576.82512**********
           X            0.80102  -0.59835  -0.01832
           Y            0.58471   0.77546   0.23828
           Z           -0.12837  -0.20158   0.97102
 This molecule is an asymmetric top.
 Rotational symmetry number  1.
 Warning -- assumption of classical behavior for rotation
           may cause significant error
 Rotational temperatures (Kelvin)      0.01457     0.00904     0.00618
 Rotational constants (GHZ):           0.30351     0.18845     0.12868
 Zero-point vibrational energy     677482.5 (Joules/Mol)
                                  161.92221 (Kcal/Mol)
 Warning -- explicit consideration of  34 degrees of freedom as
           vibrations may cause significant error
 Vibrational temperatures:     31.20    37.96    60.79    66.89    94.11
          (Kelvin)             97.04   114.97   134.77   151.35   172.16
                              185.05   190.40   203.78   205.93   243.63
                              263.56   291.08   299.72   339.35   374.42
                              381.85   400.12   445.99   457.28   477.23
                              531.38   539.04   565.00   630.18   660.67
                              704.01   746.83   791.70   881.79   895.35
                              944.39   969.54  1045.43  1058.29  1076.65
                             1093.44  1126.20  1149.98  1167.57  1192.91
                             1243.22  1248.47  1270.79  1323.31  1373.60
                             1414.71  1431.05  1453.66  1499.60  1613.96
                             1624.73  1670.53  1679.15  1682.04  1682.74
                             1686.34  1728.06  1743.49  1751.48  1779.34
                             1831.17  1844.96  1870.45  1887.12  1932.38
                             1965.59  2038.28  2111.76  2115.91  2121.93
                             2135.00  2135.37  2147.35  2149.23  2151.31
                             2159.08  2167.83  2278.13  2339.24  2412.17
                             2485.74  2493.46  2559.94  2572.43  2590.99
                             4381.28  4395.05  4396.07  4492.58  4504.94
                             4506.21  4533.39  4551.30  4559.40  4571.64
                             4590.73  4594.18

 Zero-point correction=                           0.258039 (Hartree/Particle)
 Thermal correction to Energy=                    0.281110
 Thermal correction to Enthalpy=                  0.282054
 Thermal correction to Gibbs Free Energy=         0.203056
 Sum of electronic and zero-point Energies=          -1218.791706
 Sum of electronic and thermal Energies=             -1218.768635
 Sum of electronic and thermal Enthalpies=           -1218.767691
 Sum of electronic and thermal Free Energies=        -1218.846689

                     E (Thermal)             CV                S
                      KCal/Mol        Cal/Mol-Kelvin    Cal/Mol-Kelvin
 Total                  176.399             81.296            166.266
 Electronic               0.000              0.000              0.000
 Translational            0.889              2.981             43.295
 Rotational               0.889              2.981             35.034
 Vibrational            174.622             75.335             87.937
 Vibration     1          0.593              1.985              6.474
 Vibration     2          0.593              1.985              6.084
 Vibration     3          0.595              1.980              5.151
 Vibration     4          0.595              1.979              4.961
 Vibration     5          0.597              1.971              4.287
 Vibration     6          0.598              1.970              4.226
 Vibration     7          0.600              1.963              3.893
 Vibration     8          0.603              1.954              3.582
 Vibration     9          0.605              1.945              3.356
 Vibration    10          0.609              1.933              3.106
 Vibration    11          0.611              1.925              2.967
 Vibration    12          0.612              1.921              2.912
 Vibration    13          0.615              1.912              2.782
 Vibration    14          0.616              1.910              2.762
 Vibration    15          0.625              1.880              2.443
 Vibration    16          0.631              1.863              2.296
 Vibration    17          0.639              1.837              2.112
 Vibration    18          0.642              1.828              2.058
 Vibration    19          0.655              1.786              1.834
 Vibration    20          0.668              1.745              1.660
 Vibration    21          0.671              1.736              1.626
 Vibration    22          0.679              1.714              1.545
 Vibration    23          0.699              1.655              1.362
 Vibration    24          0.704              1.640              1.321
 Vibration    25          0.714              1.612              1.252
 Vibration    26          0.742              1.535              1.083
 Vibration    27          0.746              1.524              1.061
 Vibration    28          0.760              1.486              0.990
 Vibration    29          0.798              1.387              0.833
 Vibration    30          0.817              1.341              0.768
 Vibration    31          0.845              1.274              0.685
 Vibration    32          0.874              1.208              0.612
 Vibration    33          0.906              1.139              0.544
 Vibration    34          0.972              1.005              0.428

                           ! Non-Optimized Parameters !
 Normal termination of Gaussian 16 at Mon Jan  8 03:02:32 2024.
