 Q-Chem 5.4, Q-Chem, Inc., Pleasanton, CA (2021)
 Q-Chem 5.4.0 for Intel X86 EM64T Linux

User input:
--------------------------------------------------------------
$molecule
-1 2
N                 -5.0515430000     -0.6631730000     -0.5892000000
C                 -3.7398880000     -0.2164920000     -0.2825240000
C                 -3.5660600000      1.0212930000      0.3847940000
C                 -2.2979560000      1.4922360000      0.6504320000
C                 -1.1438530000      0.7765410000      0.2651760000
C                  0.1761470000      1.3224860000      0.5723890000
O                  0.3264250000      2.4170330000      1.1765100000
C                  1.3180200000      0.5166470000      0.1372850000
C                  2.6241600000      0.9801340000      0.4047490000
C                  3.7404280000      0.2587790000      0.0241990000
N                  5.0524370000      0.7520600000      0.2449700000
C                  3.5666550000     -0.9741610000     -0.6521150000
C                  2.2985350000     -1.4465310000     -0.9150260000
C                  1.1444130000     -0.7274310000     -0.5363340000
C                 -0.1756030000     -1.2753100000     -0.8400910000
O                 -0.3259940000     -2.3770370000     -1.4307670000
C                 -1.3173770000     -0.4650670000     -0.4129680000
C                 -2.6237040000     -0.9345540000     -0.6691470000
H                 -5.7268860000     -0.4318350000      0.1285500000
H                 -5.0878610000     -1.6543250000     -0.7897430000
H                 -4.4395130000      1.5985460000      0.6778880000
H                 -2.1494240000      2.4355640000      1.1637850000
H                  2.7169770000      1.9284050000      0.9252120000
H                  5.7221510000      0.0209550000      0.4488250000
H                  5.0854850000      1.4615580000      0.9655700000
H                  4.4402730000     -1.5391330000     -0.9677550000
H                  2.1500400000     -2.3901340000     -1.4279500000
H                 -2.7164840000     -1.8870520000     -1.1819060000
$end

$rem
BASIS  =  6-311++G(d,p)
GUI  =  2
JOB_TYPE  =  SP
METHOD  =  B3LYP
SCF_CONVERGENCE  = 8
SOLVENT_METHOD = sm12
$end

$smx
solvent dimethylformamide
charges CM5
$end

--------------------------------------------------------------

             Standard Nuclear Orientation (Angstroms)
    I     Atom           X                Y                Z
 ----------------------------------------------------------------
    1      N      -5.0515430000    -0.6631730000    -0.5892000000
    2      C      -3.7398880000    -0.2164920000    -0.2825240000
    3      C      -3.5660600000     1.0212930000     0.3847940000
    4      C      -2.2979560000     1.4922360000     0.6504320000
    5      C      -1.1438530000     0.7765410000     0.2651760000
    6      C       0.1761470000     1.3224860000     0.5723890000
    7      O       0.3264250000     2.4170330000     1.1765100000
    8      C       1.3180200000     0.5166470000     0.1372850000
    9      C       2.6241600000     0.9801340000     0.4047490000
   10      C       3.7404280000     0.2587790000     0.0241990000
   11      N       5.0524370000     0.7520600000     0.2449700000
   12      C       3.5666550000    -0.9741610000    -0.6521150000
   13      C       2.2985350000    -1.4465310000    -0.9150260000
   14      C       1.1444130000    -0.7274310000    -0.5363340000
   15      C      -0.1756030000    -1.2753100000    -0.8400910000
   16      O      -0.3259940000    -2.3770370000    -1.4307670000
   17      C      -1.3173770000    -0.4650670000    -0.4129680000
   18      C      -2.6237040000    -0.9345540000    -0.6691470000
   19      H      -5.7268860000    -0.4318350000     0.1285500000
   20      H      -5.0878610000    -1.6543250000    -0.7897430000
   21      H      -4.4395130000     1.5985460000     0.6778880000
   22      H      -2.1494240000     2.4355640000     1.1637850000
   23      H       2.7169770000     1.9284050000     0.9252120000
   24      H       5.7221510000     0.0209550000     0.4488250000
   25      H       5.0854850000     1.4615580000     0.9655700000
   26      H       4.4402730000    -1.5391330000    -0.9677550000
   27      H       2.1500400000    -2.3901340000    -1.4279500000
   28      H      -2.7164840000    -1.8870520000    -1.1819060000
 ----------------------------------------------------------------

   16    -799.7590163231      7.66e-09  Convergence criterion met
 Total energy in the final basis set =     -799.8620954353

                    Orbital Energies (a.u.)
 --------------------------------------------------------------

 Alpha MOs
 -- Occupied --
-19.0718 -19.0718 -14.3201 -14.3201 -10.2211 -10.2211 -10.2176 -10.2176
-10.1786 -10.1786 -10.1777 -10.1777 -10.1762 -10.1762 -10.1700 -10.1700
-10.1679 -10.1679  -0.9977  -0.9955  -0.9193  -0.9192  -0.8525  -0.8397
 -0.7769  -0.7548  -0.7478  -0.7277  -0.6659  -0.6457  -0.6147  -0.6029
 -0.5642  -0.5435  -0.5339  -0.5100  -0.4962  -0.4905  -0.4718  -0.4542
 -0.4485  -0.4300  -0.4287  -0.4242  -0.4194  -0.4076  -0.4045  -0.3974
 -0.3864  -0.3762  -0.3719  -0.3581  -0.3557  -0.3379  -0.3136  -0.3027
 -0.2661  -0.2583  -0.2425  -0.2344  -0.2297  -0.2169  -0.1373

 Beta MOs
 -- Occupied --
-19.0662 -19.0662 -14.3199 -14.3198 -10.2194 -10.2194 -10.2170 -10.2170
-10.1786 -10.1786 -10.1776 -10.1776 -10.1750 -10.1750 -10.1697 -10.1697
-10.1676 -10.1676  -0.9880  -0.9856  -0.9186  -0.9183  -0.8497  -0.8388
 -0.7738  -0.7520  -0.7462  -0.7262  -0.6585  -0.6443  -0.6125  -0.6022
 -0.5618  -0.5413  -0.5330  -0.5095  -0.4958  -0.4887  -0.4695  -0.4532
 -0.4470  -0.4296  -0.4283  -0.4172  -0.4134  -0.4049  -0.4018  -0.3936
 -0.3833  -0.3661  -0.3553  -0.3540  -0.3538  -0.3360  -0.3103  -0.2914
 -0.2545  -0.2497  -0.2373  -0.2290  -0.2203  -0.2111

          Ground-State Mulliken Net Atomic Charges

     Atom                 Charge (a.u.)    Spin (a.u.)
  --------------------------------------------------------
      1 N                    -0.068731       0.010385
      2 C                     1.547305       0.034346
      3 C                     1.672499       0.011566
      4 C                     0.008055       0.033059
      5 C                    -1.015725       0.004771
      6 C                    -2.477532       0.082418
      7 O                    -0.297886       0.211690
      8 C                    -1.147842       0.070842
      9 C                    -0.150622       0.047012
     10 C                     1.545175       0.034228
     11 N                    -0.067544       0.010429
     12 C                     1.675119       0.011491
     13 C                     0.007796       0.033056
     14 C                    -1.016811       0.004543
     15 C                    -2.476590       0.082371
     16 O                    -0.297778       0.211595
     17 C                    -1.146726       0.070999
     18 C                    -0.153404       0.046770
     19 H                     0.393747       0.001094
     20 H                     0.382759      -0.000240
     21 H                     0.367100      -0.001402
     22 H                     0.152600      -0.001760
     23 H                     0.134144      -0.003490
     24 H                     0.393653       0.001090
     25 H                     0.382885      -0.000234
     26 H                     0.367322      -0.001395
     27 H                     0.152598      -0.001758
     28 H                     0.134432      -0.003477
  --------------------------------------------------------
  Sum of atomic charges =    -1.000000

                    Cartesian Multipole Moments
 -----------------------------------------------------------------
    Charge (ESU x 10^10)
                -4.8032
    Dipole Moment (Debye)
         X      -0.0089      Y      -1.2294      Z       2.7026
       Tot       2.9691
    Quadrupole Moments (Debye-Ang)
        XX     -91.9308     XY       0.8059     YY    -131.5434
        XZ       0.5727     YZ      -9.2952     ZZ    -119.7707

 Total job time:  685.83s(wall), 5144.70s(cpu)
        *  Thank you very much for using Q-Chem.  Have a nice day.  *
