 Q-Chem 5.4, Q-Chem, Inc., Pleasanton, CA (2021)
 Q-Chem 5.4.0 for Intel X86 EM64T Linux

User input:
--------------------------------------------------------------
$molecule
0 1
C                  1.2095470000     -0.6456890000      1.8476190000
C                  0.8118800000     -1.6720200000      0.8487220000
C                 -0.2762680000     -1.5371220000      0.0804520000
C                 -1.1420300000     -0.3385180000      0.1827590000
C                 -0.7374360000      0.7160110000      1.1553740000
C                  0.3545560000      0.5776180000      1.9170940000
O                  2.1690340000     -0.8186640000      2.5737070000
O                 -2.1452900000     -0.2106800000     -0.4948320000
S                  0.8374810000      1.9822650000      2.9902290000
C                  0.7958900000      1.3396870000      4.6691890000
C                 -0.3985420000      1.4167100000      5.3849210000
C                  1.9606010000      0.8179510000      5.2280660000
C                  1.9189240000      0.3536480000      6.5401550000
C                 -0.4251430000      0.9423840000      6.6937970000
C                  0.7304910000      0.4126900000      7.2681450000
O                  2.2119620000      2.3371210000      2.6415560000
O                 -0.2531670000      2.9541530000      2.8575390000
H                  1.4585170000     -2.5412440000      0.8005630000
H                 -0.5794200000     -2.2863050000     -0.6422790000
H                 -1.3596130000      1.6028010000      1.2113560000
H                 -1.2763650000      1.8580520000      4.9301090000
H                  2.8697280000      0.7799530000      4.6437220000
H                  2.8159210000     -0.0512880000      6.9936100000
H                 -1.3430910000      0.9982630000      7.2669710000
H                  0.7057500000      0.0487630000      8.2890750000
$end
$rem
MAX_SCF_CYCLES=200
BASIS  =  6-311++G(d,p)
GUI  =  2
JOB_TYPE  =  SP
METHOD  =  B3LYP
SOLVENT_METHOD = COSMO
$end
$solvent
dielectric 37.219
opticaldielectric 1.43
$end

--------------------------------------------------------------

             Standard Nuclear Orientation (Angstroms)
    I     Atom           X                Y                Z
 ----------------------------------------------------------------
    1      C       1.2878851984     1.3623613335    -0.3683525450
    2      C       2.5773189350     1.9181476473     0.1192454384
    3      C       3.5267711670     1.1474664715     0.6643081115
    4      C       3.3400945321    -0.3165417929     0.8002998295
    5      C       2.0665712856    -0.8941450406     0.2843340517
    6      C       1.1232058084    -0.1189791111    -0.2642968508
    7      O       0.4185964875     2.0908516662    -0.8058207266
    8      O       4.1857868263    -1.0274920443     1.3115307251
    9      S      -0.3511017751    -0.9370636150    -0.9819481395
   10      C      -1.7543554641    -0.2886342248    -0.0632744274
   11      C      -2.1560627197    -0.9490078601     1.0975057342
   12      C      -2.4291864019     0.8291226463    -0.5494086176
   13      C      -3.5330727482     1.2993083093     0.1571691691
   14      C      -3.2580711967    -0.4624784950     1.7958721455
   15      C      -3.9432222834     0.6581873207     1.3261728604
   16      O      -0.4451095431    -0.5079215134    -2.3761121389
   17      O      -0.2063854378    -2.3545291953    -0.6333301667
   18      H       2.6837485704     2.9922451117     0.0143815694
   19      H       4.4650940624     1.5466408116     1.0327187397
   20      H       1.9425013326    -1.9688367114     0.3635752472
   21      H      -1.6279977541    -1.8342342388     1.4287633169
   22      H      -2.0914917082     1.3113728814    -1.4564977340
   23      H      -4.0736087616     2.1646127040    -0.2078888289
   24      H      -3.5876367824    -0.9653556926     2.6974155314
   25      H      -4.8033438961     1.0304584420     1.8711114504
 ----------------------------------------------------------------

    9   -1161.3000180026      9.64e-06  Convergence criterion met
 Total energy in the final basis set =    -1161.3000180026
    5   -1161.3243538187      4.40e-06  Convergence criterion met
 Total energy in the final basis set =    -1161.3243538187

                    Orbital Energies (a.u.)
 --------------------------------------------------------------

 Alpha MOs
 -- Occupied --
-89.0783 -19.1596 -19.1590 -19.1447 -19.1432 -10.3096 -10.3044 -10.2537
-10.2382 -10.2274 -10.2225 -10.2206 -10.2050 -10.2034 -10.1964 -10.1943
-10.1939  -8.1420  -6.1048  -6.1040  -6.1030  -1.1401  -1.0924  -1.0893
 -1.0372  -0.8891  -0.8848  -0.8201  -0.7919  -0.7734  -0.7359  -0.7022
 -0.6522  -0.6376  -0.6324  -0.5982  -0.5589  -0.5439  -0.5330  -0.5161
 -0.4991  -0.4933  -0.4926  -0.4714  -0.4681  -0.4661  -0.4625  -0.4503
 -0.4457  -0.4380  -0.4258  -0.3979  -0.3901  -0.3698  -0.3691  -0.3577
 -0.3435  -0.3323  -0.3307  -0.3180  -0.3091  -0.2948  -0.2840  -0.2785

          Ground-State Mulliken Net Atomic Charges

     Atom                 Charge (a.u.)
  ----------------------------------------
      1 C                    -0.539413
      2 C                    -0.281638
      3 C                     0.211682
      4 C                    -0.448247
      5 C                    -0.071500
      6 C                     0.519196
      7 O                    -0.224982
      8 O                    -0.275946
      9 S                     0.463210
     10 C                     0.583541
     11 C                    -0.049739
     12 C                    -0.279366
     13 C                    -0.428400
     14 C                    -0.503097
     15 C                    -0.351332
     16 O                    -0.194694
     17 O                    -0.231201
     18 H                     0.276006
     19 H                     0.275965
     20 H                     0.307507
     21 H                     0.266526
     22 H                     0.283359
     23 H                     0.239940
     24 H                     0.235992
     25 H                     0.216634
  ----------------------------------------
  Sum of atomic charges =     0.000000

                    Cartesian Multipole Moments
 -----------------------------------------------------------------
    Charge (ESU x 10^10)
                -0.0000
    Dipole Moment (Debye)
         X      -1.1148      Y       4.6909      Z       5.1362
       Tot       7.0447
    Quadrupole Moments (Debye-Ang)
        XX     -90.2567     XY       8.1237     YY    -109.2839
        XZ     -12.0058     YZ      -1.6853     ZZ    -112.1334

 Total job time:  50.65s(wall), 374.93s(cpu)
        *  Thank you very much for using Q-Chem.  Have a nice day.  *
