 Q-Chem 5.4, Q-Chem, Inc., Pleasanton, CA (2021)
 Q-Chem 5.4.0 for Intel X86 EM64T Linux

User input:
--------------------------------------------------------------
$molecule
-1 2
O                  1.9790880000     -3.0746810000      0.8565720000
C                  1.4692790000     -1.9572620000      0.5853430000
C                  0.0802760000     -1.6883200000      0.4938290000
C                 -0.4629890000     -0.4408790000      0.1913880000
O                  0.3985180000      0.6367420000     -0.0422020000
C                  1.7484600000      0.4672040000      0.0253800000
C                  2.5363300000      1.5947200000     -0.2212760000
C                  3.9278090000      1.4884010000     -0.1676290000
C                  4.5273620000      0.2639510000      0.1303800000
C                  3.7301440000     -0.8545390000      0.3747800000
C                  2.3329170000     -0.7736300000      0.3270070000
C                 -1.8420010000     -0.0880690000      0.0800170000
C                 -2.8864850000     -1.0426590000      0.2819370000
C                 -4.2194840000     -0.6896500000      0.1710470000
C                 -4.6049140000      0.6238730000     -0.1451540000
C                 -3.5945880000      1.5766740000     -0.3472250000
C                 -2.2548170000      1.2414520000     -0.2403130000
H                 -0.5906270000     -2.5181130000      0.6733990000
H                  2.0477870000      2.5348450000     -0.4506840000
H                  4.5382230000      2.3653470000     -0.3595070000
H                  5.6090000000      0.1828970000      0.1716530000
H                  4.1571430000     -1.8229110000      0.6094840000
H                 -2.6346340000     -2.0670490000      0.5275340000
H                 -4.9796700000     -1.4491870000      0.3332010000
H                 -5.6519800000      0.8927590000     -0.2303180000
H                 -3.8626560000      2.6009410000     -0.5930800000
H                 -1.4974900000      1.9971430000     -0.4016160000
$end

$rem
BASIS  =  6-311++G(d,p)
GUI  =  2
JOB_TYPE  =  SP
METHOD  =  B3LYP
SCF_CONVERGENCE  = 8
SOLVENT_METHOD = sm12
$end

$smx
solvent dimethylformamide
charges CM5
$end

--------------------------------------------------------------

             Standard Nuclear Orientation (Angstroms)
    I     Atom           X                Y                Z
 ----------------------------------------------------------------
    1      O       1.9790880000    -3.0746810000     0.8565720000
    2      C       1.4692790000    -1.9572620000     0.5853430000
    3      C       0.0802760000    -1.6883200000     0.4938290000
    4      C      -0.4629890000    -0.4408790000     0.1913880000
    5      O       0.3985180000     0.6367420000    -0.0422020000
    6      C       1.7484600000     0.4672040000     0.0253800000
    7      C       2.5363300000     1.5947200000    -0.2212760000
    8      C       3.9278090000     1.4884010000    -0.1676290000
    9      C       4.5273620000     0.2639510000     0.1303800000
   10      C       3.7301440000    -0.8545390000     0.3747800000
   11      C       2.3329170000    -0.7736300000     0.3270070000
   12      C      -1.8420010000    -0.0880690000     0.0800170000
   13      C      -2.8864850000    -1.0426590000     0.2819370000
   14      C      -4.2194840000    -0.6896500000     0.1710470000
   15      C      -4.6049140000     0.6238730000    -0.1451540000
   16      C      -3.5945880000     1.5766740000    -0.3472250000
   17      C      -2.2548170000     1.2414520000    -0.2403130000
   18      H      -0.5906270000    -2.5181130000     0.6733990000
   19      H       2.0477870000     2.5348450000    -0.4506840000
   20      H       4.5382230000     2.3653470000    -0.3595070000
   21      H       5.6090000000     0.1828970000     0.1716530000
   22      H       4.1571430000    -1.8229110000     0.6094840000
   23      H      -2.6346340000    -2.0670490000     0.5275340000
   24      H      -4.9796700000    -1.4491870000     0.3332010000
   25      H      -5.6519800000     0.8927590000    -0.2303180000
   26      H      -3.8626560000     2.6009410000    -0.5930800000
   27      H      -1.4974900000     1.9971430000    -0.4016160000
 ----------------------------------------------------------------

   17    -728.2907990210      9.21e-09  Convergence criterion met
 Total energy in the final basis set =     -728.3775048885

                    Orbital Energies (a.u.)
 --------------------------------------------------------------

 Alpha MOs
 -- Occupied --
-19.1771 -19.0602 -10.2482 -10.2314 -10.2204 -10.1867 -10.1839 -10.1825
-10.1817 -10.1799 -10.1792 -10.1783 -10.1778 -10.1751 -10.1727 -10.1708
-10.1558  -1.0959  -0.9859  -0.8686  -0.8563  -0.8021  -0.7751  -0.7545
 -0.7477  -0.7345  -0.6641  -0.6410  -0.6111  -0.6013  -0.5873  -0.5414
 -0.5325  -0.5239  -0.4896  -0.4703  -0.4668  -0.4607  -0.4472  -0.4394
 -0.4322  -0.4264  -0.4118  -0.3998  -0.3864  -0.3854  -0.3743  -0.3675
 -0.3617  -0.3576  -0.3487  -0.3314  -0.2993  -0.2660  -0.2639  -0.2457
 -0.2312  -0.2297  -0.1178

 Beta MOs
 -- Occupied --
-19.1757 -19.0566 -10.2484 -10.2269 -10.2189 -10.1863 -10.1838 -10.1829
-10.1812 -10.1798 -10.1791 -10.1786 -10.1785 -10.1732 -10.1708 -10.1678
-10.1556  -1.0929  -0.9796  -0.8668  -0.8538  -0.7970  -0.7730  -0.7525
 -0.7456  -0.7316  -0.6589  -0.6392  -0.6089  -0.5999  -0.5847  -0.5392
 -0.5309  -0.5220  -0.4879  -0.4695  -0.4647  -0.4525  -0.4462  -0.4386
 -0.4310  -0.4258  -0.4106  -0.3963  -0.3844  -0.3781  -0.3668  -0.3639
 -0.3598  -0.3490  -0.3478  -0.3303  -0.2861  -0.2589  -0.2583  -0.2391
 -0.2280  -0.2144

          Ground-State Mulliken Net Atomic Charges

     Atom                 Charge (a.u.)    Spin (a.u.)
  --------------------------------------------------------
      1 O                    -0.440015       0.130916
      2 C                    -2.054247       0.122605
      3 C                    -1.369081       0.017441
      4 C                    -0.196239       0.238173
      5 O                     0.033094       0.030361
      6 C                    -1.494807      -0.022410
      7 C                     0.455018       0.032508
      8 C                     1.023115       0.028378
      9 C                     0.906647       0.010061
     10 C                    -0.107079       0.065633
     11 C                    -0.006124      -0.014492
     12 C                     0.499946      -0.049861
     13 C                    -1.282812       0.168106
     14 C                    -0.004994      -0.064598
     15 C                     0.497548       0.237485
     16 C                     0.043966      -0.066284
     17 C                     0.091734       0.178022
     18 H                     0.068827      -0.001149
     19 H                     0.261198      -0.003073
     20 H                     0.392958      -0.001904
     21 H                     0.335955      -0.000587
     22 H                     0.120669      -0.006110
     23 H                     0.161357      -0.010065
     24 H                     0.301311       0.003774
     25 H                     0.296319      -0.016349
     26 H                     0.290790       0.003779
     27 H                     0.174946      -0.010357
  --------------------------------------------------------
  Sum of atomic charges =    -1.000000

                    Cartesian Multipole Moments
 -----------------------------------------------------------------
    Charge (ESU x 10^10)
                -4.8032
    Dipole Moment (Debye)
         X      -1.1881      Y       6.9512      Z      -2.1152
       Tot       7.3624
    Quadrupole Moments (Debye-Ang)
        XX    -127.3508     XY      17.8052     YY    -124.3900
        XZ      -4.6266     YZ       4.4022     ZZ    -111.3183

 Total job time:  649.08s(wall), 4767.68s(cpu)
        *  Thank you very much for using Q-Chem.  Have a nice day.  *
