 Gaussian 16, Revision A.03,
 Gaussian 16:  ES64L-G16RevA.03 25-Dec-2016

 ----------------------------------------------------------------
 #P UB3LYP/6-311++G(d,p) SCRF=(PCM,Solvent=n,n-DiMethylFormamide)
 ----------------------------------------------------------------

 -------
 Reduced
 -------
 Symbolic Z-matrix:
 Charge = -2 Multiplicity = 1

                         Standard orientation:
 ---------------------------------------------------------------------
 Center     Atomic      Atomic             Coordinates (Angstroms)
 Number     Number       Type             X           Y           Z
 ---------------------------------------------------------------------
      1          6           0       -1.423928    2.150625   -0.426227
      2          6           0       -0.649477    3.357988   -0.206548
      3          6           0        0.649788    3.357910    0.206579
      4          6           0        1.424085    2.150446    0.426218
      5          6           0        0.722324    0.921629    0.136159
      6          6           0       -0.722360    0.921723   -0.136075
      7          8           0       -2.654487    2.264422   -0.781262
      8          8           0        2.654703    2.264071    0.781103
      9          1           0        1.186467    4.292085    0.370348
     10          6           0       -2.778156   -0.512630   -0.542005
     11          6           0       -1.150655   -1.257474    1.063519
     12          6           0       -3.555521   -1.631898   -0.256693
     13          6           0       -3.151372   -2.582475    0.687519
     14          6           0       -1.933086   -2.369614    1.346058
     15          1           0       -1.186038    4.292235   -0.370298
     16          1           0       -3.123872    0.231747   -1.244592
     17          1           0       -0.221497   -1.119293    1.601797
     18          1           0       -4.499858   -1.763844   -0.783375
     19          1           0       -3.761894   -3.455441    0.905119
     20          1           0       -1.590319   -3.080477    2.095759
     21          6           0        1.530190   -0.278883   -0.102517
     22          6           0        2.778110   -0.512748    0.541947
     23          6           0        1.150418   -1.257734   -1.063323
     24          6           0        3.555545   -1.631931    0.256502
     25          6           0        1.932879   -2.369833   -1.345928
     26          6           0        3.151294   -2.582576   -0.687594
     27          1           0        3.123847    0.231664    1.244490
     28          1           0        0.221184   -1.119614   -1.601500
     29          1           0        4.500001   -1.763776    0.782995
     30          1           0        1.589967   -3.080789   -2.095475
     31          1           0        3.761863   -3.455476   -0.905331
     32          6           0       -1.530338   -0.278687    0.102630
 ---------------------------------------------------------------------

 SCF Done:  E(UB3LYP) =  -844.036039343     A.U. after   18 cycles

 The electronic state is 1-A.
 Alpha  occ. eigenvalues --  -19.02027 -19.02026 -10.17775 -10.17774 -10.16111
 Alpha  occ. eigenvalues --  -10.16111 -10.15732 -10.15731 -10.15651 -10.15651
 Alpha  occ. eigenvalues --  -10.15429 -10.15428 -10.14919 -10.14918 -10.14303
 Alpha  occ. eigenvalues --  -10.14302 -10.13128 -10.13111 -10.13077 -10.13060
 Alpha  occ. eigenvalues --   -0.94061  -0.93761  -0.83863  -0.83150  -0.78447
 Alpha  occ. eigenvalues --   -0.74697  -0.73382  -0.72530  -0.72367  -0.67900
 Alpha  occ. eigenvalues --   -0.64649  -0.60051  -0.58741  -0.57815  -0.57808
 Alpha  occ. eigenvalues --   -0.54414  -0.52493  -0.48964  -0.48321  -0.44944
 Alpha  occ. eigenvalues --   -0.44383  -0.44373  -0.42788  -0.41911  -0.40948
 Alpha  occ. eigenvalues --   -0.40150  -0.39956  -0.39717  -0.38562  -0.36263
 Alpha  occ. eigenvalues --   -0.36124  -0.35896  -0.34709  -0.34321  -0.34158
 Alpha  occ. eigenvalues --   -0.32611  -0.32046  -0.31704  -0.31695  -0.30778
 Alpha  occ. eigenvalues --   -0.25580  -0.25032  -0.23735  -0.23599  -0.22900
 Alpha  occ. eigenvalues --   -0.19466  -0.19273  -0.17676  -0.12143
 Alpha virt. eigenvalues --   -0.02592  -0.00573   0.00257   0.00390   0.00911
 Alpha virt. eigenvalues --    0.01083   0.01383   0.01934   0.02472   0.02913
 Alpha virt. eigenvalues --    0.02999   0.04081   0.04464   0.04612   0.04913

  Beta  occ. eigenvalues --  -19.02027 -19.02026 -10.17775 -10.17774 -10.16111
  Beta  occ. eigenvalues --  -10.16111 -10.15732 -10.15731 -10.15651 -10.15651
  Beta  occ. eigenvalues --  -10.15429 -10.15428 -10.14919 -10.14918 -10.14303
  Beta  occ. eigenvalues --  -10.14302 -10.13128 -10.13111 -10.13077 -10.13060
  Beta  occ. eigenvalues --   -0.94061  -0.93761  -0.83863  -0.83150  -0.78447
  Beta  occ. eigenvalues --   -0.74697  -0.73382  -0.72530  -0.72367  -0.67900
  Beta  occ. eigenvalues --   -0.64649  -0.60051  -0.58741  -0.57815  -0.57808
  Beta  occ. eigenvalues --   -0.54414  -0.52493  -0.48964  -0.48321  -0.44944
  Beta  occ. eigenvalues --   -0.44383  -0.44373  -0.42788  -0.41911  -0.40948
  Beta  occ. eigenvalues --   -0.40150  -0.39956  -0.39717  -0.38562  -0.36263
  Beta  occ. eigenvalues --   -0.36124  -0.35896  -0.34709  -0.34321  -0.34158
  Beta  occ. eigenvalues --   -0.32611  -0.32046  -0.31704  -0.31695  -0.30778
  Beta  occ. eigenvalues --   -0.25580  -0.25032  -0.23735  -0.23599  -0.22900
  Beta  occ. eigenvalues --   -0.19466  -0.19273  -0.17676  -0.12143
  Beta virt. eigenvalues --   -0.02592  -0.00573   0.00257   0.00390   0.00911
  Beta virt. eigenvalues --    0.01083   0.01383   0.01934   0.02472   0.02913
  Beta virt. eigenvalues --    0.02999   0.04081   0.04464   0.04612   0.04913

 Mulliken charges and spin densities:
               1          2
     1  C   -0.360513  -0.000000
     2  C   -0.283350   0.000000
     3  C   -0.283421  -0.000000
     4  C   -0.360586  -0.000000
     5  C    0.333977   0.000000
     6  C    0.333879  -0.000000
     7  O   -0.625918   0.000000
     8  O   -0.625894   0.000000
     9  H    0.148884  -0.000000
    10  C   -0.209677  -0.000000
    11  C   -0.352905   0.000000
    12  C   -0.127603  -0.000000
    13  C   -0.445790   0.000000
    14  C   -0.343976  -0.000000
    15  H    0.148887   0.000000
    16  H    0.213063   0.000000
    17  H    0.206465  -0.000000
    18  H    0.173317  -0.000000
    19  H    0.151403   0.000000
    20  H    0.172695  -0.000000
    21  C    0.349917   0.000000
    22  C   -0.209895   0.000000
    23  C   -0.352786  -0.000000
    24  C   -0.127361  -0.000000
    25  C   -0.344064   0.000000
    26  C   -0.445744  -0.000000
    27  H    0.213062  -0.000000
    28  H    0.206485   0.000000
    29  H    0.173308   0.000000
    30  H    0.172684  -0.000000
    31  H    0.151408  -0.000000
    32  C    0.350048  -0.000000
 Sum of Mulliken charges =  -2.00000  -0.00000

 Dipole moment (field-independent basis, Debye):
    X=             -0.0007    Y=            -13.6370    Z=              0.0005  Tot=             13.6370
 Quadrupole moment (field-independent basis, Debye-Ang):
   XX=           -185.1926   YY=           -168.0941   ZZ=           -131.5568
   XY=              0.0034   XZ=             -7.3512   YZ=              0.0023

 Normal termination of Gaussian 16 at Wed Jan 24 22:57:00 2024.
