 Gaussian 16, Revision A.03,
 Gaussian 16:  ES64L-G16RevA.03 25-Dec-2016

 ----------------------------------------------------------------------
 #P UB3LYP/6-311++G(d,p) nosym opt freq SCRF=(PCM,Solvent=n,n-DiMethylF
 ormamide)
 ----------------------------------------------------------------------

 -------
 Reduced
 -------
 Symbolic Z-matrix:
 Charge = -2 Multiplicity = 1

 SCF Done:  E(UB3LYP) =  -3184.30375879     A.U. after   18 cycles
 SCF Done:  E(UB3LYP) =  -3184.30487215     A.U. after   13 cycles
 SCF Done:  E(UB3LYP) =  -3184.30509462     A.U. after   13 cycles
 SCF Done:  E(UB3LYP) =  -3184.30506986     A.U. after   12 cycles
 SCF Done:  E(UB3LYP) =  -3184.30514054     A.U. after   12 cycles
 SCF Done:  E(UB3LYP) =  -3184.30514291     A.U. after   11 cycles
 SCF Done:  E(UB3LYP) =  -3184.30514392     A.U. after   10 cycles
 SCF Done:  E(UB3LYP) =  -3184.30514403     A.U. after    9 cycles
 Optimization completed.
    -- Stationary point found.
 Normal termination of Gaussian 16 at Sun Feb 11 15:21:49 2024.

 ----------------------------------------------------------------------
 #P Geom=AllCheck Guess=TCheck SCRF=Check GenChk UB3LYP/6-311++G(d,p) F
 req
 ----------------------------------------------------------------------

 Structure from the checkpoint file:  "306-an.chk"
 -------
 Reduced
 -------
 Charge = -2 Multiplicity = 1

                          Input orientation:
 ---------------------------------------------------------------------
 Center     Atomic      Atomic             Coordinates (Angstroms)
 Number     Number       Type             X           Y           Z
 ---------------------------------------------------------------------
      1          6           0       -4.105404    3.642459    1.517821
      2          6           0       -4.592004    3.873732    0.252937
      3          6           0       -4.006473    3.211724   -0.843425
      4          6           0       -2.942862    2.340994   -0.661999
      5          6           0       -2.381203    2.082711    0.631748
      6          6           0       -3.017883    2.760757    1.745969
      7          6           0       -2.581698    2.570150    3.124131
      8          6           0       -1.508168    1.682238    3.288424
      9          6           0       -0.895881    1.048029    2.192910
     10          6           0       -1.227932    1.187286    0.829417
     11          8           0       -3.161941    3.183658    4.121925
     12          8           0       -0.589243    0.604317   -0.129566
     13          1           0       -4.536879    4.127257    2.384886
     14          1           0       -4.390616    3.373346   -1.847601
     15          8           0       -2.432250    1.703357   -1.774006
     16         35           0        0.607800   -0.138994    2.613389
     17          1           0       -5.422736    4.552725    0.089076
     18          1           0       -1.145162    1.490936    4.292704
     19          1           0       -2.951336    1.991380   -2.534944
 ---------------------------------------------------------------------

 SCF Done:  E(UB3LYP) =  -3184.30514403     A.U. after    1 cycles

 Alpha  occ. eigenvalues -- -482.80075 -62.45356 -56.27349 -56.27032 -56.27012
 Alpha  occ. eigenvalues --  -19.13599 -19.01625 -19.01622 -10.22064 -10.18628
 Alpha  occ. eigenvalues --  -10.17467 -10.17455 -10.15621 -10.15441 -10.15040
 Alpha  occ. eigenvalues --  -10.14688 -10.14189 -10.12893  -8.66311  -6.49309
 Alpha  occ. eigenvalues --   -6.48255  -6.48194  -2.60428  -2.60135  -2.60089
 Alpha  occ. eigenvalues --   -2.59251  -2.59251  -1.04592  -0.93456  -0.92546
 Alpha  occ. eigenvalues --   -0.82872  -0.79369  -0.75009  -0.72107  -0.70020
 Alpha  occ. eigenvalues --   -0.64700  -0.60650  -0.57924  -0.54838  -0.49967
 Alpha  occ. eigenvalues --   -0.48197  -0.45373  -0.44099  -0.42512  -0.40422
 Alpha  occ. eigenvalues --   -0.40138  -0.37520  -0.36678  -0.36113  -0.35830
 Alpha  occ. eigenvalues --   -0.34466  -0.32854  -0.32236  -0.32107  -0.30400
 Alpha  occ. eigenvalues --   -0.28407  -0.26794  -0.22726  -0.21667  -0.20971
 Alpha  occ. eigenvalues --   -0.19787  -0.19377  -0.11817
 Alpha virt. eigenvalues --   -0.00152   0.00019   0.00162   0.00384   0.01258
 Alpha virt. eigenvalues --    0.01710   0.03207   0.03614   0.04565   0.05074
 Alpha virt. eigenvalues --    0.05934   0.06226   0.06543   0.07577   0.07647

  Beta  occ. eigenvalues -- -482.80075 -62.45356 -56.27349 -56.27032 -56.27012
  Beta  occ. eigenvalues --  -19.13599 -19.01625 -19.01622 -10.22064 -10.18628
  Beta  occ. eigenvalues --  -10.17467 -10.17455 -10.15621 -10.15441 -10.15040
  Beta  occ. eigenvalues --  -10.14688 -10.14189 -10.12893  -8.66311  -6.49309
  Beta  occ. eigenvalues --   -6.48255  -6.48194  -2.60428  -2.60135  -2.60089
  Beta  occ. eigenvalues --   -2.59251  -2.59251  -1.04592  -0.93456  -0.92546
  Beta  occ. eigenvalues --   -0.82872  -0.79369  -0.75009  -0.72107  -0.70020
  Beta  occ. eigenvalues --   -0.64700  -0.60650  -0.57924  -0.54838  -0.49967
  Beta  occ. eigenvalues --   -0.48197  -0.45373  -0.44099  -0.42512  -0.40422
  Beta  occ. eigenvalues --   -0.40138  -0.37520  -0.36678  -0.36113  -0.35830
  Beta  occ. eigenvalues --   -0.34466  -0.32854  -0.32236  -0.32107  -0.30400
  Beta  occ. eigenvalues --   -0.28407  -0.26794  -0.22726  -0.21667  -0.20971
  Beta  occ. eigenvalues --   -0.19787  -0.19377  -0.11817
  Beta virt. eigenvalues --   -0.00152   0.00019   0.00162   0.00384   0.01258
  Beta virt. eigenvalues --    0.01710   0.03207   0.03614   0.04565   0.05074
  Beta virt. eigenvalues --    0.05934   0.06226   0.06543   0.07577   0.07647

 Mulliken charges and spin densities:
               1          2
     1  C    0.064879  -0.000000
     2  C   -0.432979   0.000000
     3  C   -0.195058  -0.000000
     4  C   -0.025770  -0.000000
     5  C    0.069573   0.000000
     6  C    0.289177  -0.000000
     7  C   -0.715552  -0.000000
     8  C    0.031712   0.000000
     9  C    0.472214  -0.000000
    10  C   -0.615807   0.000000
    11  O   -0.708425  -0.000000
    12  O   -0.637611  -0.000000
    13  H    0.142671   0.000000
    14  H    0.134780  -0.000000
    15  O   -0.236579   0.000000
    16  Br  -0.266622  -0.000000
    17  H    0.172395   0.000000
    18  H    0.174375  -0.000000
    19  H    0.282627   0.000000
 Sum of Mulliken charges =  -2.00000   0.00000

 Dipole moment (field-independent basis, Debye):
    X=             15.3537    Y=            -15.9875    Z=            -20.2114  Tot=             29.9973
 Quadrupole moment (field-independent basis, Debye-Ang):
   XX=           -146.5989   YY=           -147.6644   ZZ=           -172.1056
   XY=             43.1285   XZ=             54.7633   YZ=            -54.2401

  Exact polarizability: 280.126-115.502 228.563  38.652  -9.478 310.654
 Approx polarizability: 304.586-126.156 251.413  33.244  -1.097 356.996

                      1                      2                      3
                      A                      A                      A
 Frequencies --     49.5932                99.3233               147.3403
 Red. masses --      7.7368                 7.7571                10.3780
 Frc consts  --      0.0112                 0.0451                 0.1327
 IR Inten    --     15.1080                16.3243                 6.1071

                      4                      5                      6
                      A                      A                      A
 Frequencies --    150.3956               194.5630               232.9941
 Red. masses --     12.4525                 4.3702                19.4754
 Frc consts  --      0.1660                 0.0975                 0.6229
 IR Inten    --     13.2981                 1.3327                 1.3501

                      7                      8                      9
                      A                      A                      A
 Frequencies --    265.5827               281.5285               346.4455
 Red. masses --      3.6692                 8.8499                 7.0729
 Frc consts  --      0.1525                 0.4133                 0.5002
 IR Inten    --     13.7377                15.2679                 4.8716

                     10                     11                     12
                      A                      A                      A
 Frequencies --    357.0100               373.4188               378.7184
 Red. masses --     10.2881                 4.3899                 1.5052
 Frc consts  --      0.7726                 0.3607                 0.1272
 IR Inten    --      7.0003                24.7636                85.9031

                     13                     14                     15
                      A                      A                      A
 Frequencies --    474.6909               483.4360               506.7352
 Red. masses --     11.3915                 4.2847                 5.1689
 Frc consts  --      1.5124                 0.5900                 0.7820
 IR Inten    --      7.9894                 1.8723                24.1873

                     16                     17                     18
                      A                      A                      A
 Frequencies --    533.8106               543.1052               652.5217
 Red. masses --      7.7506                 4.1552                 5.5261
 Frc consts  --      1.3012                 0.7221                 1.3863
 IR Inten    --      2.5850                 0.3800                 6.7612

                     19                     20                     21
                      A                      A                      A
 Frequencies --    658.4866               673.3221               688.1594
 Red. masses --      3.7538                 7.3886                 2.7886
 Frc consts  --      0.9590                 1.9736                 0.7781
 IR Inten    --     23.4807                 7.7977                12.1981

                     22                     23                     24
                      A                      A                      A
 Frequencies --    745.7755               764.4188               796.2728
 Red. masses --      1.7474                 8.5760                 4.6409
 Frc consts  --      0.5726                 2.9525                 1.7337
 IR Inten    --     81.2116               409.0823                42.4145

                     25                     26                     27
                      A                      A                      A
 Frequencies --    813.4416               816.5758               846.4766
 Red. masses --      5.0474                 1.7677                 1.5409
 Frc consts  --      1.9677                 0.6945                 0.6505
 IR Inten    --      9.3462                42.0362                 0.5446

                     28                     29                     30
                      A                      A                      A
 Frequencies --    936.6523               959.5690              1051.7366
 Red. masses --      7.2218                 1.2653                 4.4459
 Frc consts  --      3.7330                 0.6864                 2.8975
 IR Inten    --    355.9925                 1.9201                35.4335

                     31                     32                     33
                      A                      A                      A
 Frequencies --   1094.3077              1124.7670              1156.4298
 Red. masses --      1.8560                 2.3780                 1.8039
 Frc consts  --      1.3095                 1.7725                 1.4214
 IR Inten    --    140.6415               439.3532                63.2151

                     34                     35                     36
                      A                      A                      A
 Frequencies --   1188.8258              1213.5691              1247.5945
 Red. masses --      2.0695                 2.0806                 2.4085
 Frc consts  --      1.7233                 1.8054                 2.2088
 IR Inten    --     39.6437                41.2862                60.3215

                     37                     38                     39
                      A                      A                      A
 Frequencies --   1270.3313              1305.6059              1344.8552
 Red. masses --      2.0656                 5.9180                 6.6785
 Frc consts  --      1.9639                 5.9436                 7.1167
 IR Inten    --    451.9673               258.0300               711.4721

                     40                     41                     42
                      A                      A                      A
 Frequencies --   1374.4899              1424.7438              1440.0942
 Red. masses --      7.1957                 2.8711                 2.6917
 Frc consts  --      8.0096                 3.4338                 3.2890
 IR Inten    --    809.3432               100.2606               455.8081

                     43                     44                     45
                      A                      A                      A
 Frequencies --   1506.2475              1515.7019              1588.6204
 Red. masses --      5.0449                 3.8172                 7.6817
 Frc consts  --      6.7436                 5.1669                11.4221
 IR Inten    --    724.2191                96.4027                63.2755

                     46                     47                     48
                      A                      A                      A
 Frequencies --   1615.7663              3129.9408              3157.3717
 Red. masses --      5.5925                 1.0878                 1.0902
 Frc consts  --      8.6023                 6.2790                 6.4035
 IR Inten    --     45.1056                46.2309                31.1554

                     49                     50                     51
                      A                      A                      A
 Frequencies --   3158.5483              3184.9969              3788.6966
 Red. masses --      1.0890                 1.0925                 1.0658
 Frc consts  --      6.4010                 6.5295                 9.0138
 IR Inten    --     45.2423                38.6639                58.7461

 - Thermochemistry -
 -------------------
 Temperature   298.150 Kelvin.  Pressure   1.00000 Atm.
 Atom     1 has atomic number  6 and mass  12.00000

 Molecular mass:   251.94221 amu.
 Principal axes and moments of inertia in atomic units:
                           1         2         3
     Eigenvalues --  1968.113685168.031597134.39778
           X            0.73119  -0.25272   0.63363
           Y           -0.54970   0.33177   0.76666
           Z            0.40397   0.90888  -0.10367
 This molecule is an asymmetric top.
 Rotational symmetry number  1.
 Warning -- assumption of classical behavior for rotation
           may cause significant error
 Rotational temperatures (Kelvin)      0.04401     0.01676     0.01214
 Rotational constants (GHZ):           0.91699     0.34921     0.25296
 Zero-point vibrational energy     320919.8 (Joules/Mol)
                                   76.70168 (Kcal/Mol)
 Warning -- explicit consideration of  17 degrees of freedom as
           vibrations may cause significant error
 Vibrational temperatures:     71.35   142.90   211.99   216.39   279.93
          (Kelvin)            335.23   382.11   405.06   498.46   513.66
                              537.27   544.89   682.97   695.56   729.08
                              768.03   781.41   938.83   947.42   968.76
                              990.11  1073.00  1099.83  1145.66  1170.36
                             1174.87  1217.89  1347.63  1380.61  1513.21
                             1574.46  1618.29  1663.84  1710.46  1746.06
                             1795.01  1827.72  1878.48  1934.95  1977.58
                             2049.89  2071.97  2167.15  2180.76  2285.67
                             2324.73  4503.29  4542.75  4544.45  4582.50
                             5451.09

 Zero-point correction=                           0.122232 (Hartree/Particle)
 Thermal correction to Energy=                    0.133684
 Thermal correction to Enthalpy=                  0.134628
 Thermal correction to Gibbs Free Energy=         0.083773
 Sum of electronic and zero-point Energies=          -3184.182912
 Sum of electronic and thermal Energies=             -3184.171460
 Sum of electronic and thermal Enthalpies=           -3184.170516
 Sum of electronic and thermal Free Energies=        -3184.221371

                     E (Thermal)             CV                S
                      KCal/Mol        Cal/Mol-Kelvin    Cal/Mol-Kelvin
 Total                   83.888             44.184            107.035
 Electronic               0.000              0.000              0.000
 Translational            0.889              2.981             42.472
 Rotational               0.889              2.981             32.651
 Vibrational             82.111             38.223             31.912
 Vibration     1          0.595              1.978              4.834
 Vibration     2          0.604              1.950              3.468
 Vibration     3          0.617              1.906              2.706
 Vibration     4          0.618              1.902              2.667
 Vibration     5          0.635              1.847              2.184
 Vibration     6          0.654              1.790              1.856
 Vibration     7          0.671              1.736              1.625
 Vibration     8          0.681              1.708              1.524
 Vibration     9          0.724              1.582              1.182
 Vibration    10          0.732              1.561              1.135
 Vibration    11          0.745              1.527              1.066
 Vibration    12          0.749              1.516              1.044
 Vibration    13          0.831              1.306              0.725
 Vibration    14          0.840              1.287              0.701
 Vibration    15          0.862              1.235              0.641
 Vibration    16          0.889              1.175              0.579
 Vibration    17          0.898              1.155              0.559

 Optimization completed.
    -- Stationary point found.
 Normal termination of Gaussian 16 at Sun Feb 11 15:46:47 2024.
