 Gaussian 16, Revision A.03,
 Gaussian 16:  ES64L-G16RevA.03 25-Dec-2016

 --------------------------------------
 #P UB3LYP/6-311++G(d,p) nosym opt freq
 --------------------------------------

 -------
 Reduced
 -------
 Symbolic Z-matrix:
 Charge = -2 Multiplicity = 1

 SCF Done:  E(UB3LYP) =  -613.856702829     A.U. after  114 cycles
 SCF Done:  E(UB3LYP) =  -613.873867072     A.U. after   37 cycles
 SCF Done:  E(UB3LYP) =  -613.877112227     A.U. after   34 cycles
 SCF Done:  E(UB3LYP) =  -613.877217649     A.U. after   32 cycles
 SCF Done:  E(UB3LYP) =  -613.877356252     A.U. after   32 cycles
 SCF Done:  E(UB3LYP) =  -613.877374692     A.U. after   30 cycles
 SCF Done:  E(UB3LYP) =  -613.877396816     A.U. after   36 cycles
 SCF Done:  E(UB3LYP) =  -613.877398505     A.U. after   29 cycles
 SCF Done:  E(UB3LYP) =  -613.877399097     A.U. after   26 cycles
 SCF Done:  E(UB3LYP) =  -613.877399564     A.U. after   27 cycles
 SCF Done:  E(UB3LYP) =  -613.877614894     A.U. after   33 cycles
 SCF Done:  E(UB3LYP) =  -613.878131726     A.U. after   33 cycles
 SCF Done:  E(UB3LYP) =  -613.877149870     A.U. after   38 cycles
 SCF Done:  E(UB3LYP) =  -613.878456931     A.U. after   33 cycles
 SCF Done:  E(UB3LYP) =  -613.878482804     A.U. after   38 cycles
 SCF Done:  E(UB3LYP) =  -613.878525413     A.U. after   32 cycles
 SCF Done:  E(UB3LYP) =  -613.878528133     A.U. after   27 cycles
 SCF Done:  E(UB3LYP) =  -613.878528565     A.U. after   27 cycles
 SCF Done:  E(UB3LYP) =  -613.878528620     A.U. after   25 cycles
 Optimization completed.
    -- Stationary point found.
 Normal termination of Gaussian 16 at Tue Dec 26 23:08:55 2023.

 ----------------------------------------------------------------------
 #P Geom=AllCheck Guess=TCheck SCRF=Check GenChk UB3LYP/6-311++G(d,p) F
 req
 ----------------------------------------------------------------------

 Structure from the checkpoint file:  "244-an.chk"
 -------
 Reduced
 -------
 Charge = -2 Multiplicity = 1

                          Input orientation:
 ---------------------------------------------------------------------
 Center     Atomic      Atomic             Coordinates (Angstroms)
 Number     Number       Type             X           Y           Z
 ---------------------------------------------------------------------
      1          6           0        5.713172   -5.338931    1.215254
      2          6           0        6.661684   -5.185154    0.211909
      3          6           0        6.585676   -4.130517   -0.728183
      4          6           0        4.611578   -4.421856    1.319068
      5          6           0        4.553691   -3.330661    0.359360
      6          6           0        5.545938   -3.230130   -0.642690
      7          6           0        3.581415   -4.553714    2.350082
      8          6           0        2.572245   -3.542032    2.343409
      9          6           0        2.542939   -2.496196    1.409380
     10          6           0        3.499873   -2.315553    0.378974
     11          8           0        3.558656   -5.505251    3.229066
     12          8           0        3.457634   -1.346362   -0.473799
     13          6           0        5.883977   -6.516122    2.156429
     14          1           0        7.476465   -5.905291    0.144116
     15          6           0        1.507881   -3.640527    3.406264
     16          1           0        1.738810   -1.759941    1.458950
     17          1           0        5.443054   -2.402093   -1.337194
     18          1           0        7.344480   -4.038772   -1.504523
     19          1           0        6.806022   -7.060491    1.906552
     20          1           0        5.030196   -7.196442    2.101928
     21          1           0        5.919717   -6.198116    3.199657
     22          1           0        1.945543   -3.616946    4.415490
     23          1           0        0.968787   -4.597053    3.349243
     24          1           0        0.784209   -2.820439    3.315660
 ---------------------------------------------------------------------

 SCF Done:  E(UB3LYP) =  -613.878528620     A.U. after    4 cycles

 Alpha  occ. eigenvalues --  -18.76752 -18.76575  -9.92571  -9.92449  -9.92440
 Alpha  occ. eigenvalues --   -9.91709  -9.91533  -9.91340  -9.91061  -9.90364
 Alpha  occ. eigenvalues --   -9.90062  -9.89325  -9.88860  -9.87716  -0.68278
 Alpha  occ. eigenvalues --   -0.67743  -0.58708  -0.53291  -0.50979  -0.48483
 Alpha  occ. eigenvalues --   -0.43312  -0.42756  -0.38322  -0.33727  -0.32477
 Alpha  occ. eigenvalues --   -0.26834  -0.23781  -0.22502  -0.19931  -0.18105
 Alpha  occ. eigenvalues --   -0.16822  -0.16224  -0.16093  -0.14597  -0.13610
 Alpha  occ. eigenvalues --   -0.12655  -0.11786  -0.11079  -0.10265  -0.09485
 Alpha  occ. eigenvalues --   -0.07334  -0.06754  -0.06016  -0.05948   0.01767
 Alpha  occ. eigenvalues --    0.02682   0.03391   0.05637   0.05988   0.14203
 Alpha virt. eigenvalues --    0.15831   0.17161   0.17388   0.19311   0.20151
 Alpha virt. eigenvalues --    0.21162   0.21611   0.21706   0.22537   0.23218
 Alpha virt. eigenvalues --    0.23962   0.25024   0.26223   0.26774   0.27064

  Beta  occ. eigenvalues --  -18.76752 -18.76575  -9.92571  -9.92449  -9.92440
  Beta  occ. eigenvalues --   -9.91709  -9.91533  -9.91340  -9.91061  -9.90364
  Beta  occ. eigenvalues --   -9.90062  -9.89325  -9.88860  -9.87716  -0.68278
  Beta  occ. eigenvalues --   -0.67743  -0.58708  -0.53291  -0.50979  -0.48483
  Beta  occ. eigenvalues --   -0.43312  -0.42756  -0.38322  -0.33727  -0.32477
  Beta  occ. eigenvalues --   -0.26834  -0.23781  -0.22502  -0.19931  -0.18105
  Beta  occ. eigenvalues --   -0.16822  -0.16224  -0.16093  -0.14597  -0.13610
  Beta  occ. eigenvalues --   -0.12655  -0.11786  -0.11079  -0.10265  -0.09485
  Beta  occ. eigenvalues --   -0.07334  -0.06754  -0.06016  -0.05948   0.01767
  Beta  occ. eigenvalues --    0.02682   0.03391   0.05637   0.05988   0.14203
  Beta virt. eigenvalues --    0.15831   0.17161   0.17388   0.19311   0.20151
  Beta virt. eigenvalues --    0.21162   0.21611   0.21706   0.22537   0.23218
  Beta virt. eigenvalues --    0.23962   0.25024   0.26223   0.26774   0.27064

 Mulliken charges and spin densities:
               1          2
     1  C   -0.371001   0.000000
     2  C   -0.030300  -0.000000
     3  C    0.436641  -0.000000
     4  C    0.425230   0.000000
     5  C    0.631916  -0.000000
     6  C   -0.089337  -0.000000
     7  C   -1.135865   0.000000
     8  C    1.015086  -0.000000
     9  C   -0.260668   0.000000
    10  C   -1.238598  -0.000000
    11  O   -0.494351  -0.000000
    12  O   -0.535522  -0.000000
    13  C    0.311839  -0.000000
    14  H   -0.402753   0.000000
    15  C   -0.353085   0.000000
    16  H    0.023541   0.000000
    17  H    0.167711  -0.000000
    18  H   -0.341057   0.000000
    19  H   -0.399109   0.000000
    20  H    0.183841  -0.000000
    21  H    0.151062   0.000000
    22  H    0.086290  -0.000000
    23  H    0.120133  -0.000000
    24  H    0.098356  -0.000000
 Sum of Mulliken charges =  -2.00000  -0.00000

 Dipole moment (field-independent basis, Debye):
    X=            -41.9346    Y=             37.2649    Z=            -10.3541  Tot=             57.0472
 Quadrupole moment (field-independent basis, Debye-Ang):
   XX=           -317.3565   YY=           -282.5062   ZZ=           -142.3776
   XY=            182.4889   XZ=            -31.7908   YZ=             61.0028

  Exact polarizability:1337.375-612.4301190.646-532.636-609.4521576.903
 Approx polarizability:2530.881********1236.160-763.180 142.133 829.717

                      1                      2                      3
                      A                      A                      A
 Frequencies --     66.3045                77.0204               100.4252
 Red. masses --      2.6928                 3.1302                 1.3710
 Frc consts  --      0.0070                 0.0109                 0.0081
 IR Inten    --      3.3098                 6.7791                 4.5930

                      4                      5                      6
                      A                      A                      A
 Frequencies --    167.3856               181.0481               224.6522
 Red. masses --      3.3753                 1.4645                 2.2376
 Frc consts  --      0.0557                 0.0283                 0.0665
 IR Inten    --     15.9861                20.7028                 5.5276

                      7                      8                      9
                      A                      A                      A
 Frequencies --    244.8800               259.8654               307.6850
 Red. masses --      3.3601                 3.6502                 4.5658
 Frc consts  --      0.1187                 0.1452                 0.2547
 IR Inten    --     21.3778                 9.1365                13.3111

                     10                     11                     12
                      A                      A                      A
 Frequencies --    353.8865               357.4383               365.0524
 Red. masses --      6.4514                 4.4169                 7.1147
 Frc consts  --      0.4760                 0.3325                 0.5586
 IR Inten    --     34.9652                70.6714                11.3154

                     13                     14                     15
                      A                      A                      A
 Frequencies --    406.6714               461.8529               479.5430
 Red. masses --      6.3337                 5.8030                 3.4285
 Frc consts  --      0.6172                 0.7293                 0.4645
 IR Inten    --    575.1111               735.0132               145.5657

                     16                     17                     18
                      A                      A                      A
 Frequencies --    516.1395               524.2714               560.4751
 Red. masses --      4.1756                 6.4463                 4.7757
 Frc consts  --      0.6554                 1.0439                 0.8839
 IR Inten    --     22.4650                72.9667                95.8976

                     19                     20                     21
                      A                      A                      A
 Frequencies --    652.2165               661.0692               686.1536
 Red. masses --      3.2253                 4.3811                 2.8811
 Frc consts  --      0.8084                 1.1281                 0.7992
 IR Inten    --     54.0671                33.4495                72.7692

                     22                     23                     24
                      A                      A                      A
 Frequencies --    702.6698               774.9744               797.4001
 Red. masses --      6.3459                 1.5835                 2.8398
 Frc consts  --      1.8461                 0.5603                 1.0639
 IR Inten    --     11.7627                 3.6557               117.8733

                     25                     26                     27
                      A                      A                      A
 Frequencies --    799.4996               829.7386               846.2658
 Red. masses --      4.4504                 1.9941                 1.3960
 Frc consts  --      1.6760                 0.8089                 0.5891
 IR Inten    --     94.1227                77.1353                20.6262

                     28                     29                     30
                      A                      A                      A
 Frequencies --    885.7055               960.1938               963.4687
 Red. masses --      4.6145                 2.4701                 1.4243
 Frc consts  --      2.1328                 1.3418                 0.7790
 IR Inten    --    101.3236               108.5926                37.2038

                     31                     32                     33
                      A                      A                      A
 Frequencies --   1004.6970              1017.8680              1035.2559
 Red. masses --      1.6724                 1.7725                 1.4599
 Frc consts  --      0.9946                 1.0820                 0.9219
 IR Inten    --    387.3291               182.4632                 9.2762

                     34                     35                     36
                      A                      A                      A
 Frequencies --   1054.1744              1072.8082              1132.7473
 Red. masses --      1.5144                 2.1377                 1.5707
 Frc consts  --      0.9916                 1.4496                 1.1875
 IR Inten    --    100.9166               687.3052                43.0007

                     37                     38                     39
                      A                      A                      A
 Frequencies --   1149.7400              1174.6575              1204.1481
 Red. masses --      2.5251                 2.3987                 3.9057
 Frc consts  --      1.9667                 1.9501                 3.3366
 IR Inten    --    141.4422               331.6745                87.2164

                     40                     41                     42
                      A                      A                      A
 Frequencies --   1231.5562              1274.9029              1308.9538
 Red. masses --      2.2761                 1.9706                 5.9715
 Frc consts  --      2.0340                 1.8872                 6.0281
 IR Inten    --     77.9276               325.2852              1580.3869

                     43                     44                     45
                      A                      A                      A
 Frequencies --   1360.4391              1382.3138              1393.5308
 Red. masses --      1.9669                 3.2808                 2.7248
 Frc consts  --      2.1448                 3.6935                 3.1176
 IR Inten    --    352.9502              1333.7663              1330.8946

                     46                     47                     48
                      A                      A                      A
 Frequencies --   1401.8435              1408.6624              1418.1583
 Red. masses --      1.4402                 2.9830                 3.2848
 Frc consts  --      1.6675                 3.4875                 3.8923
 IR Inten    --     96.4850               208.5138              1101.6153

                     49                     50                     51
                      A                      A                      A
 Frequencies --   1446.9199              1450.5712              1466.9058
 Red. masses --      1.0513                 1.0555                 1.5529
 Frc consts  --      1.2968                 1.3085                 1.9688
 IR Inten    --     13.7169                74.0655              1212.3942

                     52                     53                     54
                      A                      A                      A
 Frequencies --   1475.9636              1504.2736              1526.9802
 Red. masses --      1.1663                 2.0665                 5.0608
 Frc consts  --      1.4969                 2.7550                 6.9524
 IR Inten    --    187.8089               507.9019               341.5996

                     55                     56                     57
                      A                      A                      A
 Frequencies --   1566.1838              1582.8302              2952.4507
 Red. masses --      5.6413                 4.7991                 1.0407
 Frc consts  --      8.1530                 7.0840                 5.3448
 IR Inten    --   3476.3791               356.7316              1700.6279

                     58                     59                     60
                      A                      A                      A
 Frequencies --   2964.6926              2968.4523              3024.4299
 Red. masses --      1.0913                 1.0534                 1.0995
 Frc consts  --      5.6513                 5.4689                 5.9256
 IR Inten    --    439.3827               174.1016                18.0533

                     61                     62                     63
                      A                      A                      A
 Frequencies --   3061.9193              3078.8340              3083.5796
 Red. masses --      1.0860                 1.0864                 1.0850
 Frc consts  --      5.9987                 6.0677                 6.0786
 IR Inten    --    238.3365               533.4256                33.6721

                     64                     65                     66
                      A                      A                      A
 Frequencies --   3086.4816              3107.7327              3156.8352
 Red. masses --      1.0918                 1.0917                 1.0907
 Frc consts  --      6.1283                 6.2123                 6.4044
 IR Inten    --    178.6147               336.4218                42.4188

 - Thermochemistry -
 -------------------
 Temperature   298.150 Kelvin.  Pressure   1.00000 Atm.
 Atom     1 has atomic number  6 and mass  12.00000

 Molecular mass:   186.06808 amu.
 Principal axes and moments of inertia in atomic units:
                           1         2         3
     Eigenvalues --  1955.986572416.405754350.38427
           X            0.83428  -0.04263   0.54970
           Y           -0.33559   0.75179   0.56762
           Z           -0.43745  -0.65803   0.61289
 This molecule is an asymmetric top.
 Rotational symmetry number  1.
 Warning -- assumption of classical behavior for rotation
           may cause significant error
 Rotational temperatures (Kelvin)      0.04428     0.03584     0.01991
 Rotational constants (GHZ):           0.92268     0.74687     0.41485
 Zero-point vibrational energy     476989.7 (Joules/Mol)
                                  114.00327 (Kcal/Mol)
 Warning -- explicit consideration of  18 degrees of freedom as
           vibrations may cause significant error
 Vibrational temperatures:     95.40   110.82   144.49   240.83   260.49
          (Kelvin)            323.22   352.33   373.89   442.69   509.16
                              514.27   525.23   585.11   664.50   689.96
                              742.61   754.31   806.40   938.39   951.13
                              987.22  1010.99  1115.02  1147.28  1150.30
                             1193.81  1217.59  1274.33  1381.50  1386.22
                             1445.53  1464.49  1489.50  1516.72  1543.53
                             1629.77  1654.22  1690.07  1732.50  1771.93
                             1834.30  1883.29  1957.37  1988.84  2004.98
                             2016.94  2026.75  2040.41  2081.80  2087.05
                             2110.55  2123.58  2164.31  2196.98  2253.39
                             2277.34  4247.92  4265.53  4270.94  4351.48
                             4405.42  4429.76  4436.58  4440.76  4471.33
                             4541.98

 Zero-point correction=                           0.181676 (Hartree/Particle)
 Thermal correction to Energy=                    0.193758
 Thermal correction to Enthalpy=                  0.194702
 Thermal correction to Gibbs Free Energy=         0.143722
 Sum of electronic and zero-point Energies=           -613.696853
 Sum of electronic and thermal Energies=              -613.684771
 Sum of electronic and thermal Enthalpies=            -613.683827
 Sum of electronic and thermal Free Energies=         -613.734806

                     E (Thermal)             CV                S
                      KCal/Mol        Cal/Mol-Kelvin    Cal/Mol-Kelvin
 Total                  121.585             47.264            107.295
 Electronic               0.000              0.000              0.000
 Translational            0.889              2.981             41.569
 Rotational               0.889              2.981             31.398
 Vibrational            119.807             41.302             34.329
 Vibration     1          0.598              1.970              4.260
 Vibration     2          0.599              1.964              3.965
 Vibration     3          0.604              1.949              3.446
 Vibration     4          0.624              1.883              2.465
 Vibration     5          0.630              1.865              2.318
 Vibration     6          0.649              1.804              1.921
 Vibration     7          0.660              1.771              1.767
 Vibration     8          0.668              1.746              1.663
 Vibration     9          0.698              1.659              1.375
 Vibration    10          0.730              1.567              1.149
 Vibration    11          0.733              1.560              1.133
 Vibration    12          0.738              1.544              1.101
 Vibration    13          0.771              1.456              0.938
 Vibration    14          0.820              1.335              0.761
 Vibration    15          0.836              1.295              0.711
 Vibration    16          0.871              1.214              0.619
 Vibration    17          0.879              1.196              0.600
 Vibration    18          0.916              1.117              0.523

 Optimization completed.
    -- Stationary point found.
 Normal termination of Gaussian 16 at Tue Dec 26 23:36:05 2023.
