 Gaussian 16, Revision A.03,
 Gaussian 16:  ES64L-G16RevA.03 25-Dec-2016

 ----------------------------------------------------------------
 #P UB3LYP/6-311++G(d,p) SCRF=(PCM,Solvent=n,n-DiMethylFormamide)
 ----------------------------------------------------------------

 ------------------
 Radical PCM in DMF
 ------------------
 Symbolic Z-matrix:
 Charge = -1 Multiplicity = 2

                         Standard orientation:
 ---------------------------------------------------------------------
 Center     Atomic      Atomic             Coordinates (Angstroms)
 Number     Number       Type             X           Y           Z
 ---------------------------------------------------------------------
      1          6           0        8.116842    3.576693    0.686172
      2          6           0        7.466931    4.779577    0.890128
      3          6           0        6.076949    4.872657    0.680838
      4          6           0        7.401395    2.433108    0.271822
      5          6           0        5.999301    2.522452    0.060397
      6          6           0        5.362872    3.758579    0.270064
      7          6           0        8.074967    1.174018    0.047570
      8          6           0        7.248238    0.060624   -0.354347
      9          6           0        5.872488    0.092389   -0.530848
     10          6           0        5.187844    1.359724   -0.378072
     11          8           0        9.326276    0.976083    0.173323
     12          8           0        3.958888    1.524808   -0.607827
     13          8           0        7.954315   -1.082675   -0.561243
     14          1           0        9.185929    3.478250    0.836489
     15          1           0        8.026949    5.653246    1.210442
     16          1           0        5.566372    5.817559    0.840471
     17          1           0        4.293883    3.804078    0.098081
     18          1           0        8.873820   -0.797803   -0.359121
     19          6           0        5.276589   -2.347753    0.025630
     20          6           0        5.346608   -2.117841    1.400348
     21          6           0        5.229215   -3.671997   -0.424023
     22          6           0        5.245633   -4.737579    0.472453
     23          6           0        5.311707   -4.495387    1.845367
     24          6           0        5.363370   -3.180542    2.304044
     25          1           0        5.399968   -1.097483    1.762161
     26          1           0        5.174171   -3.860770   -1.491331
     27          1           0        5.213263   -5.757332    0.101212
     28          1           0        5.421828   -2.978769    3.368946
     29          1           0        5.330368   -5.322659    2.547653
     30          6           0        5.212711   -1.214927   -1.002948
     31          1           0        5.837928   -1.556975   -1.837199
     32          7           0        3.840003   -1.128741   -1.561576
     33          6           0        2.730357   -1.165956   -0.600253
     34          6           0        1.414560   -0.864391   -1.317105
     35          6           0        0.195974   -0.937375   -0.391056
     36          6           0       -1.128284   -0.618367   -1.094477
     37          6           0       -2.350644   -0.689584   -0.172057
     38          6           0       -3.674434   -0.365639   -0.874059
     39          1           0        3.780271   -0.225846   -2.023405
     40          1           0        2.860374   -0.439403    0.213043
     41          1           0        2.681938   -2.166349   -0.158301
     42          1           0        1.292829   -1.567149   -2.151151
     43          1           0        1.477145    0.140386   -1.752856
     44          1           0        0.336419   -0.240569    0.444790
     45          1           0        0.135032   -1.939916    0.053664
     46          1           0       -1.268766   -1.312021   -1.934339
     47          1           0       -1.067504    0.384533   -1.536660
     48          1           0       -2.208722    0.002613    0.668160
     49          1           0       -2.412283   -1.693015    0.269880
     50          1           0       -3.815994   -1.056759   -1.715582
     51          1           0       -3.612917    0.638197   -1.314382
     52          6           0       -4.896742   -0.437525    0.048404
     53          6           0       -6.219957   -0.111340   -0.653575
     54          6           0       -7.442212   -0.184724    0.268783
     55          6           0       -8.765147    0.141838   -0.433481
     56          6           0       -9.987393    0.067445    0.488767
     57          6           0      -11.310106    0.394627   -0.213595
     58          6           0      -12.532387    0.319392    0.708565
     59          6           0      -13.854967    0.646939    0.006579
     60          6           0      -15.077881    0.571532    0.927868
     61          6           0      -16.394221    0.900678    0.217376
     62          1           0       -4.754735    0.252778    0.890193
     63          1           0       -4.959020   -1.441711    0.488121
     64          1           0       -6.361489   -0.800806   -1.496292
     65          1           0       -6.158036    0.893294   -1.091974
     66          1           0       -7.300731    0.504616    1.111434
     67          1           0       -7.504242   -1.189439    0.707126
     68          1           0       -8.906309   -0.547016   -1.276670
     69          1           0       -8.703352    1.146822   -0.871050
     70          1           0       -9.846129    0.756015    1.332067
     71          1           0      -10.049427   -0.937676    0.926068
     72          1           0      -11.451135   -0.293529   -1.057315
     73          1           0      -11.248288    1.399979   -0.650254
     74          1           0      -12.391273    1.007369    1.552390
     75          1           0      -12.594391   -0.686094    1.145018
     76          1           0      -13.997087   -0.040647   -0.837623
     77          1           0      -13.794206    1.652728   -0.429634
     78          1           0      -14.936711    1.258790    1.771061
     79          1           0      -15.139649   -0.433417    1.363221
     80          1           0      -16.376468    1.913146   -0.198674
     81          1           0      -17.245628    0.837907    0.901235
     82          1           0      -16.580922    0.208229   -0.609784
 ---------------------------------------------------------------------

 SCF Done:  E(UB3LYP) =  -1565.63882744     A.U. after   25 cycles

 The electronic state is 2-A.
 Alpha  occ. eigenvalues --  -19.14474 -19.08672 -19.07158 -14.28650 -10.22717
 Alpha  occ. eigenvalues --  -10.22360 -10.22104 -10.20428 -10.17990 -10.17480
 Alpha  occ. eigenvalues --  -10.17459 -10.17433 -10.17350 -10.17322 -10.17291
 Alpha  occ. eigenvalues --  -10.17211 -10.17197 -10.17131 -10.17118 -10.17006
 Alpha  occ. eigenvalues --  -10.16917 -10.16678 -10.16104 -10.15866 -10.15852
 Alpha  occ. eigenvalues --  -10.15840 -10.15831 -10.15821 -10.15811 -10.15801
 Alpha  occ. eigenvalues --  -10.15789 -10.15774 -10.15754 -10.15737 -10.15719
 Alpha  occ. eigenvalues --  -10.15473 -10.15426  -1.06692  -0.99943  -0.99743
 Alpha  occ. eigenvalues --   -0.89895  -0.85914  -0.85489  -0.81359  -0.80834
 Alpha  occ. eigenvalues --   -0.80471  -0.79421  -0.77967  -0.76773  -0.75477
 Alpha  occ. eigenvalues --   -0.75100  -0.74692  -0.73915  -0.73248  -0.70804
 Alpha  occ. eigenvalues --   -0.68683  -0.67331  -0.65796  -0.64049  -0.61994
 Alpha  occ. eigenvalues --   -0.61334  -0.60998  -0.60281  -0.59133  -0.57784
 Alpha  occ. eigenvalues --   -0.57627  -0.57407  -0.57293  -0.56922  -0.56792
 Alpha  occ. eigenvalues --   -0.56407  -0.53823  -0.51499  -0.50603  -0.48688
 Alpha  occ. eigenvalues --   -0.48528  -0.48079  -0.47367  -0.46736  -0.46614
 Alpha  occ. eigenvalues --   -0.45944  -0.45642  -0.45062  -0.44396  -0.44129
 Alpha  occ. eigenvalues --   -0.43749  -0.43355  -0.43074  -0.42743  -0.42534
 Alpha  occ. eigenvalues --   -0.42246  -0.41987  -0.41585  -0.41511  -0.40739
 Alpha  occ. eigenvalues --   -0.40606  -0.39949  -0.39517  -0.39304  -0.38923
 Alpha  occ. eigenvalues --   -0.38832  -0.38144  -0.37759  -0.37611  -0.37074
 Alpha  occ. eigenvalues --   -0.36940  -0.36144  -0.36073  -0.35623  -0.35065
 Alpha  occ. eigenvalues --   -0.34587  -0.34326  -0.34316  -0.34138  -0.33821
 Alpha  occ. eigenvalues --   -0.33754  -0.33393  -0.33170  -0.32952  -0.32546
 Alpha  occ. eigenvalues --   -0.32349  -0.32184  -0.32028  -0.31942  -0.31879
 Alpha  occ. eigenvalues --   -0.31774  -0.31728  -0.31011  -0.28941  -0.26754
 Alpha  occ. eigenvalues --   -0.26166  -0.25774  -0.25697  -0.25097  -0.24377
 Alpha  occ. eigenvalues --   -0.23126  -0.21431  -0.15212
 Alpha virt. eigenvalues --   -0.03321  -0.01737  -0.01541  -0.00910  -0.00577
 Alpha virt. eigenvalues --   -0.00398   0.00034   0.00153   0.00478   0.00693
 Alpha virt. eigenvalues --    0.00872   0.00957   0.01237   0.01380   0.01515

  Beta  occ. eigenvalues --  -19.14407 -19.08039 -19.06626 -14.28651 -10.22593
  Beta  occ. eigenvalues --  -10.22237 -10.21815 -10.20435 -10.17983 -10.17479
  Beta  occ. eigenvalues --  -10.17456 -10.17433 -10.17350 -10.17326 -10.17211
  Beta  occ. eigenvalues --  -10.17178 -10.17118 -10.17108 -10.17076 -10.17005
  Beta  occ. eigenvalues --  -10.16949 -10.16607 -10.16104 -10.15866 -10.15852
  Beta  occ. eigenvalues --  -10.15840 -10.15831 -10.15821 -10.15811 -10.15801
  Beta  occ. eigenvalues --  -10.15789 -10.15774 -10.15754 -10.15737 -10.15719
  Beta  occ. eigenvalues --  -10.15473 -10.15426  -1.06441  -0.99023  -0.98670
  Beta  occ. eigenvalues --   -0.89876  -0.85698  -0.85478  -0.81356  -0.80728
  Beta  occ. eigenvalues --   -0.80272  -0.79381  -0.77925  -0.76692  -0.75463
  Beta  occ. eigenvalues --   -0.74893  -0.74685  -0.73812  -0.73227  -0.70781
  Beta  occ. eigenvalues --   -0.68475  -0.66873  -0.65479  -0.64005  -0.61895
  Beta  occ. eigenvalues --   -0.61315  -0.60850  -0.60161  -0.59104  -0.57777
  Beta  occ. eigenvalues --   -0.57599  -0.57406  -0.57203  -0.56902  -0.56791
  Beta  occ. eigenvalues --   -0.56277  -0.53647  -0.51419  -0.50461  -0.48666
  Beta  occ. eigenvalues --   -0.48326  -0.48011  -0.47326  -0.46658  -0.46575
  Beta  occ. eigenvalues --   -0.45821  -0.45619  -0.45037  -0.44333  -0.44077
  Beta  occ. eigenvalues --   -0.43557  -0.43193  -0.42707  -0.42640  -0.42476
  Beta  occ. eigenvalues --   -0.42081  -0.41822  -0.41374  -0.41126  -0.40655
  Beta  occ. eigenvalues --   -0.40483  -0.39857  -0.39317  -0.39227  -0.38816
  Beta  occ. eigenvalues --   -0.38175  -0.37844  -0.37687  -0.37510  -0.36936
  Beta  occ. eigenvalues --   -0.36459  -0.36082  -0.35615  -0.35058  -0.34957
  Beta  occ. eigenvalues --   -0.34478  -0.34296  -0.34120  -0.33771  -0.33705
  Beta  occ. eigenvalues --   -0.33348  -0.33160  -0.32969  -0.32714  -0.32542
  Beta  occ. eigenvalues --   -0.32334  -0.32184  -0.32028  -0.31939  -0.31877
  Beta  occ. eigenvalues --   -0.31774  -0.31726  -0.31007  -0.28940  -0.25759
  Beta  occ. eigenvalues --   -0.25546  -0.25216  -0.24992  -0.24837  -0.23916
  Beta  occ. eigenvalues --   -0.22289  -0.21165
  Beta virt. eigenvalues --   -0.08656  -0.02604  -0.01707  -0.01433  -0.00623
  Beta virt. eigenvalues --   -0.00406   0.00010   0.00064   0.00244   0.00485
  Beta virt. eigenvalues --    0.00702   0.00882   0.00964   0.01254   0.01384

 Mulliken charges and spin densities:
               1          2
     1  C   -0.023668   0.076431
     2  C   -0.461194  -0.005252
     3  C   -0.545690   0.072254
     4  C    0.161666  -0.000636
     5  C    0.402915   0.058396
     6  C   -0.037288  -0.005158
     7  C   -0.756098   0.176455
     8  C   -0.475173   0.056106
     9  C    0.999418   0.067965
    10  C   -0.557211   0.063273
    11  O   -0.519385   0.232754
    12  O   -0.418440   0.202018
    13  O   -0.242982   0.020781
    14  H    0.180449  -0.004162
    15  H    0.178827  -0.000103
    16  H    0.182416  -0.005370
    17  H    0.181779   0.000363
    18  H    0.302319  -0.003950
    19  C    0.055528  -0.017288
    20  C   -0.295471  -0.018258
    21  C    0.214271   0.009254
    22  C   -0.300509  -0.001999
    23  C   -0.454755  -0.002365
    24  C   -0.207375   0.004948
    25  H    0.162862   0.000253
    26  H    0.177892   0.000621
    27  H    0.205100  -0.000017
    28  H    0.208058   0.000250
    29  H    0.172765  -0.000024
    30  C    0.201566   0.018779
    31  H    0.226436   0.001082
    32  N    0.087390  -0.006818
    33  C   -0.833556   0.002404
    34  C   -0.286500   0.005302
    35  C   -0.055621  -0.000877
    36  C   -0.086841  -0.000383
    37  C   -0.185630  -0.000024
    38  C   -0.274199   0.000069
    39  H    0.263094   0.001607
    40  H    0.216805   0.001197
    41  H    0.100753   0.000630
    42  H    0.151794  -0.000102
    43  H    0.143042  -0.000675
    44  H    0.114850   0.000335
    45  H    0.131283  -0.000076
    46  H    0.117838   0.000042
    47  H    0.126570   0.000009
    48  H    0.131889  -0.000033
    49  H    0.131693  -0.000001
    50  H    0.132090  -0.000003
    51  H    0.131341   0.000000
    52  C   -0.401517  -0.000007
    53  C   -0.402753  -0.000004
    54  C   -0.327401  -0.000000
    55  C   -0.186530   0.000001
    56  C   -0.036500   0.000000
    57  C   -0.023056   0.000000
    58  C   -0.191042  -0.000000
    59  C   -0.393841  -0.000000
    60  C   -0.262483   0.000000
    61  C   -0.690448   0.000000
    62  H    0.130126   0.000002
    63  H    0.129340   0.000000
    64  H    0.128811   0.000000
    65  H    0.129289  -0.000000
    66  H    0.129695  -0.000000
    67  H    0.129442  -0.000000
    68  H    0.129651   0.000000
    69  H    0.130085   0.000000
    70  H    0.128584  -0.000000
    71  H    0.128281  -0.000000
    72  H    0.128710  -0.000000
    73  H    0.128552   0.000000
    74  H    0.126428   0.000000
    75  H    0.126334   0.000000
    76  H    0.123129   0.000000
    77  H    0.123270  -0.000000
    78  H    0.131082   0.000000
    79  H    0.131053  -0.000000
    80  H    0.139973   0.000000
    81  H    0.146697  -0.000000
    82  H    0.139927  -0.000000
 Sum of Mulliken charges =  -1.00000   1.00000

 Dipole moment (field-independent basis, Debye):
    X=            -30.6936    Y=             -3.0499    Z=              2.1303  Tot=             30.9183
 Quadrupole moment (field-independent basis, Debye-Ang):
   XX=           -468.9999   YY=           -239.8739   ZZ=           -237.9837
   XY=            -20.6356   XZ=              6.0827   YZ=             -0.0571

 Normal termination of Gaussian 16 at Thu Jan 25 06:21:13 2024.
