 Q-Chem 5.4, Q-Chem, Inc., Pleasanton, CA (2021)
 Q-Chem 5.4.0 for Intel X86 EM64T Linux

User input:
--------------------------------------------------------------
$molecule
-2 1
O                  0.1069160000      0.5411320000      2.6777500000
C                  0.0731640000      0.3467090000      1.3854450000
C                 -1.1829820000      0.1879050000      0.7009160000
C                 -2.4332270000      0.2080270000      1.3940780000
C                 -3.6235450000      0.0438950000      0.6956350000
C                 -3.6324410000     -0.1819180000     -0.6939120000
C                 -2.4149240000     -0.2345780000     -1.3812290000
C                 -1.2283970000     -0.0418740000     -0.6882300000
O                 -0.0708080000     -0.0260980000     -1.4524250000
C                  1.1664970000     -0.0537450000     -0.8104130000
C                  2.2755960000     -0.2509070000     -1.6072150000
C                  3.5717770000     -0.2125720000     -1.0380260000
C                  3.6921230000     -0.0276690000      0.3401330000
C                  2.5681460000      0.1337340000      1.1476450000
C                  1.2546730000      0.1679800000      0.5920670000
O                 -2.4262880000      0.4175820000      2.7422980000
H                 -4.5584830000      0.0991000000      1.2454860000
H                 -4.5610570000     -0.2983240000     -1.2415080000
O                 -2.3939940000     -0.4386290000     -2.7557500000
H                  2.1372370000     -0.3927040000     -2.6752810000
H                  4.4486390000     -0.3291100000     -1.6687240000
H                  4.6835690000     -0.0108370000      0.7909100000
H                  2.6549190000      0.2602930000      2.2203010000
H                 -1.4315200000      0.5048120000      2.9662340000
H                 -1.4627150000     -0.4193620000     -3.0143640000
$end
$rem
MAX_SCF_CYCLES=200
BASIS  =  6-311++G(d,p)
GUI  =  2
JOB_TYPE  =  SP
METHOD  =  B3LYP
SOLVENT_METHOD = PCM
$end
$pcm
theory = CPCM
$end
$solvent
dielectric 37.219
opticaldielectric 1.43
$end

--------------------------------------------------------------

             Standard Nuclear Orientation (Angstroms)
    I     Atom           X                Y                Z
 ----------------------------------------------------------------
    1      O       0.1069160000     0.5411320000     2.6777500000
    2      C       0.0731640000     0.3467090000     1.3854450000
    3      C      -1.1829820000     0.1879050000     0.7009160000
    4      C      -2.4332270000     0.2080270000     1.3940780000
    5      C      -3.6235450000     0.0438950000     0.6956350000
    6      C      -3.6324410000    -0.1819180000    -0.6939120000
    7      C      -2.4149240000    -0.2345780000    -1.3812290000
    8      C      -1.2283970000    -0.0418740000    -0.6882300000
    9      O      -0.0708080000    -0.0260980000    -1.4524250000
   10      C       1.1664970000    -0.0537450000    -0.8104130000
   11      C       2.2755960000    -0.2509070000    -1.6072150000
   12      C       3.5717770000    -0.2125720000    -1.0380260000
   13      C       3.6921230000    -0.0276690000     0.3401330000
   14      C       2.5681460000     0.1337340000     1.1476450000
   15      C       1.2546730000     0.1679800000     0.5920670000
   16      O      -2.4262880000     0.4175820000     2.7422980000
   17      H      -4.5584830000     0.0991000000     1.2454860000
   18      H      -4.5610570000    -0.2983240000    -1.2415080000
   19      O      -2.3939940000    -0.4386290000    -2.7557500000
   20      H       2.1372370000    -0.3927040000    -2.6752810000
   21      H       4.4486390000    -0.3291100000    -1.6687240000
   22      H       4.6835690000    -0.0108370000     0.7909100000
   23      H       2.6549190000     0.2602930000     2.2203010000
   24      H      -1.4315200000     0.5048120000     2.9662340000
   25      H      -1.4627150000    -0.4193620000    -3.0143640000
 ----------------------------------------------------------------

    9    -801.5146465697      8.56e-06  Convergence criterion met
 Total energy in the final basis set =     -801.5146465697

                    Orbital Energies (a.u.)
 --------------------------------------------------------------

 Alpha MOs
 -- Occupied --
-19.1456 -19.1340 -19.0963 -19.0253 -10.2048 -10.2000 -10.1985 -10.1897
-10.1547 -10.1446 -10.1417 -10.1415 -10.1389 -10.1367 -10.1353 -10.1275
-10.1230  -1.0655  -1.0333  -1.0126  -0.9345  -0.8236  -0.8133  -0.7406
 -0.7311  -0.7078  -0.6933  -0.6248  -0.6140  -0.5732  -0.5619  -0.5255
 -0.5234  -0.5094  -0.4934  -0.4511  -0.4464  -0.4350  -0.4328  -0.4035
 -0.3953  -0.3914  -0.3805  -0.3800  -0.3727  -0.3708  -0.3635  -0.3455
 -0.3329  -0.3315  -0.3217  -0.3111  -0.3025  -0.2803  -0.2316  -0.2200
 -0.2107  -0.2103  -0.1779  -0.0725

          Ground-State Mulliken Net Atomic Charges

     Atom                 Charge (a.u.)
  ----------------------------------------
      1 O                    -0.747704
      2 C                    -0.032845
      3 C                     1.153628
      4 C                    -0.177886
      5 C                    -0.151720
      6 C                    -0.147034
      7 C                    -0.811674
      8 C                    -0.413246
      9 O                    -0.232601
     10 C                    -0.967302
     11 C                    -0.418305
     12 C                    -0.517632
     13 C                    -0.305095
     14 C                    -0.110956
     15 C                     1.091120
     16 O                    -0.475958
     17 H                     0.172809
     18 H                     0.180858
     19 O                    -0.352610
     20 H                     0.153790
     21 H                     0.151926
     22 H                     0.150205
     23 H                     0.143413
     24 H                     0.356421
     25 H                     0.308395
  ----------------------------------------
  Sum of atomic charges =    -2.000000

                    Cartesian Multipole Moments
 -----------------------------------------------------------------
    Charge (ESU x 10^10)
                -9.6064
    Dipole Moment (Debye)
         X       2.5206      Y      -1.7496      Z      -9.1776
       Tot       9.6770
    Quadrupole Moments (Debye-Ang)
        XX    -156.9232     XY      -0.1728     YY    -114.1527
        XZ       1.0176     YZ      -6.4251     ZZ    -146.7416

 Total job time:  63.41s(wall), 309.29s(cpu)
        *  Thank you very much for using Q-Chem.  Have a nice day.  *
