 Gaussian 16, Revision A.03,
 Gaussian 16:  ES64L-G16RevA.03 25-Dec-2016

 --------------------------------------
 #P UB3LYP/6-311++G(d,p) nosym opt freq
 --------------------------------------

 -------
 Radical
 -------
 Symbolic Z-matrix:
 Charge = -1 Multiplicity = 2

 SCF Done:  E(UB3LYP) =  -1140.43079548     A.U. after   23 cycles
 SCF Done:  E(UB3LYP) =  -1140.48045510     A.U. after   18 cycles
 SCF Done:  E(UB3LYP) =  -1140.51777396     A.U. after   18 cycles
 SCF Done:  E(UB3LYP) =  -1140.52389074     A.U. after   17 cycles
 SCF Done:  E(UB3LYP) =  -1140.52551622     A.U. after   17 cycles
 SCF Done:  E(UB3LYP) =  -1140.52626767     A.U. after   16 cycles
 SCF Done:  E(UB3LYP) =  -1140.52640300     A.U. after   14 cycles
 SCF Done:  E(UB3LYP) =  -1140.52643151     A.U. after   13 cycles
 SCF Done:  E(UB3LYP) =  -1140.52643429     A.U. after   12 cycles
 SCF Done:  E(UB3LYP) =  -1140.52643632     A.U. after   11 cycles
 SCF Done:  E(UB3LYP) =  -1140.54598668     A.U. after   18 cycles
 SCF Done:  E(UB3LYP) =  -1140.54826705     A.U. after   16 cycles
 SCF Done:  E(UB3LYP) =  -1140.54797012     A.U. after   17 cycles
 SCF Done:  E(UB3LYP) =  -1140.54870829     A.U. after   15 cycles
 SCF Done:  E(UB3LYP) =  -1140.54898486     A.U. after   15 cycles
 SCF Done:  E(UB3LYP) =  -1140.54902255     A.U. after   14 cycles
 SCF Done:  E(UB3LYP) =  -1140.54904372     A.U. after   13 cycles
 SCF Done:  E(UB3LYP) =  -1140.54904881     A.U. after   12 cycles
 SCF Done:  E(UB3LYP) =  -1140.54905019     A.U. after   11 cycles
 Optimization completed.
    -- Stationary point found.
 Normal termination of Gaussian 16 at Fri Dec 22 00:02:24 2023.

 ----------------------------------------------------------------------
 #P Geom=AllCheck Guess=TCheck SCRF=Check GenChk UB3LYP/6-311++G(d,p) F
 req
 ----------------------------------------------------------------------

 Structure from the checkpoint file:  "208-rad.chk"
 -------
 Radical
 -------
 Charge = -1 Multiplicity = 2

                          Input orientation:
 ---------------------------------------------------------------------
 Center     Atomic      Atomic             Coordinates (Angstroms)
 Number     Number       Type             X           Y           Z
 ---------------------------------------------------------------------
      1          8           0        4.609329    1.505122   -1.411533
      2          6           0        3.499585    0.953089   -0.816373
      3          6           0        2.235223    1.196793   -1.315870
      4          6           0        1.106252    0.624126   -0.694207
      5          6           0       -0.222882    0.877001   -1.214641
      6          8           0       -0.418830    1.618617   -2.242676
      7          6           0       -1.336485    0.259044   -0.529559
      8          6           0       -2.650919    0.483560   -1.010098
      9          8           0       -2.885239    1.262092   -2.093314
     10          6           0       -3.758860   -0.085146   -0.391129
     11          8           0       -5.014547    0.155522   -0.885644
     12          6           0       -3.575635   -0.902741    0.738100
     13          8           0       -4.705627   -1.440427    1.312255
     14          6           0       -2.303759   -1.139824    1.229860
     15          6           0       -1.171069   -0.571907    0.615171
     16          6           0        0.153587   -0.826156    1.136939
     17          8           0        0.346832   -1.570117    2.167477
     18          6           0        1.266226   -0.209212    0.453309
     19          6           0        2.577709   -0.439786    0.940608
     20          8           0        2.814281   -1.218542    2.023856
     21          6           0        3.668862    0.133775    0.312348
     22          8           0        4.952617   -0.083173    0.777141
     23          1           0        5.380587    1.212066   -0.910200
     24          1           0        2.099489    1.826959   -2.184716
     25          1           0       -1.950577    1.567569   -2.379906
     26          1           0       -4.884282    0.734847   -1.650583
     27          1           0       -4.425710   -1.970497    2.065399
     28          1           0       -2.152409   -1.769494    2.100846
     29          1           0        1.877525   -1.521958    2.308534
     30          1           0        4.868726   -0.661204    1.548606
 ---------------------------------------------------------------------

 SCF Done:  E(UB3LYP) =  -1140.54905019     A.U. after    2 cycles

 Alpha  occ. eigenvalues --  -19.06594 -19.05991 -19.05739 -19.04847 -19.02963
 Alpha  occ. eigenvalues --  -19.02683 -18.97735 -18.97661 -10.13423 -10.13284
 Alpha  occ. eigenvalues --  -10.12895 -10.12614 -10.12455 -10.12185 -10.12066
 Alpha  occ. eigenvalues --  -10.12054 -10.06828 -10.06792 -10.06605 -10.06527
 Alpha  occ. eigenvalues --  -10.06251 -10.05792  -0.98470  -0.97583  -0.96099
 Alpha  occ. eigenvalues --   -0.96014  -0.94233  -0.93728  -0.89166  -0.88992
 Alpha  occ. eigenvalues --   -0.75572  -0.74000  -0.67913  -0.64395  -0.63465
 Alpha  occ. eigenvalues --   -0.63287  -0.56947  -0.55578  -0.53460  -0.52633
 Alpha  occ. eigenvalues --   -0.49114  -0.46896  -0.45246  -0.44592  -0.43342
 Alpha  occ. eigenvalues --   -0.42132  -0.40245  -0.38463  -0.38043  -0.36868
 Alpha  occ. eigenvalues --   -0.34906  -0.34802  -0.34003  -0.33100  -0.31956
 Alpha  occ. eigenvalues --   -0.31325  -0.31055  -0.30507  -0.30358  -0.29575
 Alpha  occ. eigenvalues --   -0.29081  -0.28505  -0.27678  -0.26985  -0.26958
 Alpha  occ. eigenvalues --   -0.26189  -0.26099  -0.25833  -0.25059  -0.24138
 Alpha  occ. eigenvalues --   -0.20543  -0.20122  -0.15119  -0.13981  -0.13839
 Alpha  occ. eigenvalues --   -0.12416  -0.11416  -0.10975  -0.03134
 Alpha virt. eigenvalues --    0.06687   0.07198   0.07348   0.09267   0.09906
 Alpha virt. eigenvalues --    0.10268   0.11068   0.11810   0.12175   0.13608
 Alpha virt. eigenvalues --    0.14099   0.14626   0.14738   0.15068   0.16448

  Beta  occ. eigenvalues --  -19.06571 -19.05981 -19.05722 -19.04813 -19.02941
  Beta  occ. eigenvalues --  -19.02662 -18.97259 -18.97174 -10.13423 -10.13259
  Beta  occ. eigenvalues --  -10.12869 -10.12592 -10.12389 -10.12104 -10.11824
  Beta  occ. eigenvalues --  -10.11821 -10.06763 -10.06741 -10.06600 -10.06516
  Beta  occ. eigenvalues --  -10.06168 -10.05721  -0.98415  -0.97532  -0.96043
  Beta  occ. eigenvalues --   -0.95963  -0.94127  -0.93608  -0.88375  -0.88176
  Beta  occ. eigenvalues --   -0.75314  -0.73881  -0.67561  -0.64055  -0.63321
  Beta  occ. eigenvalues --   -0.63127  -0.56291  -0.55432  -0.53315  -0.52493
  Beta  occ. eigenvalues --   -0.48936  -0.46771  -0.45192  -0.44477  -0.43196
  Beta  occ. eigenvalues --   -0.42023  -0.40138  -0.38288  -0.37890  -0.36797
  Beta  occ. eigenvalues --   -0.34752  -0.34409  -0.33716  -0.32859  -0.31847
  Beta  occ. eigenvalues --   -0.31231  -0.30795  -0.30137  -0.29694  -0.29133
  Beta  occ. eigenvalues --   -0.28937  -0.28049  -0.27607  -0.26866  -0.26314
  Beta  occ. eigenvalues --   -0.26078  -0.26037  -0.24829  -0.24161  -0.23934
  Beta  occ. eigenvalues --   -0.20120  -0.18687  -0.14716  -0.13581  -0.12622
  Beta  occ. eigenvalues --   -0.11358  -0.10918  -0.10386
  Beta virt. eigenvalues --    0.02422   0.07206   0.07345   0.07955   0.09277
  Beta virt. eigenvalues --    0.09910   0.11084   0.11150   0.12157   0.12183
  Beta virt. eigenvalues --    0.13617   0.14122   0.14630   0.14834   0.15079

 Mulliken charges and spin densities:
               1          2
     1  O   -0.267348   0.004148
     2  C   -0.441593   0.014146
     3  C   -0.280707   0.069784
     4  C    0.764303   0.029425
     5  C   -0.723313   0.118708
     6  O   -0.426064   0.179147
     7  C    0.661710  -0.003068
     8  C   -0.116015   0.033464
     9  O   -0.461907   0.007939
    10  C   -0.191502   0.058684
    11  O   -0.297803   0.008684
    12  C   -0.388807  -0.003571
    13  O   -0.260512   0.002951
    14  C   -0.075400   0.085348
    15  C    0.793668   0.018775
    16  C   -0.603960   0.130763
    17  O   -0.443061   0.174913
    18  C    0.561865  -0.011189
    19  C   -0.150307   0.037646
    20  O   -0.455984   0.008219
    21  C   -0.056628   0.048827
    22  O   -0.345374   0.005302
    23  H    0.270101  -0.000258
    24  H    0.181874  -0.004300
    25  H    0.396897  -0.004050
    26  H    0.286953  -0.000344
    27  H    0.259695  -0.000383
    28  H    0.131014  -0.005459
    29  H    0.385143  -0.004029
    30  H    0.293061  -0.000225
 Sum of Mulliken charges =  -1.00000   1.00000

 Dipole moment (field-independent basis, Debye):
    X=              1.6515    Y=             -1.2721    Z=              1.9479  Tot=              2.8531
 Quadrupole moment (field-independent basis, Debye-Ang):
   XX=           -174.1782   YY=           -138.2926   ZZ=           -144.2376
   XY=             -2.3798   XZ=             -2.5599   YZ=              9.5710

  Exact polarizability: 360.714  22.316 151.726   5.160 -68.986 192.303
 Approx polarizability: 540.123  30.852 271.484   9.734-148.971 360.665

                      1                      2                      3
                      A                      A                      A
 Frequencies --     41.6959                69.0854               110.6607
 Red. masses --      9.6372                 7.9208                10.9703
 Frc consts  --      0.0099                 0.0223                 0.0792
 IR Inten    --      1.1522                 0.2689                 0.0053

                      4                      5                      6
                      A                      A                      A
 Frequencies --    128.7931               144.1648               151.0455
 Red. masses --      8.3202                10.4656                 7.4265
 Frc consts  --      0.0813                 0.1282                 0.0998
 IR Inten    --      0.0002                 0.0621                 3.8897

                      7                      8                      9
                      A                      A                      A
 Frequencies --    161.6739               189.3616               254.1538
 Red. masses --      9.6907                 8.4380                 1.2598
 Frc consts  --      0.1492                 0.1783                 0.0479
 IR Inten    --      0.3098                 0.1880                84.7131

                     10                     11                     12
                      A                      A                      A
 Frequencies --    259.4539               267.7731               284.9235
 Red. masses --      7.6815                 6.4346                 4.6475
 Frc consts  --      0.3047                 0.2718                 0.2223
 IR Inten    --      3.6866                 1.6551                19.7432

                     13                     14                     15
                      A                      A                      A
 Frequencies --    290.5676               293.5867               308.8546
 Red. masses --      3.5480                 5.7609                 7.0170
 Frc consts  --      0.1765                 0.2926                 0.3944
 IR Inten    --     16.2598                15.1985                11.8948

                     16                     17                     18
                      A                      A                      A
 Frequencies --    313.3553               340.9743               345.0536
 Red. masses --      2.1389                 2.0443                 5.6669
 Frc consts  --      0.1237                 0.1400                 0.3975
 IR Inten    --     67.3163                64.6942                 0.4238

                     19                     20                     21
                      A                      A                      A
 Frequencies --    365.9911               375.9576               377.7132
 Red. masses --      9.0810                 3.1539                 6.7785
 Frc consts  --      0.7167                 0.2626                 0.5698
 IR Inten    --      0.7217                46.6335                 1.3325

                     22                     23                     24
                      A                      A                      A
 Frequencies --    411.4390               418.5048               440.2567
 Red. masses --     11.4376                 1.1706                 1.4639
 Frc consts  --      1.1408                 0.1208                 0.1672
 IR Inten    --     45.8858                 8.2260               107.0314

                     25                     26                     27
                      A                      A                      A
 Frequencies --    450.9472               475.6748               490.3619
 Red. masses --      7.4753                 7.5906                12.8343
 Frc consts  --      0.8956                 1.0119                 1.8183
 IR Inten    --     71.4168                 0.0418                 0.0724

                     28                     29                     30
                      A                      A                      A
 Frequencies --    529.7934               542.6538               562.0707
 Red. masses --     10.3936                10.8422                 5.7654
 Frc consts  --      1.7188                 1.8811                 1.0731
 IR Inten    --      4.8626                 2.4265                 3.1446

                     31                     32                     33
                      A                      A                      A
 Frequencies --    585.2850               603.4272               627.2652
 Red. masses --      4.5567                 9.5601                 6.1917
 Frc consts  --      0.9197                 2.0510                 1.4354
 IR Inten    --      2.2658                 2.3893                16.9149

                     34                     35                     36
                      A                      A                      A
 Frequencies --    640.3035               650.3295               652.4463
 Red. masses --      8.6382                11.0936                 6.6937
 Frc consts  --      2.0866                 2.7643                 1.6788
 IR Inten    --     13.2105                 0.6829                 2.9409

                     37                     38                     39
                      A                      A                      A
 Frequencies --    659.5780               689.4330               721.1119
 Red. masses --      9.8126                 5.8163                 8.6668
 Frc consts  --      2.5152                 1.6288                 2.6553
 IR Inten    --      0.0928               179.0750                 5.2789

                     40                     41                     42
                      A                      A                      A
 Frequencies --    722.4864               785.9906               818.5866
 Red. masses --      5.9850                 6.5046                 7.2057
 Frc consts  --      1.8407                 2.3676                 2.8448
 IR Inten    --     16.3347                35.7910                 6.2004

                     43                     44                     45
                      A                      A                      A
 Frequencies --    826.8383               860.5489               875.8054
 Red. masses --      1.4276                 1.4046                 6.6671
 Frc consts  --      0.5750                 0.6128                 3.0130
 IR Inten    --     14.9680                20.7893                 0.3882

                     46                     47                     48
                      A                      A                      A
 Frequencies --    976.8968               985.3759              1008.7239
 Red. masses --      1.0516                 1.0529                 4.0683
 Frc consts  --      0.5913                 0.6024                 2.4390
 IR Inten    --     61.1231                77.9540               165.2445

                     49                     50                     51
                      A                      A                      A
 Frequencies --   1044.6273              1075.5034              1105.5535
 Red. masses --      5.4782                 8.8596                 4.3624
 Frc consts  --      3.5222                 6.0379                 3.1415
 IR Inten    --     17.1480                65.5670               149.1267

                     52                     53                     54
                      A                      A                      A
 Frequencies --   1172.7597              1180.8520              1190.8914
 Red. masses --      1.5188                 1.6450                 4.1052
 Frc consts  --      1.2307                 1.3515                 3.4303
 IR Inten    --     53.9900                18.7155                47.1277

                     55                     56                     57
                      A                      A                      A
 Frequencies --   1223.0935              1242.0455              1263.9166
 Red. masses --      1.8370                 1.7762                 4.9285
 Frc consts  --      1.6191                 1.6144                 4.6387
 IR Inten    --    215.3819               419.8658               223.4523

                     58                     59                     60
                      A                      A                      A
 Frequencies --   1276.4330              1300.1551              1334.1608
 Red. masses --      3.5692                 3.5004                 2.7241
 Frc consts  --      3.4262                 3.4862                 2.8569
 IR Inten    --     94.8785                74.6170               254.2131

                     61                     62                     63
                      A                      A                      A
 Frequencies --   1345.1310              1365.1869              1384.6310
 Red. masses --      2.9261                 3.4027                 2.6269
 Frc consts  --      3.1193                 3.7364                 2.9673
 IR Inten    --     84.2503               340.9391               405.1955

                     64                     65                     66
                      A                      A                      A
 Frequencies --   1391.4229              1414.7596              1448.2338
 Red. masses --      5.4233                 3.1929                 5.5624
 Frc consts  --      6.1863                 3.7653                 6.8737
 IR Inten    --     43.2709               151.5851                36.2801

                     67                     68                     69
                      A                      A                      A
 Frequencies --   1463.6145              1479.6831              1500.2075
 Red. masses --      4.7607                 3.5074                 3.6319
 Frc consts  --      6.0086                 4.5246                 4.8160
 IR Inten    --    514.5290                 9.2165               808.3455

                     70                     71                     72
                      A                      A                      A
 Frequencies --   1510.1623              1568.5607              1592.1746
 Red. masses --      4.0155                 2.9280                 3.5375
 Frc consts  --      5.3956                 4.2445                 5.2836
 IR Inten    --     24.7006                80.3050                23.6512

                     73                     74                     75
                      A                      A                      A
 Frequencies --   1614.9267              1634.1261              1659.3804
 Red. masses --      5.2031                 5.9860                 3.4981
 Frc consts  --      7.9950                 9.4180                 5.6751
 IR Inten    --    228.7435                 0.0915                43.3082

                     76                     77                     78
                      A                      A                      A
 Frequencies --   1673.2881              2681.7457              2693.7966
 Red. masses --      3.9746                 1.0775                 1.0783
 Frc consts  --      6.5567                 4.5657                 4.6103
 IR Inten    --     89.7833               295.6306               862.4075

                     79                     80                     81
                      A                      A                      A
 Frequencies --   3163.4571              3208.4168              3746.6895
 Red. masses --      1.0894                 1.0902                 1.0649
 Frc consts  --      6.4235                 6.6120                 8.8076
 IR Inten    --     15.3964                 5.1889                74.8771

                     82                     83                     84
                      A                      A                      A
 Frequencies --   3762.3133              3793.5644              3834.9488
 Red. masses --      1.0652                 1.0655                 1.0658
 Frc consts  --      8.8840                 9.0347                 9.2352
 IR Inten    --     87.4321               107.4194                49.8584

 - Thermochemistry -
 -------------------
 Temperature   298.150 Kelvin.  Pressure   1.00000 Atm.
 Atom     1 has atomic number  8 and mass  15.99491

 Molecular mass:   304.02192 amu.
 Principal axes and moments of inertia in atomic units:
                           1         2         3
     Eigenvalues --  2917.43442********************
           X            0.99664   0.01834  -0.07982
           Y            0.07508  -0.59377   0.80112
           Z            0.03270   0.80442   0.59316
 This molecule is an asymmetric top.
 Rotational symmetry number  1.
 Warning -- assumption of classical behavior for rotation
           may cause significant error
 Rotational temperatures (Kelvin)      0.02969     0.00843     0.00657
 Rotational constants (GHZ):           0.61861     0.17566     0.13681
 Zero-point vibrational energy     528913.2 (Joules/Mol)
                                  126.41330 (Kcal/Mol)
 Warning -- explicit consideration of  32 degrees of freedom as
           vibrations may cause significant error
 Vibrational temperatures:     59.99    99.40   159.22   185.30   207.42
          (Kelvin)            217.32   232.61   272.45   365.67   373.30
                              385.27   409.94   418.06   422.41   444.37
                              450.85   490.59   496.46   526.58   540.92
                              543.44   591.97   602.13   633.43   648.81
                              684.39   705.52   762.25   780.76   808.69
                              842.09   868.20   902.49   921.25   935.68
                              938.72   948.99   991.94  1037.52  1039.50
                             1130.87  1177.76  1189.64  1238.14  1260.09
                             1405.54  1417.74  1451.33  1502.99  1547.41
                             1590.64  1687.34  1698.98  1713.43  1759.76
                             1787.03  1818.49  1836.50  1870.63  1919.56
                             1935.34  1964.20  1992.18  2001.95  2035.52
                             2083.69  2105.81  2128.93  2158.46  2172.79
                             2256.81  2290.78  2323.52  2351.14  2387.48
                             2407.49  3858.43  3875.77  4551.51  4616.20
                             5390.65  5413.13  5458.09  5517.64

 Zero-point correction=                           0.201452 (Hartree/Particle)
 Thermal correction to Energy=                    0.219374
 Thermal correction to Enthalpy=                  0.220318
 Thermal correction to Gibbs Free Energy=         0.156487
 Sum of electronic and zero-point Energies=          -1140.347598
 Sum of electronic and thermal Energies=             -1140.329676
 Sum of electronic and thermal Enthalpies=           -1140.328732
 Sum of electronic and thermal Free Energies=        -1140.392563

                     E (Thermal)             CV                S
                      KCal/Mol        Cal/Mol-Kelvin    Cal/Mol-Kelvin
 Total                  137.659             71.505            134.344
 Electronic               0.000              0.000              1.377
 Translational            0.889              2.981             43.032
 Rotational               0.889              2.981             34.335
 Vibrational            135.882             65.543             55.599
 Vibration     1          0.594              1.981              5.177
 Vibration     2          0.598              1.969              4.179
 Vibration     3          0.606              1.941              3.257
 Vibration     4          0.611              1.924              2.964
 Vibration     5          0.616              1.909              2.748
 Vibration     6          0.618              1.902              2.659
 Vibration     7          0.622              1.889              2.530
 Vibration     8          0.633              1.855              2.234
 Vibration     9          0.665              1.756              1.702
 Vibration    10          0.668              1.747              1.665
 Vibration    11          0.673              1.732              1.611
 Vibration    12          0.683              1.702              1.504
 Vibration    13          0.687              1.691              1.471
 Vibration    14          0.688              1.686              1.453
 Vibration    15          0.698              1.657              1.368
 Vibration    16          0.701              1.648              1.345
 Vibration    17          0.720              1.594              1.208
 Vibration    18          0.723              1.585              1.189
 Vibration    19          0.739              1.542              1.097
 Vibration    20          0.747              1.521              1.055
 Vibration    21          0.748              1.518              1.048
 Vibration    22          0.775              1.445              0.922
 Vibration    23          0.781              1.430              0.897
 Vibration    24          0.800              1.382              0.826
 Vibration    25          0.810              1.359              0.793
 Vibration    26          0.832              1.304              0.722
 Vibration    27          0.846              1.271              0.683
 Vibration    28          0.885              1.184              0.588
 Vibration    29          0.898              1.156              0.560
 Vibration    30          0.918              1.113              0.520
 Vibration    31          0.942              1.063              0.476
 Vibration    32          0.962              1.025              0.444

                           ! Non-Optimized Parameters !
 Normal termination of Gaussian 16 at Fri Dec 22 01:28:36 2023.
