 Gaussian 16, Revision A.03,
 Gaussian 16:  ES64L-G16RevA.03 25-Dec-2016

 ----------------------------------------------------------------
 #P UB3LYP/6-311++G(d,p) SCRF=(PCM,Solvent=n,n-DiMethylFormamide)
 ----------------------------------------------------------------

 -------
 Reduced
 -------
 Symbolic Z-matrix:
 Charge = -2 Multiplicity = 1

                         Standard orientation:
 ---------------------------------------------------------------------
 Center     Atomic      Atomic             Coordinates (Angstroms)
 Number     Number       Type             X           Y           Z
 ---------------------------------------------------------------------
      1          6           0        0.367047    1.406434   -0.341522
      2          6           0       -1.034321    1.313968   -0.111066
      3          6           0       -1.765871    0.118071   -0.077732
      4          6           0       -1.091103   -1.144369   -0.311588
      5          6           0        0.320135   -1.048707   -0.551720
      6          6           0        1.032333    0.144904   -0.551661
      7          8           0        1.030302    2.528123   -0.370968
      8          8           0       -1.702070   -2.290801   -0.329810
      9          7           0        2.438625    0.242778   -0.822769
     10          6           0        3.420915   -0.248097    0.186694
     11          6           0        4.776829    0.370614   -0.196944
     12          6           0        3.541271   -1.779831    0.126656
     13          6           0        3.055611    0.184099    1.624645
     14          6           0       -3.284404    0.108517    0.185765
     15          6           0       -3.869190    1.513081    0.431203
     16          6           0       -4.020152   -0.501641   -1.034131
     17          6           0       -3.590950   -0.753209    1.436738
     18          1           0       -1.527025    2.266470    0.062611
     19          1           0        0.819143   -1.984371   -0.787244
     20          1           0        2.569834    1.257354   -0.889349
     21          1           0        4.730081    1.463906   -0.147239
     22          1           0        5.048128    0.086338   -1.219103
     23          1           0        5.573492    0.036597    0.478424
     24          1           0        3.768463   -2.099937   -0.895367
     25          1           0        2.607526   -2.255060    0.432265
     26          1           0        4.340861   -2.130502    0.791845
     27          1           0        2.952066    1.271768    1.675134
     28          1           0        3.824645   -0.136423    2.340855
     29          1           0        2.097841   -0.253343    1.917889
     30          1           0       -3.411205    1.995338    1.300641
     31          1           0       -4.949380    1.433124    0.615773
     32          1           0       -3.720518    2.170094   -0.431526
     33          1           0       -3.871883    0.130506   -1.917349
     34          1           0       -5.103006   -0.578852   -0.844391
     35          1           0       -3.609813   -1.493599   -1.234731
     36          1           0       -3.136090   -0.301095    2.325591
     37          1           0       -3.171170   -1.750703    1.291707
     38          1           0       -4.677120   -0.828637    1.607141
 ---------------------------------------------------------------------

 SCF Done:  E(UB3LYP) =  -751.776356245     A.U. after   19 cycles

 The electronic state is 1-A.
 Alpha  occ. eigenvalues --  -19.00749 -18.99929 -14.26925 -10.19290 -10.15660
 Alpha  occ. eigenvalues --  -10.15529 -10.15090 -10.14666 -10.14178 -10.14031
 Alpha  occ. eigenvalues --  -10.14007 -10.13708 -10.12822 -10.12819 -10.11480
 Alpha  occ. eigenvalues --  -10.10772 -10.10513  -0.92428  -0.91360  -0.87698
 Alpha  occ. eigenvalues --   -0.79370  -0.77175  -0.73956  -0.68007  -0.67181
 Alpha  occ. eigenvalues --   -0.66745  -0.66133  -0.65641  -0.62494  -0.56687
 Alpha  occ. eigenvalues --   -0.53085  -0.52298  -0.48988  -0.45732  -0.44308
 Alpha  occ. eigenvalues --   -0.43314  -0.43017  -0.42358  -0.41265  -0.40452
 Alpha  occ. eigenvalues --   -0.39520  -0.38962  -0.37785  -0.37298  -0.37231
 Alpha  occ. eigenvalues --   -0.35858  -0.35520  -0.35216  -0.34512  -0.34215
 Alpha  occ. eigenvalues --   -0.34069  -0.33121  -0.32235  -0.31205  -0.30715
 Alpha  occ. eigenvalues --   -0.30441  -0.29700  -0.29163  -0.29082  -0.24406
 Alpha  occ. eigenvalues --   -0.20829  -0.19057  -0.17730  -0.17612  -0.10260
 Alpha virt. eigenvalues --   -0.00195   0.00469   0.01607   0.01770   0.02327
 Alpha virt. eigenvalues --    0.02677   0.02692   0.03474   0.03910   0.03948
 Alpha virt. eigenvalues --    0.04255   0.04556   0.05131   0.05221   0.05887

  Beta  occ. eigenvalues --  -19.00749 -18.99929 -14.26925 -10.19290 -10.15660
  Beta  occ. eigenvalues --  -10.15529 -10.15090 -10.14666 -10.14178 -10.14031
  Beta  occ. eigenvalues --  -10.14007 -10.13708 -10.12822 -10.12819 -10.11480
  Beta  occ. eigenvalues --  -10.10772 -10.10513  -0.92428  -0.91360  -0.87698
  Beta  occ. eigenvalues --   -0.79370  -0.77175  -0.73956  -0.68007  -0.67181
  Beta  occ. eigenvalues --   -0.66745  -0.66133  -0.65641  -0.62494  -0.56687
  Beta  occ. eigenvalues --   -0.53085  -0.52298  -0.48988  -0.45732  -0.44308
  Beta  occ. eigenvalues --   -0.43314  -0.43017  -0.42358  -0.41265  -0.40452
  Beta  occ. eigenvalues --   -0.39520  -0.38962  -0.37785  -0.37298  -0.37231
  Beta  occ. eigenvalues --   -0.35858  -0.35520  -0.35216  -0.34512  -0.34215
  Beta  occ. eigenvalues --   -0.34069  -0.33121  -0.32235  -0.31205  -0.30715
  Beta  occ. eigenvalues --   -0.30441  -0.29700  -0.29163  -0.29082  -0.24406
  Beta  occ. eigenvalues --   -0.20829  -0.19057  -0.17730  -0.17612  -0.10260
  Beta virt. eigenvalues --   -0.00195   0.00469   0.01607   0.01770   0.02327
  Beta virt. eigenvalues --    0.02677   0.02692   0.03474   0.03910   0.03948
  Beta virt. eigenvalues --    0.04255   0.04556   0.05131   0.05221   0.05887

 Mulliken charges and spin densities:
               1          2
     1  C   -0.600709   0.000000
     2  C   -0.439137   0.000000
     3  C    0.913512  -0.000000
     4  C   -0.715404  -0.000000
     5  C   -0.133680  -0.000000
     6  C    0.097675  -0.000000
     7  O   -0.722875  -0.000000
     8  O   -0.673288   0.000000
     9  N    0.064137   0.000000
    10  C    0.028746  -0.000000
    11  C   -0.457888   0.000000
    12  C   -0.583806   0.000000
    13  C   -0.502934   0.000000
    14  C    0.613237   0.000000
    15  C   -0.519351  -0.000000
    16  C   -0.691823   0.000000
    17  C   -0.685872   0.000000
    18  H    0.135342  -0.000000
    19  H    0.131285  -0.000000
    20  H    0.226027   0.000000
    21  H    0.144425   0.000000
    22  H    0.141286  -0.000000
    23  H    0.137897  -0.000000
    24  H    0.146125  -0.000000
    25  H    0.136859   0.000000
    26  H    0.133294  -0.000000
    27  H    0.144819   0.000000
    28  H    0.145906   0.000000
    29  H    0.146489  -0.000000
    30  H    0.122771   0.000000
    31  H    0.155149  -0.000000
    32  H    0.122379  -0.000000
    33  H    0.113521  -0.000000
    34  H    0.124870  -0.000000
    35  H    0.181579   0.000000
    36  H    0.112256  -0.000000
    37  H    0.183191   0.000000
    38  H    0.123990  -0.000000
 Sum of Mulliken charges =  -2.00000   0.00000

 Dipole moment (field-independent basis, Debye):
    X=              3.4952    Y=             -0.7023    Z=              4.3817  Tot=              5.6488
 Quadrupole moment (field-independent basis, Debye-Ang):
   XX=           -142.6275   YY=           -163.7834   ZZ=           -123.3482
   XY=            -21.9434   XZ=              3.6455   YZ=             -0.0848

 Normal termination of Gaussian 16 at Wed Jan 24 22:59:01 2024.
