 Gaussian 16, Revision A.03,
 Gaussian 16:  ES64L-G16RevA.03 25-Dec-2016

 ----------------------------------------------------------------
 #P UB3LYP/6-311++G(d,p) SCRF=(PCM,Solvent=n,n-DiMethylFormamide)
 ----------------------------------------------------------------

 ------------------
 Radical PCM in DMF
 ------------------
 Symbolic Z-matrix:
 Charge = -1 Multiplicity = 2

                         Standard orientation:
 ---------------------------------------------------------------------
 Center     Atomic      Atomic             Coordinates (Angstroms)
 Number     Number       Type             X           Y           Z
 ---------------------------------------------------------------------
      1          8           0       -3.404372    2.259793    0.024933
      2          6           0       -2.530909    1.357361    0.009765
      3          6           0       -2.888738   -0.056047    0.028274
      4          6           0       -4.249584   -0.431967    0.071286
      5          6           0       -4.620910   -1.760879    0.085010
      6          6           0       -3.628807   -2.766078    0.054041
      7          6           0       -2.293895   -2.417812    0.010277
      8          6           0       -1.889180   -1.063248   -0.001768
      9          6           0       -0.454135   -0.757109   -0.048444
     10          8           0        0.376908   -1.701924   -0.103275
     11          6           0       -0.071140    0.661101   -0.038012
     12          6           0        1.298505    1.110918   -0.045844
     13          6           0        1.576704    2.469364   -0.070239
     14          6           0        0.561004    3.441883   -0.076242
     15          6           0       -0.753757    3.037988   -0.048794
     16          6           0       -1.096312    1.670279   -0.026390
     17          7           0        2.461654    0.265729   -0.023417
     18          6           0        2.723482   -0.484385    1.206397
     19          6           0        4.234955   -0.766395    1.329127
     20          6           0        4.867707   -1.078954   -0.050147
     21          6           0        3.797127   -1.547989   -1.041450
     22          6           0        2.751812   -0.448216   -1.277136
     23          1           0       -4.985144    0.363874    0.092269
     24          1           0       -5.671236   -2.035056    0.118799
     25          1           0       -3.917738   -3.813048    0.064426
     26          1           0       -1.513853   -3.169295   -0.015728
     27          1           0        2.621940    2.758973   -0.076336
     28          1           0        0.817567    4.496949   -0.094589
     29          1           0       -1.571854    3.748215   -0.042284
     30          1           0        2.148557   -1.417752    1.244298
     31          1           0        2.391640    0.131551    2.046040
     32          1           0        4.377080   -1.612747    2.012498
     33          1           0        4.742800    0.094345    1.777339
     34          1           0        5.658778   -1.830590    0.051766
     35          1           0        5.343714   -0.176356   -0.449998
     36          1           0        4.246430   -1.828018   -2.000686
     37          1           0        3.298051   -2.441322   -0.652318
     38          1           0        1.850143   -0.897014   -1.707669
     39          1           0        3.147678    0.285350   -1.995435
 ---------------------------------------------------------------------

 SCF Done:  E(UB3LYP) =  -939.837209882     A.U. after   19 cycles

 The electronic state is 2-A.
 Alpha  occ. eigenvalues --  -19.07360 -19.06895 -14.28876 -10.22268 -10.22146
 Alpha  occ. eigenvalues --  -10.20210 -10.17686 -10.17673 -10.17456 -10.17192
 Alpha  occ. eigenvalues --  -10.17183 -10.17144 -10.17045 -10.16949 -10.16921
 Alpha  occ. eigenvalues --  -10.16873 -10.16773 -10.16513 -10.16427 -10.15719
 Alpha  occ. eigenvalues --  -10.15649 -10.15508  -1.00157  -0.99739  -0.91655
 Alpha  occ. eigenvalues --   -0.85735  -0.84411  -0.78766  -0.77984  -0.74873
 Alpha  occ. eigenvalues --   -0.73944  -0.73651  -0.73107  -0.66511  -0.64200
 Alpha  occ. eigenvalues --   -0.62634  -0.61701  -0.61372  -0.57867  -0.55399
 Alpha  occ. eigenvalues --   -0.53301  -0.52561  -0.51447  -0.48488  -0.47775
 Alpha  occ. eigenvalues --   -0.46900  -0.46032  -0.45303  -0.45168  -0.43597
 Alpha  occ. eigenvalues --   -0.42249  -0.42161  -0.41124  -0.40880  -0.40329
 Alpha  occ. eigenvalues --   -0.40266  -0.39641  -0.38801  -0.37914  -0.37275
 Alpha  occ. eigenvalues --   -0.37025  -0.35783  -0.35282  -0.34985  -0.34362
 Alpha  occ. eigenvalues --   -0.33408  -0.33381  -0.32193  -0.31150  -0.30304
 Alpha  occ. eigenvalues --   -0.26543  -0.25533  -0.24896  -0.24689  -0.24287
 Alpha  occ. eigenvalues --   -0.23200  -0.19618  -0.13936
 Alpha virt. eigenvalues --   -0.05219  -0.02037  -0.00497  -0.00276   0.00200
 Alpha virt. eigenvalues --    0.00611   0.01508   0.01574   0.01858   0.02420
 Alpha virt. eigenvalues --    0.03310   0.03670   0.03760   0.04017   0.04339

  Beta  occ. eigenvalues --  -19.06822 -19.06320 -14.28877 -10.22107 -10.21965
  Beta  occ. eigenvalues --  -10.20199 -10.17682 -10.17595 -10.17452 -10.17151
  Beta  occ. eigenvalues --  -10.17098 -10.17097 -10.16961 -10.16897 -10.16866
  Beta  occ. eigenvalues --  -10.16850 -10.16779 -10.16513 -10.16379 -10.15719
  Beta  occ. eigenvalues --  -10.15649 -10.15508  -0.99208  -0.98737  -0.91613
  Beta  occ. eigenvalues --   -0.85491  -0.84290  -0.78651  -0.77666  -0.74668
  Beta  occ. eigenvalues --   -0.73940  -0.73467  -0.72941  -0.65807  -0.64081
  Beta  occ. eigenvalues --   -0.62508  -0.61682  -0.61136  -0.57797  -0.55221
  Beta  occ. eigenvalues --   -0.53057  -0.52446  -0.51405  -0.48386  -0.47691
  Beta  occ. eigenvalues --   -0.46646  -0.45967  -0.45216  -0.45056  -0.43543
  Beta  occ. eigenvalues --   -0.42212  -0.41047  -0.40831  -0.40583  -0.40213
  Beta  occ. eigenvalues --   -0.40073  -0.39363  -0.38591  -0.37163  -0.37158
  Beta  occ. eigenvalues --   -0.36059  -0.35475  -0.35232  -0.34362  -0.34223
  Beta  occ. eigenvalues --   -0.33250  -0.32364  -0.32166  -0.31127  -0.30284
  Beta  occ. eigenvalues --   -0.25093  -0.24393  -0.24174  -0.24035  -0.23790
  Beta  occ. eigenvalues --   -0.22694  -0.19588
  Beta virt. eigenvalues --   -0.08056  -0.04274  -0.01005  -0.00483  -0.00048
  Beta virt. eigenvalues --    0.00204   0.00614   0.01516   0.01590   0.01861
  Beta virt. eigenvalues --    0.02426   0.03313   0.03704   0.03776   0.04061

 Mulliken charges and spin densities:
               1          2
     1  O   -0.461190   0.200400
     2  C   -0.314093   0.104311
     3  C    0.407238   0.008156
     4  C   -0.097394   0.027833
     5  C   -0.391485   0.027567
     6  C   -0.412799   0.043247
     7  C    0.055249   0.026701
     8  C    0.013996   0.023598
     9  C   -0.170877   0.086418
    10  O   -0.368913   0.222389
    11  C   -0.040307   0.079416
    12  C   -1.000024   0.026904
    13  C    0.070489   0.029518
    14  C   -0.293817   0.044604
    15  C   -0.249316   0.028822
    16  C    0.367133   0.033522
    17  N    0.542673  -0.005083
    18  C   -0.105415   0.000771
    19  C   -0.408460  -0.000620
    20  C   -0.351667  -0.000515
    21  C   -0.347453   0.001496
    22  C   -0.111673   0.004179
    23  H    0.157565  -0.001639
    24  H    0.182009  -0.002516
    25  H    0.183035  -0.003352
    26  H    0.149470  -0.001335
    27  H    0.142567  -0.003100
    28  H    0.195626  -0.003422
    29  H    0.162239  -0.001411
    30  H    0.159841   0.001846
    31  H    0.154686   0.000720
    32  H    0.142144  -0.000076
    33  H    0.143447   0.000026
    34  H    0.164097  -0.000014
    35  H    0.137330   0.000016
    36  H    0.171101   0.000082
    37  H    0.137434  -0.000248
    38  H    0.138883  -0.000109
    39  H    0.146630   0.000896
 Sum of Mulliken charges =  -1.00000   1.00000

 Dipole moment (field-independent basis, Debye):
    X=              6.8417    Y=             -2.5916    Z=              0.1787  Tot=              7.3183
 Quadrupole moment (field-independent basis, Debye-Ang):
   XX=           -162.3620   YY=           -148.6265   ZZ=           -137.1952
   XY=             18.1815   XZ=             -0.1931   YZ=             -0.4281

 Normal termination of Gaussian 16 at Tue Jan 16 06:03:15 2024.
