 Gaussian 16, Revision A.03,
 Gaussian 16:  ES64L-G16RevA.03 25-Dec-2016

 ----------------------------------------------------------------------
 #P UB3LYP/6-311++G(d,p) nosym opt freq SCRF=(PCM,Solvent=n,n-DiMethylF
 ormamide)
 ----------------------------------------------------------------------

 -------
 Radical
 -------
 Symbolic Z-matrix:
 Charge = -1 Multiplicity = 2

 SCF Done:  E(UB3LYP) =  -573.740439054     A.U. after   20 cycles
 SCF Done:  E(UB3LYP) =  -573.740846468     A.U. after   14 cycles
 SCF Done:  E(UB3LYP) =  -573.740858086     A.U. after   13 cycles
 SCF Done:  E(UB3LYP) =  -573.740817238     A.U. after   13 cycles
 SCF Done:  E(UB3LYP) =  -573.740866314     A.U. after   13 cycles
 SCF Done:  E(UB3LYP) =  -573.740868746     A.U. after   11 cycles
 SCF Done:  E(UB3LYP) =  -573.740874372     A.U. after   13 cycles
 SCF Done:  E(UB3LYP) =  -573.740915736     A.U. after   15 cycles
 SCF Done:  E(UB3LYP) =  -573.647533377     A.U. after   20 cycles
 SCF Done:  E(UB3LYP) =  -573.740975574     A.U. after   16 cycles
 SCF Done:  E(UB3LYP) =  -573.741583428     A.U. after   11 cycles
 SCF Done:  E(UB3LYP) =  -573.741626370     A.U. after   13 cycles
 SCF Done:  E(UB3LYP) =  -573.741628548     A.U. after   13 cycles
 SCF Done:  E(UB3LYP) =  -573.741629646     A.U. after   11 cycles
 SCF Done:  E(UB3LYP) =  -573.741632239     A.U. after   12 cycles
 SCF Done:  E(UB3LYP) =  -573.741633053     A.U. after   12 cycles
 SCF Done:  E(UB3LYP) =  -573.741633490     A.U. after   11 cycles
 SCF Done:  E(UB3LYP) =  -573.741633618     A.U. after    9 cycles
 SCF Done:  E(UB3LYP) =  -573.741633687     A.U. after    9 cycles
 Optimization completed.
    -- Stationary point found.
 Normal termination of Gaussian 16 at Sat Feb 10 22:00:26 2024.

 ----------------------------------------------------------------------
 #P Geom=AllCheck Guess=TCheck SCRF=Check GenChk UB3LYP/6-311++G(d,p) F
 req
 ----------------------------------------------------------------------

 Structure from the checkpoint file:  "057-rad.chk"
 -------
 Radical
 -------
 Charge = -1 Multiplicity = 2

                          Input orientation:
 ---------------------------------------------------------------------
 Center     Atomic      Atomic             Coordinates (Angstroms)
 Number     Number       Type             X           Y           Z
 ---------------------------------------------------------------------
      1          6           0       -0.314991    0.974855    0.178801
      2          6           0       -1.406303    0.118430   -0.214682
      3          6           0       -1.230038   -1.220419   -0.421723
      4          6           0        0.052895   -1.862251   -0.263988
      5          6           0        1.175670   -1.018547    0.137069
      6          6           0        0.980621    0.332145    0.352345
      7          8           0       -0.464213    2.226812    0.337705
      8          8           0        0.201711   -3.107504   -0.465006
      9          6           0        2.113474    1.232116    0.767835
     10          6           0        2.054807    1.814356    2.158827
     11          8           0        3.059742    1.448643    0.025438
     12          1           0       -2.377283    0.585116   -0.350558
     13          1           0       -2.061148   -1.851957   -0.721295
     14          1           0        1.060554    2.213194    2.362252
     15          1           0        2.813143    2.588091    2.283980
     16          1           0        2.241846    1.007538    2.877284
     17          6           0        2.502867   -1.707750    0.320259
     18          1           0        2.389271   -2.581436    0.967594
     19          1           0        3.261056   -1.051073    0.744307
     20          1           0        2.879708   -2.082119   -0.637360
 ---------------------------------------------------------------------

 SCF Done:  E(UB3LYP) =  -573.741633687     A.U. after    1 cycles

 Alpha  occ. eigenvalues --  -19.11978 -19.08001 -19.07947 -10.26826 -10.22609
 Alpha  occ. eigenvalues --  -10.22068 -10.18313 -10.17375 -10.16626 -10.16591
 Alpha  occ. eigenvalues --  -10.16535 -10.15936  -1.05012  -1.00038  -0.99736
 Alpha  occ. eigenvalues --   -0.83313  -0.77515  -0.74801  -0.70445  -0.66774
 Alpha  occ. eigenvalues --   -0.61712  -0.56530  -0.52943  -0.49113  -0.47449
 Alpha  occ. eigenvalues --   -0.45685  -0.44846  -0.43271  -0.42380  -0.41983
 Alpha  occ. eigenvalues --   -0.40473  -0.40074  -0.39627  -0.38603  -0.37024
 Alpha  occ. eigenvalues --   -0.36571  -0.36397  -0.35440  -0.28336  -0.26878
 Alpha  occ. eigenvalues --   -0.25452  -0.24677  -0.23646  -0.16635
 Alpha virt. eigenvalues --   -0.03797  -0.00423  -0.00203   0.01137   0.01364
 Alpha virt. eigenvalues --    0.02271   0.03132   0.03389   0.03873   0.04811
 Alpha virt. eigenvalues --    0.05089   0.05950   0.06606   0.07180   0.08051

  Beta  occ. eigenvalues --  -19.11968 -19.07319 -19.07225 -10.26831 -10.22472
  Beta  occ. eigenvalues --  -10.21926 -10.18164 -10.17303 -10.16590 -10.16523
  Beta  occ. eigenvalues --  -10.16421 -10.15946  -1.04985  -0.98844  -0.98464
  Beta  occ. eigenvalues --   -0.82729  -0.77249  -0.74661  -0.70098  -0.65988
  Beta  occ. eigenvalues --   -0.61402  -0.56139  -0.52718  -0.48916  -0.47198
  Beta  occ. eigenvalues --   -0.45406  -0.44640  -0.43167  -0.41742  -0.41572
  Beta  occ. eigenvalues --   -0.40213  -0.39598  -0.39162  -0.37538  -0.36454
  Beta  occ. eigenvalues --   -0.36152  -0.35395  -0.34074  -0.26707  -0.25128
  Beta  occ. eigenvalues --   -0.24546  -0.24022  -0.23103
  Beta virt. eigenvalues --   -0.09391  -0.03373  -0.00238   0.00732   0.01195
  Beta virt. eigenvalues --    0.01391   0.02856   0.03310   0.03903   0.04594
  Beta virt. eigenvalues --    0.04921   0.05299   0.05988   0.06772   0.07240

 Mulliken charges and spin densities:
               1          2
     1  C   -0.424299   0.114968
     2  C   -0.020130   0.086798
     3  C    0.125003   0.085899
     4  C   -0.372965   0.107867
     5  C    0.242304   0.078032
     6  C    0.435477   0.024524
     7  O   -0.486508   0.242854
     8  O   -0.487338   0.259028
     9  C   -0.035939   0.002050
    10  C   -0.571890   0.002622
    11  O   -0.325453   0.001756
    12  H    0.190644  -0.008135
    13  H    0.186594  -0.007082
    14  H    0.201530  -0.000943
    15  H    0.160766   0.000614
    16  H    0.164792  -0.000062
    17  C   -0.487252  -0.000731
    18  H    0.163408   0.003994
    19  H    0.160650  -0.000271
    20  H    0.180607   0.006219
 Sum of Mulliken charges =  -1.00000   1.00000

 Dipole moment (field-independent basis, Debye):
    X=             -2.4134    Y=              0.5977    Z=              2.5726  Tot=              3.5778
 Quadrupole moment (field-independent basis, Debye-Ang):
   XX=            -84.1283   YY=           -113.0813   ZZ=            -70.9882
   XY=             -2.0708   XZ=              6.4030   YZ=             -2.6601

  Exact polarizability: 183.123  -7.195 258.199   9.736  28.540 118.902
 Approx polarizability: 191.187 -13.406 294.491   2.774  28.879 131.468

                      1                      2                      3
                      A                      A                      A
 Frequencies --     38.4381                77.9521                95.7596
 Red. masses --      3.4692                 2.6535                 1.3329
 Frc consts  --      0.0030                 0.0095                 0.0072
 IR Inten    --      9.4432                 3.3018                 0.3682

                      4                      5                      6
                      A                      A                      A
 Frequencies --    116.8941               123.6978               170.7116
 Red. masses --      5.0961                 1.1368                 5.2253
 Frc consts  --      0.0410                 0.0102                 0.0897
 IR Inten    --     23.8582                 2.1988                 0.2471

                      7                      8                      9
                      A                      A                      A
 Frequencies --    194.3851               283.7143               320.2021
 Red. masses --      3.8200                 4.6048                 4.9560
 Frc consts  --      0.0850                 0.2184                 0.2994
 IR Inten    --      6.8856                 2.2091                 0.7453

                     10                     11                     12
                      A                      A                      A
 Frequencies --    337.3135               369.4230               409.9149
 Red. masses --      4.1496                 4.4217                 6.6304
 Frc consts  --      0.2782                 0.3555                 0.6564
 IR Inten    --     13.7964                 2.2870                18.5412

                     13                     14                     15
                      A                      A                      A
 Frequencies --    461.4002               492.7430               555.4515
 Red. masses --      6.5974                 5.0595                 3.3420
 Frc consts  --      0.8275                 0.7238                 0.6075
 IR Inten    --      2.8123                 3.9920                 2.8580

                     16                     17                     18
                      A                      A                      A
 Frequencies --    569.5415               619.1644               634.9084
 Red. masses --      4.1531                 3.4829                 3.3270
 Frc consts  --      0.7937                 0.7867                 0.7902
 IR Inten    --     28.2853                 2.0602                 4.7549

                     19                     20                     21
                      A                      A                      A
 Frequencies --    648.6293               751.6085               770.0524
 Red. masses --      3.2718                 6.8744                 5.7609
 Frc consts  --      0.8110                 2.2881                 2.0127
 IR Inten    --      7.5871                63.2579                 1.2284

                     22                     23                     24
                      A                      A                      A
 Frequencies --    827.2076               850.3512               958.2562
 Red. masses --      1.9201                 2.9759                 1.2882
 Frc consts  --      0.7741                 1.2678                 0.6970
 IR Inten    --     71.4438                16.3128                 0.9649

                     25                     26                     27
                      A                      A                      A
 Frequencies --    966.9649               983.9331              1034.3337
 Red. masses --      2.5766                 2.2047                 1.8670
 Frc consts  --      1.4194                 1.2576                 1.1768
 IR Inten    --     55.7829                 8.9644                29.7978

                     28                     29                     30
                      A                      A                      A
 Frequencies --   1040.9335              1064.5207              1122.2226
 Red. masses --      1.5320                 2.4506                 1.7980
 Frc consts  --      0.9780                 1.6362                 1.3341
 IR Inten    --      2.2661                81.4370                 3.4653

                     31                     32                     33
                      A                      A                      A
 Frequencies --   1169.1704              1211.5074              1240.1265
 Red. masses --      2.0660                 2.8856                 4.2982
 Frc consts  --      1.6639                 2.4954                 3.8946
 IR Inten    --     25.3114               102.0589                24.3267

                     34                     35                     36
                      A                      A                      A
 Frequencies --   1353.0970              1367.5176              1405.0661
 Red. masses --      2.0800                 1.3195                 1.2708
 Frc consts  --      2.2437                 1.4539                 1.4781
 IR Inten    --     18.5231                89.9231                19.6356

                     37                     38                     39
                      A                      A                      A
 Frequencies --   1422.7832              1444.8415              1457.8253
 Red. masses --      5.4076                 1.0965                 1.1366
 Frc consts  --      6.4496                 1.3487                 1.4232
 IR Inten    --    440.1400                23.8734                19.4991

                     40                     41                     42
                      A                      A                      A
 Frequencies --   1464.3851              1470.1548              1475.6100
 Red. masses --      1.1225                 1.5057                 4.1999
 Frc consts  --      1.4182                 1.9174                 5.3881
 IR Inten    --     44.0654                20.0107                 7.9177

                     43                     44                     45
                      A                      A                      A
 Frequencies --   1511.5186              1515.8926              1634.3734
 Red. masses --      4.4495                 2.9242                 7.0375
 Frc consts  --      5.9895                 3.9591                11.0758
 IR Inten    --    953.3132               124.5490                12.9406

                     46                     47                     48
                      A                      A                      A
 Frequencies --   1712.6135              3024.3465              3026.6810
 Red. masses --     10.5732                 1.0415                 1.0421
 Frc consts  --     18.2716                 5.6128                 5.6246
 IR Inten    --    475.8346                 6.4645                45.8551

                     49                     50                     51
                      A                      A                      A
 Frequencies --   3070.0124              3097.1601              3128.5539
 Red. masses --      1.0960                 1.0908                 1.0984
 Frc consts  --      6.0861                 6.1651                 6.3345
 IR Inten    --     29.8938                17.3076                24.2597

                     52                     53                     54
                      A                      A                      A
 Frequencies --   3137.1068              3147.7258              3166.7725
 Red. masses --      1.1049                 1.0859                 1.0955
 Frc consts  --      6.4064                 6.3390                 6.4731
 IR Inten    --     18.1248                29.5259                32.8340

 - Thermochemistry -
 -------------------
 Temperature   298.150 Kelvin.  Pressure   1.00000 Atm.
 Atom     1 has atomic number  6 and mass  12.00000

 Molecular mass:   164.04734 amu.
 Principal axes and moments of inertia in atomic units:
                           1         2         3
     Eigenvalues --  1297.095642121.598973121.76169
           X            0.44563   0.87291  -0.19860
           Y            0.84666  -0.48303  -0.22327
           Z            0.29082   0.06866   0.95431
 This molecule is an asymmetric top.
 Rotational symmetry number  1.
 Warning -- assumption of classical behavior for rotation
           may cause significant error
 Rotational temperatures (Kelvin)      0.06678     0.04082     0.02775
 Rotational constants (GHZ):           1.39137     0.85065     0.57812
 Zero-point vibrational energy     386067.7 (Joules/Mol)
                                   92.27238 (Kcal/Mol)
 Warning -- explicit consideration of  17 degrees of freedom as
           vibrations may cause significant error
 Vibrational temperatures:     55.30   112.16   137.78   168.18   177.97
          (Kelvin)            245.62   279.68   408.20   460.70   485.32
                              531.52   589.78   663.85   708.95   799.17
                              819.44   890.84   913.49   933.23  1081.40
                             1107.93  1190.17  1223.47  1378.72  1391.25
                             1415.66  1488.18  1497.67  1531.61  1614.63
                             1682.18  1743.09  1784.27  1946.80  1967.55
                             2021.58  2047.07  2078.80  2097.49  2106.92
                             2115.22  2123.07  2174.74  2181.03  2351.50
                             2464.07  4351.36  4354.72  4417.06  4456.12
                             4501.29  4513.60  4528.88  4556.28

 Zero-point correction=                           0.147045 (Hartree/Particle)
 Thermal correction to Energy=                    0.158635
 Thermal correction to Enthalpy=                  0.159579
 Thermal correction to Gibbs Free Energy=         0.108175
 Sum of electronic and zero-point Energies=           -573.594588
 Sum of electronic and thermal Energies=              -573.582999
 Sum of electronic and thermal Enthalpies=            -573.582055
 Sum of electronic and thermal Free Energies=         -573.633459

                     E (Thermal)             CV                S
                      KCal/Mol        Cal/Mol-Kelvin    Cal/Mol-Kelvin
 Total                   99.545             41.878            108.189
 Electronic               0.000              0.000              1.377
 Translational            0.889              2.981             41.193
 Rotational               0.889              2.981             30.531
 Vibrational             97.767             35.917             35.087
 Vibration     1          0.594              1.982              5.338
 Vibration     2          0.599              1.964              3.942
 Vibration     3          0.603              1.952              3.539
 Vibration     4          0.608              1.935              3.151
 Vibration     5          0.610              1.929              3.042
 Vibration     6          0.626              1.879              2.428
 Vibration     7          0.635              1.848              2.186
 Vibration     8          0.682              1.704              1.511
 Vibration     9          0.706              1.635              1.309
 Vibration    10          0.718              1.601              1.225
 Vibration    11          0.742              1.535              1.082
 Vibration    12          0.774              1.449              0.927
 Vibration    13          0.819              1.336              0.762
 Vibration    14          0.848              1.266              0.677
 Vibration    15          0.911              1.128              0.533
 Vibration    16          0.926              1.097              0.505
 Vibration    17          0.979              0.991              0.418

 Optimization completed.
    -- Stationary point found.
 Normal termination of Gaussian 16 at Sat Feb 10 22:09:41 2024.
