 Q-Chem 5.4, Q-Chem, Inc., Pleasanton, CA (2021)
 Q-Chem 5.4.0 for Intel X86 EM64T Linux

User input:
--------------------------------------------------------------
$molecule
-1 2
O                  1.2631780000      1.2725120000      2.3292520000
C                  0.6857350000      0.7301050000      1.3383400000
C                 -0.7360790000      0.5148360000      1.3225030000
C                 -1.4484950000      0.0070760000      0.2516640000
N                 -2.8542870000     -0.0794860000      0.2668630000
C                 -3.5727500000      0.5275820000      1.3764460000
C                 -5.1007840000      0.4209280000      1.1699660000
C                 -5.4506720000      0.3779660000     -0.3208070000
C                 -4.8253000000     -0.8765860000     -0.9684210000
C                 -3.5187410000     -1.2742740000     -0.2527930000
C                 -0.7281240000     -0.3502900000     -0.9800000000
O                 -1.3181580000     -0.7587210000     -2.0270280000
C                  0.7013460000     -0.2072110000     -0.9355360000
C                  1.4151780000      0.2929040000      0.1394960000
N                  2.8060070000      0.4877000000      0.0808150000
C                  3.4658960000      0.3511690000     -1.2091220000
C                  4.9406940000      0.7437610000     -1.1017450000
C                  5.7081480000     -0.2130970000     -0.1618960000
C                  4.7656470000     -0.7801490000      0.9213950000
C                  3.6438990000      0.2098080000      1.2615480000
H                 -1.2349010000      0.8179770000      2.2349520000
H                 -3.2728090000      1.5791660000      1.4377850000
H                 -3.3059870000      0.0665240000      2.3466530000
H                 -5.5897460000      1.2631080000      1.6710180000
H                 -5.4817360000     -0.4876810000      1.6514940000
H                 -6.5370900000      0.3909080000     -0.4654650000
H                 -5.0543840000      1.2759740000     -0.8048270000
H                 -5.5294290000     -1.7176120000     -0.9252600000
H                 -4.6101600000     -0.6838520000     -2.0230410000
H                 -2.8463010000     -1.7636760000     -0.9503790000
H                 -3.7347390000     -1.9736710000      0.5780350000
H                  1.1998640000     -0.5120510000     -1.8476370000
H                  3.3980850000     -0.6784480000     -1.6113490000
H                  2.9505790000      0.9925910000     -1.9312770000
H                  5.3904850000      0.7494860000     -2.1000860000
H                  4.9976740000      1.7692320000     -0.7220740000
H                  6.5431790000      0.3219980000      0.3043120000
H                  6.1495920000     -1.0342440000     -0.7382950000
H                  5.3257240000     -1.0238620000      1.8311750000
H                  4.3133580000     -1.7148860000      0.5723110000
H                  3.0097670000     -0.1745180000      2.0547870000
H                  4.0766380000      1.1409990000      1.6522470000
$end
$rem
MAX_SCF_CYCLES=200
BASIS  =  6-311++G(d,p)
GUI  =  2
JOB_TYPE  =  SP
METHOD  =  B3LYP
SOLVENT_METHOD = PCM
$end
$pcm
theory = CPCM
$end
$solvent
dielectric 37.219
opticaldielectric 1.43
$end

--------------------------------------------------------------

             Standard Nuclear Orientation (Angstroms)
    I     Atom           X                Y                Z
 ----------------------------------------------------------------
    1      O       1.2631780000     1.2725120000     2.3292520000
    2      C       0.6857350000     0.7301050000     1.3383400000
    3      C      -0.7360790000     0.5148360000     1.3225030000
    4      C      -1.4484950000     0.0070760000     0.2516640000
    5      N      -2.8542870000    -0.0794860000     0.2668630000
    6      C      -3.5727500000     0.5275820000     1.3764460000
    7      C      -5.1007840000     0.4209280000     1.1699660000
    8      C      -5.4506720000     0.3779660000    -0.3208070000
    9      C      -4.8253000000    -0.8765860000    -0.9684210000
   10      C      -3.5187410000    -1.2742740000    -0.2527930000
   11      C      -0.7281240000    -0.3502900000    -0.9800000000
   12      O      -1.3181580000    -0.7587210000    -2.0270280000
   13      C       0.7013460000    -0.2072110000    -0.9355360000
   14      C       1.4151780000     0.2929040000     0.1394960000
   15      N       2.8060070000     0.4877000000     0.0808150000
   16      C       3.4658960000     0.3511690000    -1.2091220000
   17      C       4.9406940000     0.7437610000    -1.1017450000
   18      C       5.7081480000    -0.2130970000    -0.1618960000
   19      C       4.7656470000    -0.7801490000     0.9213950000
   20      C       3.6438990000     0.2098080000     1.2615480000
   21      H      -1.2349010000     0.8179770000     2.2349520000
   22      H      -3.2728090000     1.5791660000     1.4377850000
   23      H      -3.3059870000     0.0665240000     2.3466530000
   24      H      -5.5897460000     1.2631080000     1.6710180000
   25      H      -5.4817360000    -0.4876810000     1.6514940000
   26      H      -6.5370900000     0.3909080000    -0.4654650000
   27      H      -5.0543840000     1.2759740000    -0.8048270000
   28      H      -5.5294290000    -1.7176120000    -0.9252600000
   29      H      -4.6101600000    -0.6838520000    -2.0230410000
   30      H      -2.8463010000    -1.7636760000    -0.9503790000
   31      H      -3.7347390000    -1.9736710000     0.5780350000
   32      H       1.1998640000    -0.5120510000    -1.8476370000
   33      H       3.3980850000    -0.6784480000    -1.6113490000
   34      H       2.9505790000     0.9925910000    -1.9312770000
   35      H       5.3904850000     0.7494860000    -2.1000860000
   36      H       4.9976740000     1.7692320000    -0.7220740000
   37      H       6.5431790000     0.3219980000     0.3043120000
   38      H       6.1495920000    -1.0342440000    -0.7382950000
   39      H       5.3257240000    -1.0238620000     1.8311750000
   40      H       4.3133580000    -1.7148860000     0.5723110000
   41      H       3.0097670000    -0.1745180000     2.0547870000
   42      H       4.0766380000     1.1409990000     1.6522470000
 ----------------------------------------------------------------

    8    -883.2532544049      5.95e-06  Convergence criterion met
 Total energy in the final basis set =     -883.2532544049

                    Orbital Energies (a.u.)
 --------------------------------------------------------------

 Alpha MOs
 -- Occupied --
-19.0626 -19.0611 -14.3168 -14.3149 -10.2110 -10.2109 -10.1945 -10.1936
-10.1882 -10.1875 -10.1834 -10.1793 -10.1596 -10.1593 -10.1578 -10.1574
-10.1563 -10.1544 -10.1400 -10.1387  -0.9891  -0.9855  -0.9322  -0.9312
 -0.8136  -0.7942  -0.7716  -0.7475  -0.7445  -0.7180  -0.6781  -0.6534
 -0.6339  -0.6251  -0.6167  -0.5797  -0.5583  -0.5314  -0.5224  -0.5049
 -0.4938  -0.4912  -0.4839  -0.4686  -0.4469  -0.4353  -0.4270  -0.4224
 -0.4120  -0.4077  -0.4008  -0.3981  -0.3960  -0.3942  -0.3891  -0.3813
 -0.3768  -0.3685  -0.3596  -0.3558  -0.3543  -0.3471  -0.3336  -0.3277
 -0.3166  -0.3118  -0.3107  -0.3099  -0.2800  -0.2769  -0.2319  -0.2289
 -0.2147  -0.1920  -0.1381

 Beta MOs
 -- Occupied --
-19.0572 -19.0562 -14.3150 -14.3134 -10.2089 -10.2088 -10.1927 -10.1917
-10.1883 -10.1876 -10.1834 -10.1793 -10.1596 -10.1593 -10.1578 -10.1573
-10.1563 -10.1544 -10.1404 -10.1391  -0.9801  -0.9762  -0.9291  -0.9275
 -0.8101  -0.7933  -0.7696  -0.7472  -0.7443  -0.7164  -0.6714  -0.6525
 -0.6332  -0.6246  -0.6134  -0.5776  -0.5552  -0.5304  -0.5215  -0.5040
 -0.4922  -0.4892  -0.4814  -0.4669  -0.4451  -0.4341  -0.4245  -0.4208
 -0.4091  -0.4059  -0.3985  -0.3969  -0.3946  -0.3868  -0.3840  -0.3787
 -0.3729  -0.3636  -0.3586  -0.3538  -0.3453  -0.3407  -0.3293  -0.3256
 -0.3156  -0.3114  -0.3101  -0.3088  -0.2723  -0.2588  -0.2271  -0.2239
 -0.2010  -0.1833

          Ground-State Mulliken Net Atomic Charges

     Atom                 Charge (a.u.)    Spin (a.u.)
  --------------------------------------------------------
      1 O                    -0.538846       0.203467
      2 C                    -0.187945       0.154026
      3 C                     0.097098      -0.071000
      4 C                    -0.377857       0.176860
      5 N                     0.330081       0.052297
      6 C                    -0.122775       0.001060
      7 C                    -0.592661      -0.001733
      8 C                    -0.263015      -0.001044
      9 C                    -0.314221       0.013218
     10 C                    -0.400218      -0.003767
     11 C                    -0.035455       0.137011
     12 O                    -0.550728       0.187078
     13 C                     0.044662      -0.101636
     14 C                    -0.423521       0.163848
     15 N                     0.239723       0.065241
     16 C                    -0.096820      -0.003955
     17 C                    -0.520469      -0.002267
     18 C                    -0.502080       0.000485
     19 C                    -0.351710       0.000675
     20 C                    -0.205693       0.014536
     21 H                     0.223645      -0.003041
     22 H                     0.175465       0.001134
     23 H                     0.140440       0.007275
     24 H                     0.174625       0.000295
     25 H                     0.149987      -0.000585
     26 H                     0.183584       0.000069
     27 H                     0.139009       0.000520
     28 H                     0.139545       0.001206
     29 H                     0.149748       0.000534
     30 H                     0.202646      -0.007471
     31 H                     0.174523       0.007839
     32 H                     0.216674      -0.002747
     33 H                     0.137332       0.008227
     34 H                     0.194924       0.001654
     35 H                     0.177659       0.000444
     36 H                     0.175471       0.000252
     37 H                     0.153212      -0.000100
     38 H                     0.151656      -0.000130
     39 H                     0.178460       0.001309
     40 H                     0.163877      -0.000018
     41 H                     0.203062      -0.003788
     42 H                     0.166884       0.002724
  --------------------------------------------------------
  Sum of atomic charges =    -1.000021

                    Cartesian Multipole Moments
 -----------------------------------------------------------------
    Charge (ESU x 10^10)
                -4.8033
    Dipole Moment (Debye)
         X       0.8834      Y      -2.2125      Z      -0.2592
       Tot       2.3964
    Quadrupole Moments (Debye-Ang)
        XX    -116.0288     XY      -7.0380     YY    -132.9810
        XZ     -19.1924     YZ     -12.4767     ZZ    -151.7162

 Total job time:  108.38s(wall), 764.05s(cpu)
        *  Thank you very much for using Q-Chem.  Have a nice day.  *
