 Q-Chem 5.4, Q-Chem, Inc., Pleasanton, CA (2021)
 Q-Chem 5.4.0 for Intel X86 EM64T Linux

User input:
--------------------------------------------------------------
$molecule
0 1
C                 -2.2268610000     -0.3778130000      0.0028140000
C                 -0.7635490000     -0.0594980000     -0.0013940000
C                 -0.2652740000      1.1898920000     -0.0392200000
C                  1.1862910000      1.4735550000     -0.0419660000
O                  1.6120890000      2.6177340000     -0.0764900000
C                  2.1125580000      0.3131340000     -0.0009770000
C                  1.6419300000     -0.9390110000      0.0369490000
C                  0.1844950000     -1.2213880000      0.0393630000
O                 -0.2278710000     -2.3689990000      0.0735650000
H                 -2.4926560000     -0.9508690000      0.8954290000
H                 -2.4854370000     -1.0075590000     -0.8529500000
H                 -2.8261820000      0.5326290000     -0.0291370000
H                 -0.9095570000      2.0627010000     -0.0697640000
H                  3.1719020000      0.5449180000     -0.0037360000
H                  2.2881230000     -1.8094240000      0.0675150000
$end
$rem
MAX_SCF_CYCLES=200
BASIS  =  6-311++G(d,p)
GUI  =  2
JOB_TYPE  =  SP
METHOD  =  B3LYP
SOLVENT_METHOD = COSMO
$end
$solvent
dielectric 37.219
opticaldielectric 1.43
$end

--------------------------------------------------------------

             Standard Nuclear Orientation (Angstroms)
    I     Atom           X                Y                Z
 ----------------------------------------------------------------
    1      C       2.0077908214     1.5905596553    -0.0003199424
    2      C       0.7944342382     0.7128410874    -0.0000493285
    3      C      -0.4691175742     1.1755730689     0.0002417673
    4      C      -1.6488035895     0.2834665324     0.0001003491
    5      O      -2.7855899720     0.7299619384     0.0001219112
    6      C      -1.4018100000    -1.1811909837    -0.0001790433
    7      C      -0.1546491523    -1.6663569160    -0.0003664137
    8      C       1.0279884826    -0.7690122582     0.0000413634
    9      O       2.1583626863    -1.2277937364     0.0005069647
   10      H       2.6304111819     1.3848127582    -0.8754278218
   11      H       2.6314205620     1.3840985193     0.8738844627
   12      H       1.7290092505     2.6447852948     0.0002273399
   13      H      -0.6898507747     2.2381670194     0.0003867480
   14      H      -2.2811974002    -1.8157135817    -0.0003129345
   15      H       0.0630261083    -2.7287767435    -0.0006013122
 ----------------------------------------------------------------

    9    -420.8942718250      2.98e-06  Convergence criterion met
 Total energy in the final basis set =     -420.8942718250
    5    -420.9079581417      6.44e-06  Convergence criterion met
 Total energy in the final basis set =     -420.9079581417

                    Orbital Energies (a.u.)
 --------------------------------------------------------------

 Alpha MOs
 -- Occupied --
-19.1467 -19.1436 -10.2892 -10.2872 -10.2211 -10.2111 -10.2102 -10.2028
-10.1755  -1.0773  -1.0733  -0.8662  -0.8075  -0.7302  -0.6942  -0.6296
 -0.5945  -0.5277  -0.5113  -0.4862  -0.4598  -0.4547  -0.4440  -0.4299
 -0.4280  -0.4091  -0.4037  -0.3910  -0.3136  -0.2948  -0.2916  -0.2823

          Ground-State Mulliken Net Atomic Charges

     Atom                 Charge (a.u.)
  ----------------------------------------
      1 C                    -0.405999
      2 C                     1.435732
      3 C                    -0.897402
      4 C                    -0.280900
      5 O                    -0.329026
      6 C                     0.105898
      7 C                     0.179551
      8 C                    -0.836939
      9 O                    -0.292194
     10 H                     0.196116
     11 H                     0.195961
     12 H                     0.177550
     13 H                     0.228619
     14 H                     0.262292
     15 H                     0.260740
  ----------------------------------------
  Sum of atomic charges =     0.000000

                    Cartesian Multipole Moments
 -----------------------------------------------------------------
    Charge (ESU x 10^10)
                 0.0000
    Dipole Moment (Debye)
         X       1.0414      Y       0.2278      Z      -0.0020
       Tot       1.0660
    Quadrupole Moments (Debye-Ang)
        XX     -69.2221     XY      12.2330     YY     -46.7040
        XZ      -0.0024     YZ       0.0024     ZZ     -52.0512

 Total job time:  11.48s(wall), 78.60s(cpu)
        *  Thank you very much for using Q-Chem.  Have a nice day.  *
