 Gaussian 16, Revision A.03,
 Gaussian 16:  ES64L-G16RevA.03 25-Dec-2016

 --------------------------------------
 #P UB3LYP/6-311++G(d,p) nosym opt freq
 --------------------------------------

 -------
 Reduced
 -------
 Symbolic Z-matrix:
 Charge = -3 Multiplicity = 1

 SCF Done:  E(UB3LYP) =  -1462.55784518     A.U. after   49 cycles
 SCF Done:  E(UB3LYP) =  -1462.59854725     A.U. after   35 cycles
 SCF Done:  E(UB3LYP) =  -1462.61468948     A.U. after   36 cycles
 SCF Done:  E(UB3LYP) =  -1462.61787964     A.U. after   31 cycles
 SCF Done:  E(UB3LYP) =  -1462.61824496     A.U. after   30 cycles
 SCF Done:  E(UB3LYP) =  -1462.61838475     A.U. after   30 cycles
 SCF Done:  E(UB3LYP) =  -1462.61923942     A.U. after   36 cycles
 SCF Done:  E(UB3LYP) =  -1462.62050150     A.U. after   32 cycles
 SCF Done:  E(UB3LYP) =  -1462.62471665     A.U. after   31 cycles
 SCF Done:  E(UB3LYP) =  -1462.62866543     A.U. after   33 cycles
 SCF Done:  E(UB3LYP) =  -1462.66853229     A.U. after   29 cycles
 SCF Done:  E(UB3LYP) =  -1462.66947716     A.U. after   27 cycles
 SCF Done:  E(UB3LYP) =  -1462.66962261     A.U. after   28 cycles
 SCF Done:  E(UB3LYP) =  -1462.66965753     A.U. after   25 cycles
 SCF Done:  E(UB3LYP) =  -1462.66966489     A.U. after   27 cycles
 SCF Done:  E(UB3LYP) =  -1462.66966662     A.U. after   24 cycles
 SCF Done:  E(UB3LYP) =  -1462.66966709     A.U. after   25 cycles
 SCF Done:  E(UB3LYP) =  -1462.66966733     A.U. after   19 cycles
 SCF Done:  E(UB3LYP) =  -1462.66966739     A.U. after   19 cycles
 Optimization completed.
    -- Stationary point found.
 Normal termination of Gaussian 16 at Fri Dec 22 02:32:00 2023.

 ----------------------------------------------------------------------
 #P Geom=AllCheck Guess=TCheck SCRF=Check GenChk UB3LYP/6-311++G(d,p) F
 req
 ----------------------------------------------------------------------

 Structure from the checkpoint file:  "190-an.chk"
 -------
 Reduced
 -------
 Charge = -3 Multiplicity = 1

                          Input orientation:
 ---------------------------------------------------------------------
 Center     Atomic      Atomic             Coordinates (Angstroms)
 Number     Number       Type             X           Y           Z
 ---------------------------------------------------------------------
      1          8           0        1.517708   -2.922502   -0.347766
      2          6           0        1.475629   -1.558879   -0.173759
      3          6           0        2.712411   -0.927197   -0.040196
      4          8           0        3.815413   -1.750492   -0.102754
      5          6           0        2.793107    0.465266    0.176183
      6          6           0        1.622673    1.196497    0.244267
      7          6           0        0.359064    0.587893    0.098772
      8          6           0       -0.825490    1.453298    0.185279
      9          8           0       -0.727076    2.694085    0.378836
     10          6           0       -2.126406    0.799989    0.036685
     11          6           0       -3.312431    1.569016    0.116263
     12          6           0       -4.561206    0.992406   -0.016583
     13          6           0       -4.666640   -0.398722   -0.237979
     14          6           0       -3.521395   -1.168235   -0.319308
     15          6           0       -2.230783   -0.601442   -0.185057
     16          6           0       -1.052733   -1.478733   -0.281560
     17          8           0       -1.191648   -2.712500   -0.489632
     18          6           0        0.255308   -0.831742   -0.123169
     19         16           0        4.421854    1.275677    0.286457
     20          8           0        4.779282    1.750538   -1.075321
     21          8           0        4.324490    2.353371    1.297043
     22          8           0        5.334208    0.142960    0.735782
     23          1           0        2.461329   -3.136667   -0.296796
     24          1           0        4.587484   -1.198217    0.212032
     25          1           0        1.649473    2.264179    0.419388
     26          1           0       -3.201903    2.634073    0.286348
     27          1           0       -5.464397    1.598059    0.048207
     28          1           0       -5.650757   -0.854472   -0.342724
     29          1           0       -3.576566   -2.237507   -0.488941
 ---------------------------------------------------------------------

 SCF Done:  E(UB3LYP) =  -1462.66966739     A.U. after    4 cycles

 Alpha  occ. eigenvalues --  -88.76514 -18.86896 -18.86885 -18.81378 -18.80725
 Alpha  occ. eigenvalues --  -18.80523 -18.77587 -18.77176  -9.95295  -9.95142
 Alpha  occ. eigenvalues --   -9.93192  -9.93163  -9.91283  -9.89316  -9.88791
 Alpha  occ. eigenvalues --   -9.88621  -9.88339  -9.88294  -9.88228  -9.88202
 Alpha  occ. eigenvalues --   -9.88118  -9.88099  -7.82370  -5.78667  -5.78615
 Alpha  occ. eigenvalues --   -5.78542  -0.82505  -0.79578  -0.76202  -0.69705
 Alpha  occ. eigenvalues --   -0.69211  -0.68921  -0.68557  -0.57056  -0.56099
 Alpha  occ. eigenvalues --   -0.49546  -0.46354  -0.45720  -0.44950  -0.38600
 Alpha  occ. eigenvalues --   -0.35982  -0.34481  -0.31231  -0.30784  -0.28665
 Alpha  occ. eigenvalues --   -0.26924  -0.24802  -0.22151  -0.21071  -0.19864
 Alpha  occ. eigenvalues --   -0.18775  -0.17328  -0.16913  -0.16714  -0.15336
 Alpha  occ. eigenvalues --   -0.14212  -0.13753  -0.13158  -0.12702  -0.11119
 Alpha  occ. eigenvalues --   -0.10742  -0.10213  -0.09720  -0.08743  -0.07783
 Alpha  occ. eigenvalues --   -0.06559  -0.06345  -0.05359  -0.05056  -0.04803
 Alpha  occ. eigenvalues --   -0.04459  -0.03338  -0.01602  -0.00903  -0.00588
 Alpha  occ. eigenvalues --    0.02782   0.03966   0.04745   0.04862   0.05575
 Alpha  occ. eigenvalues --    0.06629   0.06906   0.19132
 Alpha virt. eigenvalues --    0.21096   0.22387   0.22921   0.24482   0.25239
 Alpha virt. eigenvalues --    0.25934   0.26734   0.27345   0.27698   0.29016
 Alpha virt. eigenvalues --    0.29482   0.29809   0.30524   0.31293   0.31888

  Beta  occ. eigenvalues --  -88.76513 -18.86917 -18.86910 -18.81380 -18.80729
  Beta  occ. eigenvalues --  -18.80531 -18.78114 -18.77794  -9.95393  -9.95159
  Beta  occ. eigenvalues --   -9.93335  -9.93314  -9.91319  -9.89402  -9.88790
  Beta  occ. eigenvalues --   -9.88684  -9.88357  -9.88311  -9.88284  -9.88233
  Beta  occ. eigenvalues --   -9.88186  -9.88097  -7.82370  -5.78667  -5.78614
  Beta  occ. eigenvalues --   -5.78540  -0.82514  -0.79641  -0.76256  -0.70633
  Beta  occ. eigenvalues --   -0.70272  -0.68930  -0.68568  -0.57289  -0.56210
  Beta  occ. eigenvalues --   -0.49902  -0.46565  -0.45876  -0.45127  -0.39061
  Beta  occ. eigenvalues --   -0.36237  -0.34764  -0.31286  -0.30841  -0.28843
  Beta  occ. eigenvalues --   -0.27110  -0.24909  -0.22223  -0.21204  -0.20032
  Beta  occ. eigenvalues --   -0.18843  -0.17386  -0.17064  -0.16815  -0.15599
  Beta  occ. eigenvalues --   -0.14387  -0.13857  -0.13211  -0.12837  -0.12112
  Beta  occ. eigenvalues --   -0.11292  -0.10527  -0.09837  -0.09215  -0.08032
  Beta  occ. eigenvalues --   -0.07785  -0.06446  -0.06385  -0.05181  -0.04818
  Beta  occ. eigenvalues --   -0.04595  -0.04012  -0.01628  -0.01069  -0.00905
  Beta  occ. eigenvalues --    0.02719   0.02809   0.03434   0.04317   0.05077
  Beta  occ. eigenvalues --    0.06074   0.06082   0.15329
  Beta virt. eigenvalues --    0.22901   0.23567   0.23609   0.24258   0.25983
  Beta virt. eigenvalues --    0.26118   0.26365   0.27406   0.28056   0.28654
  Beta virt. eigenvalues --    0.29511   0.29765   0.30561   0.31077   0.31833

 Mulliken charges and spin densities:
               1          2
     1  O   -0.238781  -0.002495
     2  C   -0.364525  -0.036269
     3  C   -0.810722  -0.068719
     4  O   -0.429285  -0.008300
     5  C   -0.226051  -0.058260
     6  C   -0.176119   0.008568
     7  C    0.929660  -0.179945
     8  C   -0.823957  -0.026541
     9  O   -0.375968  -0.199356
    10  C    0.689042  -0.272734
    11  C   -1.789298   1.754708
    12  C    2.787613  -3.292065
    13  C    2.711294  -3.288313
    14  C   -1.113596   1.142879
    15  C    0.885181  -0.768284
    16  C   -0.355655  -0.305293
    17  O   -0.378943  -0.235604
    18  C    0.917522  -0.245874
    19  S    0.834271  -0.004588
    20  O   -0.250850  -0.001079
    21  O   -0.300551  -0.001074
    22  O   -0.461230   0.000278
    23  H    0.261735   0.000985
    24  H    0.354120   0.000017
    25  H    0.171277   0.007049
    26  H    0.273129  -0.133741
    27  H   -2.913929   3.089357
    28  H   -3.029380   3.204611
    29  H    0.223997  -0.079917
 Sum of Mulliken charges =  -3.00000   0.00000

 Dipole moment (field-independent basis, Debye):
    X=             16.3309    Y=             -6.2097    Z=              0.3255  Tot=             17.4747
 Quadrupole moment (field-independent basis, Debye-Ang):
   XX=           -530.4741   YY=           -224.7221   ZZ=           -172.2299
   XY=            -16.5425   XZ=            -12.5911   YZ=             -9.0904

  Exact polarizability: 657.263  47.9161712.559  22.348 233.038 269.744
 Approx polarizability: 736.475  52.6651734.085  23.250 225.991 340.119

                      1                      2                      3
                      A                      A                      A
 Frequencies --     31.1718                37.9676                53.8356
 Red. masses --     10.0399                 9.6624                10.7009
 Frc consts  --      0.0057                 0.0082                 0.0183
 IR Inten    --     12.1230                18.0224                 0.1282

                      4                      5                      6
                      A                      A                      A
 Frequencies --    107.3986               122.1142               129.7808
 Red. masses --      9.2751                10.1324                 5.7785
 Frc consts  --      0.0630                 0.0890                 0.0573
 IR Inten    --      0.0620                 8.7186                 4.6046

                      7                      8                      9
                      A                      A                      A
 Frequencies --    138.1719               197.5467               205.6126
 Red. masses --      8.2252                 8.5399                 8.7688
 Frc consts  --      0.0925                 0.1964                 0.2184
 IR Inten    --      6.1774                64.1904                 3.6388

                     10                     11                     12
                      A                      A                      A
 Frequencies --    251.7562               276.1911               291.6699
 Red. masses --      8.2749                 8.5423                10.5889
 Frc consts  --      0.3090                 0.3839                 0.5307
 IR Inten    --     29.2875                35.9829                 7.4465

                     13                     14                     15
                      A                      A                      A
 Frequencies --    296.3048               304.8649               353.6449
 Red. masses --      7.2653                 6.0150                10.8377
 Frc consts  --      0.3758                 0.3294                 0.7986
 IR Inten    --      8.3048                 5.8576                 1.3184

                     16                     17                     18
                      A                      A                      A
 Frequencies --    380.8108               386.5070               410.0039
 Red. masses --     11.3663                 7.5911                 6.5421
 Frc consts  --      0.9712                 0.6681                 0.6480
 IR Inten    --      2.8746                32.2947                 0.5681

                     19                     20                     21
                      A                      A                      A
 Frequencies --    429.3461               430.9469               441.4915
 Red. masses --      9.6870                 6.0531                 3.9928
 Frc consts  --      1.0521                 0.6623                 0.4585
 IR Inten    --     21.7914                 2.8736                 4.0447

                     22                     23                     24
                      A                      A                      A
 Frequencies --    479.5202               489.3232               504.1148
 Red. masses --     11.5966                10.6473                 6.6548
 Frc consts  --      1.5711                 1.5020                 0.9964
 IR Inten    --     18.1344                 6.0750                25.5765

                     25                     26                     27
                      A                      A                      A
 Frequencies --    515.7528               525.1170               565.7750
 Red. masses --      8.3758                 1.2928                 5.3550
 Frc consts  --      1.3127                 0.2100                 1.0099
 IR Inten    --     63.9395                52.4928                 0.9547

                     28                     29                     30
                      A                      A                      A
 Frequencies --    582.9977               590.5138               628.4405
 Red. masses --      9.2314                 5.3775                12.0424
 Frc consts  --      1.8486                 1.1048                 2.8022
 IR Inten    --    106.1482                38.6252               192.2296

                     31                     32                     33
                      A                      A                      A
 Frequencies --    653.9795               671.2960               676.7922
 Red. masses --      7.2395                 6.6120                 6.5650
 Frc consts  --      1.8243                 1.7555                 1.7717
 IR Inten    --      0.5381                10.7611                25.1805

                     34                     35                     36
                      A                      A                      A
 Frequencies --    722.7331               724.9697               742.3220
 Red. masses --      5.8320                 6.2967                 7.1040
 Frc consts  --      1.7948                 1.9499                 2.3064
 IR Inten    --     18.8341                56.2248                 5.2051

                     37                     38                     39
                      A                      A                      A
 Frequencies --    770.3757               798.5896               854.9106
 Red. masses --      7.8409                 7.0846                 1.1710
 Frc consts  --      2.7417                 2.6620                 0.5042
 IR Inten    --     71.5019                 6.3784                54.3014

                     40                     41                     42
                      A                      A                      A
 Frequencies --    860.7584               901.5476               904.8336
 Red. masses --      5.2256                 1.3365                 6.8154
 Frc consts  --      2.2811                 0.6400                 3.2876
 IR Inten    --    131.2540                29.9895                66.1589

                     43                     44                     45
                      A                      A                      A
 Frequencies --    913.4341               921.0357               942.5149
 Red. masses --      1.4292                 1.4463                13.5651
 Frc consts  --      0.7026                 0.7229                 7.0999
 IR Inten    --     78.6943                 7.2351               293.0614

                     46                     47                     48
                      A                      A                      A
 Frequencies --   1020.4073              1042.1702              1052.7580
 Red. masses --      5.2657                 2.1799                 6.6107
 Frc consts  --      3.2304                 1.3950                 4.3167
 IR Inten    --     52.2041               160.1780                90.0404

                     49                     50                     51
                      A                      A                      A
 Frequencies --   1076.5620              1087.9859              1107.1114
 Red. masses --      1.3064                16.6302                 2.0083
 Frc consts  --      0.8921                11.5983                 1.4503
 IR Inten    --      2.3091               247.4459               264.1805

                     52                     53                     54
                      A                      A                      A
 Frequencies --   1141.8744              1171.2646              1179.1489
 Red. masses --      1.7015                 2.4558                 6.3095
 Frc consts  --      1.3071                 1.9850                 5.1687
 IR Inten    --     32.0543                77.6799               191.3047

                     55                     56                     57
                      A                      A                      A
 Frequencies --   1203.6831              1211.4688              1233.6314
 Red. masses --      2.1720                 2.1199                 1.2709
 Frc consts  --      1.8541                 1.8331                 1.1395
 IR Inten    --    193.5715               188.4060              4097.4685

                     58                     59                     60
                      A                      A                      A
 Frequencies --   1235.6698              1256.0364              1298.2149
 Red. masses --      2.7492                 3.1756                 3.3105
 Frc consts  --      2.4732                 2.9518                 3.2873
 IR Inten    --    226.1489               140.8460                29.0183

                     61                     62                     63
                      A                      A                      A
 Frequencies --   1322.0248              1356.5722              1368.5457
 Red. masses --      5.4912                10.4099                 2.7698
 Frc consts  --      5.6546                11.2871                 3.0564
 IR Inten    --     81.2702                 6.2532                44.9578

                     64                     65                     66
                      A                      A                      A
 Frequencies --   1408.2318              1436.4271              1464.8641
 Red. masses --      3.6330                 2.3393                 2.4183
 Frc consts  --      4.2448                 2.8438                 3.0574
 IR Inten    --    161.5004               186.6255               250.9688

                     67                     68                     69
                      A                      A                      A
 Frequencies --   1474.3202              1496.4544              1513.0409
 Red. masses --      2.9266                 2.8757                 6.9371
 Frc consts  --      3.7480                 3.7942                 9.3568
 IR Inten    --      2.9083                42.3674                75.0117

                     70                     71                     72
                      A                      A                      A
 Frequencies --   1537.9194              1571.1881              1597.0419
 Red. masses --      5.2193                 2.6084                 7.3846
 Frc consts  --      7.2733                 3.7939                11.0971
 IR Inten    --     69.9663               154.8373               152.3611

                     73                     74                     75
                      A                      A                      A
 Frequencies --   1618.9782              1630.5363              3102.0025
 Red. masses --      5.3566                 4.8708                 1.0710
 Frc consts  --      8.2722                 7.6297                 6.0719
 IR Inten    --    323.6299                25.8419              1068.8476

                     76                     77                     78
                      A                      A                      A
 Frequencies --   3109.0920              3120.4611              3172.2309
 Red. masses --      1.0878                 1.0922                 1.0905
 Frc consts  --      6.1956                 6.2660                 6.4653
 IR Inten    --   1032.7000               256.7829                 6.5741

                     79                     80                     81
                      A                      A                      A
 Frequencies --   3174.2369              3203.6626              3716.2012
 Red. masses --      1.0903                 1.0890                 1.0642
 Frc consts  --      6.4726                 6.5851                 8.6591
 IR Inten    --     15.7061                 2.4325                73.4659

 - Thermochemistry -
 -------------------
 Temperature   298.150 Kelvin.  Pressure   1.00000 Atm.
 Atom     1 has atomic number  8 and mass  15.99491

 Molecular mass:   318.99125 amu.
 Principal axes and moments of inertia in atomic units:
                           1         2         3
     Eigenvalues --  3123.85462********************
           X            0.99394  -0.10512  -0.03221
           Y            0.09958   0.98492  -0.14150
           Z            0.04660   0.13743   0.98941
 This molecule is an asymmetric top.
 Rotational symmetry number  1.
 Warning -- assumption of classical behavior for rotation
           may cause significant error
 Rotational temperatures (Kelvin)      0.02773     0.00759     0.00611
 Rotational constants (GHZ):           0.57773     0.15815     0.12727
 Zero-point vibrational energy     496036.4 (Joules/Mol)
                                  118.55554 (Kcal/Mol)
 Warning -- explicit consideration of  29 degrees of freedom as
           vibrations may cause significant error
 Vibrational temperatures:     44.85    54.63    77.46   154.52   175.70
          (Kelvin)            186.73   198.80   284.23   295.83   362.22
                              397.38   419.65   426.32   438.63   508.82
                              547.90   556.10   589.90   617.73   620.04
                              635.21   689.92   704.03   725.31   742.05
                              755.53   814.02   838.80   849.62   904.19
                              940.93   965.85   973.75  1039.85  1043.07
                             1068.04  1108.40  1148.99  1230.03  1238.44
                             1297.13  1301.85  1314.23  1325.16  1356.07
                             1468.14  1499.45  1514.68  1548.93  1565.37
                             1592.89  1642.90  1685.19  1696.53  1731.83
                             1743.03  1774.92  1777.85  1807.16  1867.84
                             1902.10  1951.80  1969.03  2026.13  2066.70
                             2107.61  2121.22  2153.06  2176.93  2212.72
                             2260.59  2297.79  2329.35  2345.98  4463.09
                             4473.29  4489.65  4564.13  4567.02  4609.36
                             5346.78

 Zero-point correction=                           0.188930 (Hartree/Particle)
 Thermal correction to Energy=                    0.205942
 Thermal correction to Enthalpy=                  0.206886
 Thermal correction to Gibbs Free Energy=         0.143426
 Sum of electronic and zero-point Energies=          -1462.480737
 Sum of electronic and thermal Energies=             -1462.463725
 Sum of electronic and thermal Enthalpies=           -1462.462781
 Sum of electronic and thermal Free Energies=        -1462.526242

                     E (Thermal)             CV                S
                      KCal/Mol        Cal/Mol-Kelvin    Cal/Mol-Kelvin
 Total                  129.231             67.111            133.564
 Electronic               0.000              0.000              0.000
 Translational            0.889              2.981             43.176
 Rotational               0.889              2.981             34.579
 Vibrational            127.453             61.150             55.809
 Vibration     1          0.594              1.983              5.753
 Vibration     2          0.594              1.982              5.362
 Vibration     3          0.596              1.976              4.671
 Vibration     4          0.606              1.943              3.315
 Vibration     5          0.610              1.931              3.067
 Vibration     6          0.612              1.924              2.949
 Vibration     7          0.614              1.915              2.829
 Vibration     8          0.637              1.843              2.156
 Vibration     9          0.640              1.832              2.082
 Vibration    10          0.664              1.760              1.718
 Vibration    11          0.678              1.717              1.557
 Vibration    12          0.687              1.689              1.464
 Vibration    13          0.690              1.681              1.438
 Vibration    14          0.696              1.664              1.390
 Vibration    15          0.730              1.568              1.150
 Vibration    16          0.751              1.511              1.036
 Vibration    17          0.755              1.499              1.014
 Vibration    18          0.774              1.449              0.927
 Vibration    19          0.791              1.406              0.861
 Vibration    20          0.792              1.403              0.856
 Vibration    21          0.801              1.380              0.822
 Vibration    22          0.836              1.295              0.711
 Vibration    23          0.845              1.274              0.685
 Vibration    24          0.859              1.241              0.648
 Vibration    25          0.871              1.215              0.620
 Vibration    26          0.880              1.194              0.598
 Vibration    27          0.922              1.105              0.512
 Vibration    28          0.940              1.068              0.480
 Vibration    29          0.948              1.052              0.466

 Optimization completed.
    -- Stationary point found.
 Normal termination of Gaussian 16 at Fri Dec 22 03:31:59 2023.
