 Gaussian 16, Revision A.03,
 Gaussian 16:  ES64L-G16RevA.03 25-Dec-2016

 ----------------------------------------------------------------------
 #P UB3LYP/6-311++G(d,p) nosym opt freq SCRF=(PCM,Solvent=n,n-DiMethylF
 ormamide)
 ----------------------------------------------------------------------

 --------
 Oxidized
 --------
 Symbolic Z-matrix:
 Charge =  0 Multiplicity = 1

 SCF Done:  E(UB3LYP) =  -1451.32540571     A.U. after   16 cycles
 SCF Done:  E(UB3LYP) =  -1451.32553504     A.U. after   12 cycles
 SCF Done:  E(UB3LYP) =  -1451.32554390     A.U. after   12 cycles
 SCF Done:  E(UB3LYP) =  -1451.32553820     A.U. after   12 cycles
 SCF Done:  E(UB3LYP) =  -1451.32555218     A.U. after   12 cycles
 Optimization completed.
    -- Stationary point found.
 Normal termination of Gaussian 16 at Sat Feb 10 10:47:11 2024.

 ----------------------------------------------------------------------
 #P Geom=AllCheck Guess=TCheck SCRF=Check GenChk UB3LYP/6-311++G(d,p) F
 req
 ----------------------------------------------------------------------

 Structure from the checkpoint file:  "112.chk"
 --------
 Oxidized
 --------
 Charge =  0 Multiplicity = 1

                          Input orientation:
 ---------------------------------------------------------------------
 Center     Atomic      Atomic             Coordinates (Angstroms)
 Number     Number       Type             X           Y           Z
 ---------------------------------------------------------------------
      1          8           0        2.546161   -0.975272   -0.251204
      2          6           0        1.352254   -0.425859   -0.125798
      3          6           0        1.150849    0.907199   -0.006579
      4         17           0        2.465359    2.038454   -0.007551
      5          6           0       -0.201323    1.417461    0.125660
      6          8           0       -0.502708    2.595538    0.237941
      7          6           0       -1.352258    0.425861    0.125797
      8          6           0       -1.150852   -0.907197    0.006588
      9         17           0       -2.465360   -2.038454    0.007558
     10          6           0        0.201322   -1.417457   -0.125652
     11          8           0        0.502719   -2.595535   -0.237886
     12          8           0       -2.546169    0.975266    0.251178
     13          1           0        2.413854   -1.943132   -0.318310
     14          1           0       -2.413847    1.943124    0.318259
 ---------------------------------------------------------------------

 SCF Done:  E(UB3LYP) =  -1451.32555218     A.U. after    1 cycles

 Alpha  occ. eigenvalues -- -101.58155-101.58155 -19.20770 -19.20769 -19.16788
 Alpha  occ. eigenvalues --  -19.16788 -10.31831 -10.31830 -10.30392 -10.30391
 Alpha  occ. eigenvalues --  -10.26831 -10.26830  -9.49579  -9.49578  -7.26079
 Alpha  occ. eigenvalues --   -7.26079  -7.25054  -7.25054  -7.24995  -7.24995
 Alpha  occ. eigenvalues --   -1.14000  -1.13740  -1.09213  -1.09090  -0.92188
 Alpha  occ. eigenvalues --   -0.90483  -0.84433  -0.77630  -0.72876  -0.67570
 Alpha  occ. eigenvalues --   -0.63807  -0.62352  -0.57375  -0.56672  -0.50631
 Alpha  occ. eigenvalues --   -0.49842  -0.49739  -0.48245  -0.48085  -0.46825
 Alpha  occ. eigenvalues --   -0.44432  -0.43191  -0.41640  -0.41471  -0.37515
 Alpha  occ. eigenvalues --   -0.37082  -0.34870  -0.34349  -0.32681  -0.32117
 Alpha  occ. eigenvalues --   -0.29640  -0.26398
 Alpha virt. eigenvalues --   -0.14981  -0.02911  -0.02509  -0.01795  -0.00589
 Alpha virt. eigenvalues --    0.00621   0.00977   0.02716   0.03397   0.04544
 Alpha virt. eigenvalues --    0.05196   0.05348   0.06757   0.07725   0.08197

  Beta  occ. eigenvalues -- -101.58155-101.58155 -19.20770 -19.20769 -19.16788
  Beta  occ. eigenvalues --  -19.16788 -10.31831 -10.31830 -10.30392 -10.30391
  Beta  occ. eigenvalues --  -10.26831 -10.26830  -9.49579  -9.49578  -7.26079
  Beta  occ. eigenvalues --   -7.26079  -7.25054  -7.25054  -7.24995  -7.24995
  Beta  occ. eigenvalues --   -1.14000  -1.13740  -1.09213  -1.09090  -0.92188
  Beta  occ. eigenvalues --   -0.90483  -0.84433  -0.77630  -0.72876  -0.67570
  Beta  occ. eigenvalues --   -0.63807  -0.62352  -0.57375  -0.56672  -0.50631
  Beta  occ. eigenvalues --   -0.49842  -0.49739  -0.48245  -0.48085  -0.46825
  Beta  occ. eigenvalues --   -0.44432  -0.43191  -0.41640  -0.41471  -0.37515
  Beta  occ. eigenvalues --   -0.37082  -0.34870  -0.34349  -0.32681  -0.32117
  Beta  occ. eigenvalues --   -0.29640  -0.26398
  Beta virt. eigenvalues --   -0.14981  -0.02911  -0.02509  -0.01795  -0.00589
  Beta virt. eigenvalues --    0.00621   0.00977   0.02716   0.03397   0.04544
  Beta virt. eigenvalues --    0.05196   0.05348   0.06757   0.07725   0.08197

 Mulliken charges and spin densities:
               1          2
     1  O   -0.154577  -0.000000
     2  C   -1.297889   0.000000
     3  C    2.047925  -0.000000
     4  Cl   0.259569   0.000000
     5  C   -0.899774  -0.000000
     6  O   -0.273846   0.000000
     7  C   -1.297876   0.000000
     8  C    2.047926  -0.000000
     9  Cl   0.259569   0.000000
    10  C   -0.899782   0.000000
    11  O   -0.273849  -0.000000
    12  O   -0.154572  -0.000000
    13  H    0.318589   0.000000
    14  H    0.318587  -0.000000
 Sum of Mulliken charges =   0.00000  -0.00000

 Dipole moment (field-independent basis, Debye):
    X=             -0.0000    Y=             -0.0000    Z=             -0.0001  Tot=              0.0001
 Quadrupole moment (field-independent basis, Debye-Ang):
   XX=            -83.7328   YY=            -91.3371   ZZ=            -79.6932
   XY=             -7.7131   XZ=             -0.3329   YZ=             -0.3809

  Exact polarizability: 164.797  -5.975 229.693  -6.789  12.808  73.638
 Approx polarizability: 183.479 -34.040 314.935  -9.445  20.455  86.762

                      1                      2                      3
                      A                      A                      A
 Frequencies --     71.4736                99.3625               124.8891
 Red. masses --     19.4308                12.6617                14.9839
 Frc consts  --      0.0585                 0.0737                 0.1377
 IR Inten    --      0.0205                 4.0627                 0.0000

                      4                      5                      6
                      A                      A                      A
 Frequencies --    192.4394               192.5694               215.9766
 Red. masses --     10.7678                16.4275                13.8710
 Frc consts  --      0.2349                 0.3589                 0.3812
 IR Inten    --      2.7816                 1.1549                 0.0000

                      7                      8                      9
                      A                      A                      A
 Frequencies --    276.4784               308.0096               317.2974
 Red. masses --     12.6448                11.4352                 6.1134
 Frc consts  --      0.5695                 0.6392                 0.3626
 IR Inten    --      0.0000                 0.0000                53.1024

                     10                     11                     12
                      A                      A                      A
 Frequencies --    368.8561               382.5210               410.1900
 Red. masses --      8.0810                12.5756                13.2450
 Frc consts  --      0.6478                 1.0842                 1.3130
 IR Inten    --      0.0000                62.8776                 0.0000

                     13                     14                     15
                      A                      A                      A
 Frequencies --    507.1759               530.6457               555.0253
 Red. masses --     12.3036                12.8495                15.5868
 Frc consts  --      1.8647                 2.1318                 2.8290
 IR Inten    --      0.0000                 0.0000                33.9794

                     16                     17                     18
                      A                      A                      A
 Frequencies --    593.9606               650.2359               654.3117
 Red. masses --      8.0869                 1.1609                 1.0700
 Frc consts  --      1.6809                 0.2892                 0.2699
 IR Inten    --     78.0659               238.6443                 0.0027

                     19                     20                     21
                      A                      A                      A
 Frequencies --    753.0687               765.7722               781.4119
 Red. masses --      9.2361                12.0812                 7.0522
 Frc consts  --      3.0861                 4.1741                 2.5371
 IR Inten    --     30.3745                 0.0000                 0.0000

                     22                     23                     24
                      A                      A                      A
 Frequencies --    839.1414               898.0508               979.8395
 Red. masses --      8.7460                12.0183                 7.3909
 Frc consts  --      3.6285                 5.7108                 4.1808
 IR Inten    --    195.0782                 0.0000               271.7495

                     25                     26                     27
                      A                      A                      A
 Frequencies --   1229.1762              1231.3102              1272.7097
 Red. masses --      3.7584                 2.6652                 6.7790
 Frc consts  --      3.3456                 2.3807                 6.4696
 IR Inten    --    280.2641                 0.0007                 0.0000

                     28                     29                     30
                      A                      A                      A
 Frequencies --   1316.7264              1352.5482              1372.9492
 Red. masses --      2.3294                 5.4034                 2.4030
 Frc consts  --      2.3795                 5.8240                 2.6688
 IR Inten    --   1141.5264              1129.6406                 0.0000

                     31                     32                     33
                      A                      A                      A
 Frequencies --   1657.8339              1672.9798              1701.9902
 Red. masses --      6.5645                10.3427                12.6436
 Frc consts  --     10.6300                17.0555                21.5791
 IR Inten    --   1185.5992                 0.0000               527.1538

                     34                     35                     36
                      A                      A                      A
 Frequencies --   1719.2596              3576.7603              3580.4215
 Red. masses --      9.6995                 1.0643                 1.0645
 Frc consts  --     16.8921                 8.0225                 8.0403
 IR Inten    --      0.0000                 0.0046               652.3976

 - Thermochemistry -
 -------------------
 Temperature   298.150 Kelvin.  Pressure   1.00000 Atm.
 Atom     1 has atomic number  8 and mass  15.99491

 Molecular mass:   207.93301 amu.
 Principal axes and moments of inertia in atomic units:
                           1         2         3
     Eigenvalues --  1590.351503231.394104821.74529
           X            0.78842  -0.61138   0.06788
           Y            0.61511   0.78454  -0.07833
           Z           -0.00536   0.10350   0.99461
 This molecule is an asymmetric top.
 Rotational symmetry number  1.
 Warning -- assumption of classical behavior for rotation
           may cause significant error
 Rotational temperatures (Kelvin)      0.05446     0.02680     0.01796
 Rotational constants (GHZ):           1.13481     0.55850     0.37429
 Zero-point vibrational energy     198301.2 (Joules/Mol)
                                   47.39512 (Kcal/Mol)
 Warning -- explicit consideration of  16 degrees of freedom as
           vibrations may cause significant error
 Vibrational temperatures:    102.83   142.96   179.69   276.88   277.06
          (Kelvin)            310.74   397.79   443.16   456.52   530.70
                              550.36   590.17   729.71   763.48   798.56
                              854.58   935.54   941.41  1083.50  1101.78
                             1124.28  1207.34  1292.09  1409.77  1768.51
                             1771.58  1831.15  1894.48  1946.02  1975.37
                             2385.25  2407.04  2448.78  2473.63  5146.16
                             5151.43

 Zero-point correction=                           0.075529 (Hartree/Particle)
 Thermal correction to Energy=                    0.086029
 Thermal correction to Enthalpy=                  0.086973
 Thermal correction to Gibbs Free Energy=         0.038484
 Sum of electronic and zero-point Energies=          -1451.250023
 Sum of electronic and thermal Energies=             -1451.239523
 Sum of electronic and thermal Enthalpies=           -1451.238579
 Sum of electronic and thermal Free Energies=        -1451.287069

                     E (Thermal)             CV                S
                      KCal/Mol        Cal/Mol-Kelvin    Cal/Mol-Kelvin
 Total                   53.984             37.949            102.055
 Electronic               0.000              0.000              0.000
 Translational            0.889              2.981             41.900
 Rotational               0.889              2.981             31.583
 Vibrational             52.206             31.987             28.572
 Vibration     1          0.598              1.968              4.112
 Vibration     2          0.604              1.950              3.467
 Vibration     3          0.610              1.928              3.023
 Vibration     4          0.634              1.850              2.204
 Vibration     5          0.635              1.850              2.203
 Vibration     6          0.645              1.817              1.993
 Vibration     7          0.678              1.717              1.555
 Vibration     8          0.698              1.658              1.373
 Vibration     9          0.704              1.641              1.324
 Vibration    10          0.741              1.536              1.085
 Vibration    11          0.752              1.507              1.029
 Vibration    12          0.774              1.448              0.926
 Vibration    13          0.862              1.234              0.640
 Vibration    14          0.886              1.182              0.586
 Vibration    15          0.910              1.129              0.534
 Vibration    16          0.952              1.045              0.460

 Optimization completed.
    -- Stationary point found.
 Normal termination of Gaussian 16 at Sat Feb 10 10:52:57 2024.
