 Gaussian 16, Revision A.03,
 Gaussian 16:  ES64L-G16RevA.03 25-Dec-2016

 ----------------------------------------------------------------
 #P UB3LYP/6-311++G(d,p) SCRF=(PCM,Solvent=n,n-DiMethylFormamide)
 ----------------------------------------------------------------

 -------
 Reduced
 -------
 Symbolic Z-matrix:
 Charge = -2 Multiplicity = 1

                         Standard orientation:
 ---------------------------------------------------------------------
 Center     Atomic      Atomic             Coordinates (Angstroms)
 Number     Number       Type             X           Y           Z
 ---------------------------------------------------------------------
      1          6           0       -3.202239   -1.390339    0.000121
      2          6           0       -4.405391   -0.708441    0.000322
      3          6           0       -4.405408    0.708407    0.000243
      4          6           0       -1.957435   -0.718398   -0.000101
      5          6           0       -1.957444    0.718451   -0.000216
      6          6           0       -3.202274    1.390349   -0.000061
      7          6           0       -0.731690   -1.521908   -0.000138
      8          6           0        0.433036   -0.712818   -0.000142
      9          6           0        0.433041    0.712854   -0.000213
     10          6           0       -0.731690    1.521950   -0.000319
     11          8           0       -0.760564   -2.803034   -0.000051
     12          8           0       -0.760536    2.803074   -0.000450
     13          1           0       -3.160927   -2.475126    0.000169
     14          1           0       -3.160973    2.475135   -0.000155
     15         35           0        2.107826   -1.716852   -0.000031
     16         35           0        2.107856    1.716826    0.000206
     17          1           0       -5.346600   -1.256289    0.000518
     18          1           0       -5.346633    1.256228    0.000359
 ---------------------------------------------------------------------

 SCF Done:  E(UB3LYP) =  -5682.60979717     A.U. after   17 cycles

 The electronic state is 1-A.
 Alpha  occ. eigenvalues -- -482.80535-482.80534 -62.45809 -62.45809 -56.27819
 Alpha  occ. eigenvalues --  -56.27819 -56.27482 -56.27482 -56.27451 -56.27451
 Alpha  occ. eigenvalues --  -19.02698 -19.02697 -10.19002 -10.19001 -10.18774
 Alpha  occ. eigenvalues --  -10.18732 -10.15759 -10.15713 -10.15278 -10.15277
 Alpha  occ. eigenvalues --  -10.15206 -10.15169  -8.66767  -8.66766  -6.49815
 Alpha  occ. eigenvalues --   -6.49815  -6.48697  -6.48696  -6.48605  -6.48605
 Alpha  occ. eigenvalues --   -2.60925  -2.60924  -2.60621  -2.60620  -2.60552
 Alpha  occ. eigenvalues --   -2.60551  -2.59661  -2.59661  -2.59660  -2.59660
 Alpha  occ. eigenvalues --   -0.94985  -0.94612  -0.83597  -0.81169  -0.76325
 Alpha  occ. eigenvalues --   -0.75180  -0.73078  -0.69051  -0.64968  -0.58583
 Alpha  occ. eigenvalues --   -0.57933  -0.53477  -0.48917  -0.46937  -0.44031
 Alpha  occ. eigenvalues --   -0.42604  -0.40580  -0.39005  -0.38593  -0.37961
 Alpha  occ. eigenvalues --   -0.36694  -0.35629  -0.33847  -0.33664  -0.32761
 Alpha  occ. eigenvalues --   -0.31614  -0.29348  -0.28456  -0.28014  -0.25591
 Alpha  occ. eigenvalues --   -0.23545  -0.23353  -0.21541  -0.21024  -0.20428
 Alpha  occ. eigenvalues --   -0.12585
 Alpha virt. eigenvalues --   -0.01881  -0.01189  -0.00108   0.00290   0.01574
 Alpha virt. eigenvalues --    0.01756   0.02139   0.03546   0.04363   0.04423
 Alpha virt. eigenvalues --    0.05171   0.05861   0.06119   0.06124   0.06978

  Beta  occ. eigenvalues -- -482.80535-482.80534 -62.45809 -62.45809 -56.27819
  Beta  occ. eigenvalues --  -56.27819 -56.27482 -56.27482 -56.27451 -56.27451
  Beta  occ. eigenvalues --  -19.02698 -19.02697 -10.19002 -10.19001 -10.18774
  Beta  occ. eigenvalues --  -10.18732 -10.15759 -10.15713 -10.15278 -10.15277
  Beta  occ. eigenvalues --  -10.15206 -10.15169  -8.66767  -8.66766  -6.49815
  Beta  occ. eigenvalues --   -6.49815  -6.48697  -6.48696  -6.48605  -6.48605
  Beta  occ. eigenvalues --   -2.60925  -2.60924  -2.60621  -2.60620  -2.60552
  Beta  occ. eigenvalues --   -2.60551  -2.59661  -2.59661  -2.59660  -2.59660
  Beta  occ. eigenvalues --   -0.94985  -0.94612  -0.83597  -0.81169  -0.76325
  Beta  occ. eigenvalues --   -0.75180  -0.73078  -0.69051  -0.64968  -0.58583
  Beta  occ. eigenvalues --   -0.57933  -0.53477  -0.48917  -0.46937  -0.44031
  Beta  occ. eigenvalues --   -0.42604  -0.40580  -0.39005  -0.38593  -0.37961
  Beta  occ. eigenvalues --   -0.36694  -0.35629  -0.33847  -0.33664  -0.32761
  Beta  occ. eigenvalues --   -0.31614  -0.29348  -0.28456  -0.28014  -0.25591
  Beta  occ. eigenvalues --   -0.23545  -0.23353  -0.21541  -0.21024  -0.20428
  Beta  occ. eigenvalues --   -0.12585
  Beta virt. eigenvalues --   -0.01881  -0.01189  -0.00108   0.00290   0.01574
  Beta virt. eigenvalues --    0.01756   0.02139   0.03546   0.04363   0.04423
  Beta virt. eigenvalues --    0.05171   0.05861   0.06119   0.06124   0.06978

 Mulliken charges and spin densities:
               1          2
     1  C    0.097576  -0.000000
     2  C   -0.424434   0.000000
     3  C   -0.424422  -0.000000
     4  C    0.469760   0.000000
     5  C    0.469703  -0.000000
     6  C    0.097533  -0.000000
     7  C   -1.095977  -0.000000
     8  C    0.438136   0.000000
     9  C    0.438196  -0.000000
    10  C   -1.095950   0.000000
    11  O   -0.597233   0.000000
    12  O   -0.597238  -0.000000
    13  H    0.151784  -0.000000
    14  H    0.151780   0.000000
    15  Br  -0.209618   0.000000
    16  Br  -0.209613  -0.000000
    17  H    0.170010   0.000000
    18  H    0.170011  -0.000000
 Sum of Mulliken charges =  -2.00000  -0.00000

 Dipole moment (field-independent basis, Debye):
    X=              2.5433    Y=             -0.0001    Z=              0.0017  Tot=              2.5433
 Quadrupole moment (field-independent basis, Debye-Ang):
   XX=           -133.0251   YY=           -172.8380   ZZ=           -116.5470
   XY=              0.0002   XZ=             -0.0018   YZ=              0.0033

 Normal termination of Gaussian 16 at Sun Jan 21 08:44:39 2024.
