 Q-Chem 5.4, Q-Chem, Inc., Pleasanton, CA (2021)
 Q-Chem 5.4.0 for Intel X86 EM64T Linux

User input:
--------------------------------------------------------------
$molecule
-2 1
C                 -0.3460170000      3.7997990000     -0.1498220000
C                 -1.5568550000      3.1935790000     -0.4219100000
C                 -1.5937440000      1.8384720000     -0.8340190000
C                  0.8788170000      3.0960630000     -0.2725480000
C                  0.8426150000      1.7172940000     -0.6940510000
C                 -0.4080840000      1.1311600000     -0.9625320000
C                  2.1295050000      3.7350160000      0.0151880000
C                  3.2981520000      2.9234350000     -0.1443420000
C                  3.3059900000      1.5914400000     -0.5427960000
C                  2.0672960000      0.9206250000     -0.8462360000
O                  2.2895200000      4.9620810000      0.4023750000
O                  2.0302600000     -0.2972040000     -1.2192490000
H                 -0.2940640000      4.8364140000      0.1675280000
H                 -2.4827060000      3.7561190000     -0.3203870000
H                 -2.5454600000      1.3586010000     -1.0492970000
H                 -0.4026690000      0.0926230000     -1.2780450000
O                  4.4607240000      3.5967650000      0.1492170000
C                  4.5957770000      0.8190520000     -0.6606990000
C                  5.1973090000      0.8153220000     -2.0810560000
C                  6.4937450000      0.0017250000     -2.1854480000
C                  7.1215640000     -0.0083340000     -3.5856920000
C                  8.4233920000     -0.8153220000     -3.6794910000
H                  4.0905540000      4.4798560000      0.3936620000
H                  4.3938070000     -0.2198790000     -0.3755980000
H                  5.3366670000      1.2316760000      0.0340910000
H                  5.3893830000      1.8503850000     -2.3895170000
H                  4.4487920000      0.4084000000     -2.7695920000
H                  6.2933860000     -1.0328160000     -1.8745160000
H                  7.2270840000      0.3976240000     -1.4683710000
H                  7.3155860000      1.0259580000     -3.9003280000
H                  6.3940970000     -0.4106570000     -4.3030970000
H                  8.2291650000     -1.8503220000     -3.3672540000
H                  9.1480970000     -0.4145750000     -2.9577410000
C                  9.0592150000     -0.8230240000     -5.0761980000
H                  9.2511890000      0.2117720000     -5.3901940000
H                  8.3380140000     -1.2282170000     -5.7985100000
C                 10.3638560000     -1.6256660000     -5.1614050000
H                 10.1739930000     -2.6610390000     -4.8487660000
H                 11.0862280000     -1.2214550000     -4.4398570000
C                 11.0017830000     -1.6334870000     -6.5569980000
C                 12.3035050000     -2.4371060000     -6.6364470000
H                 11.1939670000     -0.5993510000     -6.8705800000
H                 10.2811090000     -2.0373480000     -7.2796270000
H                 13.0647110000     -2.0362660000     -5.9570980000
H                 12.7307620000     -2.4222920000     -7.6448040000
H                 12.1438230000     -3.4879880000     -6.3685860000
$end

$rem
BASIS  =  6-311++G(d,p)
GUI  =  2
JOB_TYPE  =  SP
METHOD  =  B3LYP
SCF_CONVERGENCE  = 8
SOLVENT_METHOD = sm12
$end

$smx
solvent dimethylformamide
charges CM5
$end

--------------------------------------------------------------

             Standard Nuclear Orientation (Angstroms)
    I     Atom           X                Y                Z
 ----------------------------------------------------------------
    1      C      -0.3460170000     3.7997990000    -0.1498220000
    2      C      -1.5568550000     3.1935790000    -0.4219100000
    3      C      -1.5937440000     1.8384720000    -0.8340190000
    4      C       0.8788170000     3.0960630000    -0.2725480000
    5      C       0.8426150000     1.7172940000    -0.6940510000
    6      C      -0.4080840000     1.1311600000    -0.9625320000
    7      C       2.1295050000     3.7350160000     0.0151880000
    8      C       3.2981520000     2.9234350000    -0.1443420000
    9      C       3.3059900000     1.5914400000    -0.5427960000
   10      C       2.0672960000     0.9206250000    -0.8462360000
   11      O       2.2895200000     4.9620810000     0.4023750000
   12      O       2.0302600000    -0.2972040000    -1.2192490000
   13      H      -0.2940640000     4.8364140000     0.1675280000
   14      H      -2.4827060000     3.7561190000    -0.3203870000
   15      H      -2.5454600000     1.3586010000    -1.0492970000
   16      H      -0.4026690000     0.0926230000    -1.2780450000
   17      O       4.4607240000     3.5967650000     0.1492170000
   18      C       4.5957770000     0.8190520000    -0.6606990000
   19      C       5.1973090000     0.8153220000    -2.0810560000
   20      C       6.4937450000     0.0017250000    -2.1854480000
   21      C       7.1215640000    -0.0083340000    -3.5856920000
   22      C       8.4233920000    -0.8153220000    -3.6794910000
   23      H       4.0905540000     4.4798560000     0.3936620000
   24      H       4.3938070000    -0.2198790000    -0.3755980000
   25      H       5.3366670000     1.2316760000     0.0340910000
   26      H       5.3893830000     1.8503850000    -2.3895170000
   27      H       4.4487920000     0.4084000000    -2.7695920000
   28      H       6.2933860000    -1.0328160000    -1.8745160000
   29      H       7.2270840000     0.3976240000    -1.4683710000
   30      H       7.3155860000     1.0259580000    -3.9003280000
   31      H       6.3940970000    -0.4106570000    -4.3030970000
   32      H       8.2291650000    -1.8503220000    -3.3672540000
   33      H       9.1480970000    -0.4145750000    -2.9577410000
   34      C       9.0592150000    -0.8230240000    -5.0761980000
   35      H       9.2511890000     0.2117720000    -5.3901940000
   36      H       8.3380140000    -1.2282170000    -5.7985100000
   37      C      10.3638560000    -1.6256660000    -5.1614050000
   38      H      10.1739930000    -2.6610390000    -4.8487660000
   39      H      11.0862280000    -1.2214550000    -4.4398570000
   40      C      11.0017830000    -1.6334870000    -6.5569980000
   41      C      12.3035050000    -2.4371060000    -6.6364470000
   42      H      11.1939670000    -0.5993510000    -6.8705800000
   43      H      10.2811090000    -2.0373480000    -7.2796270000
   44      H      13.0647110000    -2.0362660000    -5.9570980000
   45      H      12.7307620000    -2.4222920000    -7.6448040000
   46      H      12.1438230000    -3.4879880000    -6.3685860000
 ----------------------------------------------------------------

   17    -964.4121305896      9.43e-09  Convergence criterion met
 Total energy in the final basis set =     -964.6997246907

                    Orbital Energies (a.u.)
 --------------------------------------------------------------

 Alpha MOs
 -- Occupied --
-19.1192 -19.0294 -19.0234 -10.1872 -10.1831 -10.1711 -10.1707 -10.1660
-10.1656 -10.1654 -10.1653 -10.1645 -10.1643 -10.1639 -10.1636 -10.1633
-10.1606 -10.1581 -10.1575 -10.1477 -10.1449 -10.1347  -1.0326  -0.9461
 -0.9357  -0.8404  -0.8152  -0.7988  -0.7806  -0.7604  -0.7392  -0.7340
 -0.7052  -0.6714  -0.6430  -0.6245  -0.6001  -0.5890  -0.5790  -0.5750
 -0.5688  -0.5483  -0.5172  -0.4870  -0.4847  -0.4708  -0.4569  -0.4472
 -0.4406  -0.4344  -0.4332  -0.4235  -0.4199  -0.4096  -0.4061  -0.3954
 -0.3927  -0.3778  -0.3772  -0.3699  -0.3627  -0.3610  -0.3569  -0.3539
 -0.3474  -0.3433  -0.3332  -0.3319  -0.3263  -0.3253  -0.3235  -0.3229
 -0.3204  -0.3134  -0.3040  -0.3007  -0.2460  -0.2337  -0.2153  -0.2016
 -0.1988  -0.1132

          Ground-State Mulliken Net Atomic Charges

     Atom                 Charge (a.u.)
  ----------------------------------------
      1 C                    -0.320628
      2 C                     1.109099
      3 C                     1.025511
      4 C                    -1.864137
      5 C                    -1.975704
      6 C                    -0.449979
      7 C                    -1.990062
      8 C                    -0.115031
      9 C                     1.348123
     10 C                    -2.525775
     11 O                    -0.414191
     12 O                    -0.267457
     13 H                     0.103762
     14 H                     0.377012
     15 H                     0.350565
     16 H                     0.069732
     17 O                    -0.047489
     18 C                    -0.997462
     19 C                    -3.912642
     20 C                    -1.467181
     21 C                     0.525140
     22 C                     2.093595
     23 H                     0.314207
     24 H                     0.044378
     25 H                     0.156475
     26 H                     0.005107
     27 H                     0.032173
     28 H                     0.259622
     29 H                     0.266625
     30 H                     0.156580
     31 H                     0.137519
     32 H                     0.083233
     33 H                     0.084455
     34 C                     2.129078
     35 H                     0.118495
     36 H                     0.120847
     37 C                     1.830122
     38 H                     0.118674
     39 H                     0.119546
     40 C                     0.583358
     41 C                     0.032085
     42 H                     0.114258
     43 H                     0.113601
     44 H                     0.140624
     45 H                     0.244000
     46 H                     0.140137
  ----------------------------------------
  Sum of atomic charges =    -2.000000

                    Cartesian Multipole Moments
 -----------------------------------------------------------------
    Charge (ESU x 10^10)
                -9.6064
    Dipole Moment (Debye)
         X     -17.3303      Y     -22.1415      Z       4.3557
       Tot      28.4527
    Quadrupole Moments (Debye-Ang)
        XX    -215.3575     XY     -36.9389     YY    -243.6901
        XZ       8.5254     YZ      -3.2229     ZZ    -157.4959

 Total job time:  1992.21s(wall), 15471.04s(cpu)
        *  Thank you very much for using Q-Chem.  Have a nice day.  *
