 Q-Chem 5.4, Q-Chem, Inc., Pleasanton, CA (2021)
 Q-Chem 5.4.0 for Intel X86 EM64T Linux

User input:
--------------------------------------------------------------
$molecule
-2 1
C                 -0.9838140000      3.9160650000      0.0124000000
C                 -2.1563630000      3.1990840000      0.1474640000
C                 -2.1234930000      1.7747450000      0.1284960000
C                  0.2792900000      3.2862310000     -0.1452320000
C                  0.3096250000      1.8303670000     -0.1543480000
C                 -0.9110090000      1.1264900000     -0.0202230000
C                  1.4661630000      4.0828980000     -0.3025750000
C                  2.6856890000      3.3545340000     -0.4639090000
C                  2.7151860000      1.9465620000     -0.3975520000
C                  1.5492130000      1.1237320000     -0.2905170000
O                  1.4721610000      5.3863720000     -0.3176470000
O                  1.6638070000     -0.1790190000     -0.3379590000
N                  3.8259050000      4.1315230000     -0.7519920000
H                 -0.9830400000      5.0021930000      0.0180560000
H                 -3.1058730000      3.7200940000      0.2659850000
H                 -3.0447190000      1.2033840000      0.2322720000
H                 -0.8528780000      0.0417740000     -0.0358620000
H                  3.5810160000      5.0964110000     -0.5337010000
H                  4.6694580000      3.7965080000     -0.2946500000
N                  3.8607200000      1.1159460000     -0.5694630000
C                  5.1570290000      1.2094060000     -0.2399160000
C                  5.9628800000     -0.0633130000     -0.5163630000
H                  3.4665320000      0.1698120000     -0.7017810000
H                  5.3451720000     -0.9075350000     -0.8338440000
H                  6.5111680000     -0.3353630000      0.3915400000
H                  6.7044190000      0.1456330000     -1.2953490000
O                  5.7532320000      2.1947030000      0.2342010000
$end
$rem
MAX_SCF_CYCLES=200
BASIS  =  6-311++G(d,p)
GUI  =  2
JOB_TYPE  =  SP
METHOD  =  B3LYP
SOLVENT_METHOD = PCM
$end
$pcm
theory = CPCM
$end
$solvent
dielectric 37.219
opticaldielectric 1.43
$end

--------------------------------------------------------------

             Standard Nuclear Orientation (Angstroms)
    I     Atom           X                Y                Z
 ----------------------------------------------------------------
    1      C      -0.9838140000     3.9160650000     0.0124000000
    2      C      -2.1563630000     3.1990840000     0.1474640000
    3      C      -2.1234930000     1.7747450000     0.1284960000
    4      C       0.2792900000     3.2862310000    -0.1452320000
    5      C       0.3096250000     1.8303670000    -0.1543480000
    6      C      -0.9110090000     1.1264900000    -0.0202230000
    7      C       1.4661630000     4.0828980000    -0.3025750000
    8      C       2.6856890000     3.3545340000    -0.4639090000
    9      C       2.7151860000     1.9465620000    -0.3975520000
   10      C       1.5492130000     1.1237320000    -0.2905170000
   11      O       1.4721610000     5.3863720000    -0.3176470000
   12      O       1.6638070000    -0.1790190000    -0.3379590000
   13      N       3.8259050000     4.1315230000    -0.7519920000
   14      H      -0.9830400000     5.0021930000     0.0180560000
   15      H      -3.1058730000     3.7200940000     0.2659850000
   16      H      -3.0447190000     1.2033840000     0.2322720000
   17      H      -0.8528780000     0.0417740000    -0.0358620000
   18      H       3.5810160000     5.0964110000    -0.5337010000
   19      H       4.6694580000     3.7965080000    -0.2946500000
   20      N       3.8607200000     1.1159460000    -0.5694630000
   21      C       5.1570290000     1.2094060000    -0.2399160000
   22      C       5.9628800000    -0.0633130000    -0.5163630000
   23      H       3.4665320000     0.1698120000    -0.7017810000
   24      H       5.3451720000    -0.9075350000    -0.8338440000
   25      H       6.5111680000    -0.3353630000     0.3915400000
   26      H       6.7044190000     0.1456330000    -1.2953490000
   27      O       5.7532320000     2.1947030000     0.2342010000
 ----------------------------------------------------------------

    9    -798.9926130441      4.10e-06  Convergence criterion met
 Total energy in the final basis set =     -798.9926130441

                    Orbital Energies (a.u.)
 --------------------------------------------------------------

 Alpha MOs
 -- Occupied --
-19.0841 -19.0345 -19.0232 -14.3284 -14.2785 -10.2669 -10.1798 -10.1708
-10.1700 -10.1671 -10.1610 -10.1495 -10.1485 -10.1477 -10.1459 -10.1402
-10.1398  -1.0263  -0.9564  -0.9390  -0.9083  -0.8672  -0.8254  -0.7635
 -0.7305  -0.7248  -0.6909  -0.6493  -0.6112  -0.5862  -0.5543  -0.5351
 -0.5075  -0.4876  -0.4720  -0.4688  -0.4419  -0.4398  -0.4196  -0.4137
 -0.4016  -0.3971  -0.3958  -0.3839  -0.3816  -0.3696  -0.3605  -0.3497
 -0.3369  -0.3279  -0.3263  -0.3064  -0.2859  -0.2751  -0.2579  -0.2319
 -0.2270  -0.2205  -0.2063  -0.1816  -0.1161

          Ground-State Mulliken Net Atomic Charges

     Atom                 Charge (a.u.)
  ----------------------------------------
      1 C                     0.013807
      2 C                    -0.381444
      3 C                    -0.464523
      4 C                     0.451369
      5 C                    -0.087999
      6 C                    -0.048914
      7 C                    -0.665945
      8 C                     0.327621
      9 C                     0.480790
     10 C                    -0.853557
     11 O                    -0.736004
     12 O                    -0.682766
     13 N                    -0.527029
     14 H                     0.145074
     15 H                     0.169996
     16 H                     0.171916
     17 H                     0.147884
     18 H                     0.283879
     19 H                     0.283473
     20 N                    -0.045713
     21 C                     0.283100
     22 C                    -0.599528
     23 H                     0.356885
     24 H                     0.144088
     25 H                     0.175959
     26 H                     0.183941
     27 O                    -0.526360
  ----------------------------------------
  Sum of atomic charges =    -2.000000

                    Cartesian Multipole Moments
 -----------------------------------------------------------------
    Charge (ESU x 10^10)
                -9.6064
    Dipole Moment (Debye)
         X     -16.7596      Y     -28.3510      Z       2.4039
       Tot      33.0218
    Quadrupole Moments (Debye-Ang)
        XX    -168.9932     XY     -55.6858     YY    -234.8682
        XZ       1.8718     YZ      10.3358     ZZ    -113.7757

 Total job time:  51.96s(wall), 316.81s(cpu)
        *  Thank you very much for using Q-Chem.  Have a nice day.  *
