 Gaussian 16, Revision A.03,
 Gaussian 16:  ES64L-G16RevA.03 25-Dec-2016

 ----------------------------------------------------------------------
 #P UB3LYP/6-311++G(d,p) nosym opt freq SCRF=(PCM,Solvent=n,n-DiMethylF
 ormamide)
 ----------------------------------------------------------------------

 --------
 Oxidized
 --------
 Symbolic Z-matrix:
 Charge =  0 Multiplicity = 1

 SCF Done:  E(UB3LYP) =  -5721.67596186     A.U. after   15 cycles
 SCF Done:  E(UB3LYP) =  -5721.67602309     A.U. after   11 cycles
 SCF Done:  E(UB3LYP) =  -5721.67601181     A.U. after   11 cycles
 SCF Done:  E(UB3LYP) =  -5721.67600188     A.U. after   11 cycles
 SCF Done:  E(UB3LYP) =  -5721.67603110     A.U. after   11 cycles
 SCF Done:  E(UB3LYP) =  -5721.67603219     A.U. after    9 cycles
 Optimization completed.
    -- Stationary point found.
 Normal termination of Gaussian 16 at Sat Feb 10 23:49:24 2024.

 ----------------------------------------------------------------------
 #P Geom=AllCheck Guess=TCheck SCRF=Check GenChk UB3LYP/6-311++G(d,p) F
 req
 ----------------------------------------------------------------------

 Structure from the checkpoint file:  "234.chk"
 --------
 Oxidized
 --------
 Charge =  0 Multiplicity = 1

                          Input orientation:
 ---------------------------------------------------------------------
 Center     Atomic      Atomic             Coordinates (Angstroms)
 Number     Number       Type             X           Y           Z
 ---------------------------------------------------------------------
      1          6           0        5.737172   -5.238936    1.113857
      2          6           0        6.683251   -5.111682    0.100812
      3          6           0        6.560537   -4.082814   -0.844128
      4          6           0        4.668192   -4.349491    1.193914
      5          6           0        4.546241   -3.321387    0.248089
      6          6           0        5.492337   -3.193600   -0.764882
      7          6           0        3.665107   -4.504153    2.287420
      8          6           0        2.528040   -3.532712    2.343259
      9          6           0        2.436507   -2.554626    1.421145
     10          6           0        3.404265   -2.366321    0.326920
     11          8           0        3.761661   -5.395244    3.117395
     12          8           0        3.268198   -1.457448   -0.482990
     13          1           0        5.823851   -6.029186    1.847367
     14          1           0        5.387857   -2.396541   -1.488728
     15         35           0        8.116407   -6.367201    0.056762
     16         35           0        7.816001   -3.844546   -2.257503
     17          6           0        1.536912   -3.711965    3.450060
     18          1           0        1.620604   -1.839871    1.444011
     19          1           0        2.033138   -3.647149    4.422381
     20          1           0        1.079880   -4.704049    3.397719
     21          1           0        0.753812   -2.956009    3.398758
 ---------------------------------------------------------------------

 SCF Done:  E(UB3LYP) =  -5721.67603219     A.U. after    1 cycles

 Alpha  occ. eigenvalues -- -482.85254-482.85242 -62.50529 -62.50517 -56.32577
 Alpha  occ. eigenvalues --  -56.32565 -56.32181 -56.32169 -56.32150 -56.32139
 Alpha  occ. eigenvalues --  -19.14541 -19.14155 -10.29362 -10.29103 -10.27031
 Alpha  occ. eigenvalues --  -10.26977 -10.22773 -10.22332 -10.22245 -10.21970
 Alpha  occ. eigenvalues --  -10.21948 -10.20994 -10.18132  -8.71499  -8.71487
 Alpha  occ. eigenvalues --   -6.54675  -6.54664  -6.53355  -6.53342  -6.53273
 Alpha  occ. eigenvalues --   -6.53262  -2.65763  -2.65751  -2.65397  -2.65385
 Alpha  occ. eigenvalues --   -2.65337  -2.65325  -2.64285  -2.64285  -2.64273
 Alpha  occ. eigenvalues --   -2.64273  -1.07747  -1.07164  -0.92316  -0.86871
 Alpha  occ. eigenvalues --   -0.83509  -0.83483  -0.77910  -0.76805  -0.73274
 Alpha  occ. eigenvalues --   -0.69038  -0.65920  -0.63163  -0.60101  -0.55271
 Alpha  occ. eigenvalues --   -0.52930  -0.51943  -0.48032  -0.47558  -0.47171
 Alpha  occ. eigenvalues --   -0.46933  -0.46644  -0.43669  -0.43570  -0.42281
 Alpha  occ. eigenvalues --   -0.42132  -0.40866  -0.40542  -0.39552  -0.39017
 Alpha  occ. eigenvalues --   -0.34104  -0.34058  -0.32807  -0.30245  -0.30054
 Alpha  occ. eigenvalues --   -0.29717  -0.28412  -0.28263  -0.27131
 Alpha virt. eigenvalues --   -0.13466  -0.07342  -0.05125  -0.04702  -0.00787
 Alpha virt. eigenvalues --   -0.00560   0.00324   0.01141   0.01249   0.02555
 Alpha virt. eigenvalues --    0.02712   0.03136   0.03641   0.03999   0.04397

  Beta  occ. eigenvalues -- -482.85254-482.85242 -62.50529 -62.50517 -56.32577
  Beta  occ. eigenvalues --  -56.32565 -56.32181 -56.32169 -56.32150 -56.32139
  Beta  occ. eigenvalues --  -19.14541 -19.14155 -10.29362 -10.29103 -10.27031
  Beta  occ. eigenvalues --  -10.26977 -10.22773 -10.22332 -10.22245 -10.21970
  Beta  occ. eigenvalues --  -10.21948 -10.20994 -10.18132  -8.71499  -8.71487
  Beta  occ. eigenvalues --   -6.54675  -6.54664  -6.53355  -6.53342  -6.53273
  Beta  occ. eigenvalues --   -6.53262  -2.65763  -2.65751  -2.65397  -2.65385
  Beta  occ. eigenvalues --   -2.65337  -2.65325  -2.64285  -2.64285  -2.64273
  Beta  occ. eigenvalues --   -2.64273  -1.07747  -1.07164  -0.92316  -0.86871
  Beta  occ. eigenvalues --   -0.83509  -0.83483  -0.77910  -0.76805  -0.73274
  Beta  occ. eigenvalues --   -0.69038  -0.65920  -0.63163  -0.60101  -0.55271
  Beta  occ. eigenvalues --   -0.52930  -0.51943  -0.48032  -0.47558  -0.47171
  Beta  occ. eigenvalues --   -0.46933  -0.46644  -0.43669  -0.43570  -0.42281
  Beta  occ. eigenvalues --   -0.42132  -0.40866  -0.40542  -0.39552  -0.39017
  Beta  occ. eigenvalues --   -0.34104  -0.34058  -0.32807  -0.30245  -0.30054
  Beta  occ. eigenvalues --   -0.29717  -0.28412  -0.28263  -0.27131
  Beta virt. eigenvalues --   -0.13466  -0.07342  -0.05125  -0.04702  -0.00787
  Beta virt. eigenvalues --   -0.00560   0.00324   0.01141   0.01249   0.02555
  Beta virt. eigenvalues --    0.02712   0.03136   0.03641   0.03999   0.04397

 Mulliken charges and spin densities:
               1          2
     1  C   -0.005185   0.000000
     2  C    0.040966   0.000000
     3  C   -0.020694  -0.000000
     4  C    0.267088  -0.000000
     5  C    0.779932   0.000000
     6  C   -0.057233   0.000000
     7  C   -0.654037  -0.000000
     8  C    0.792939  -0.000000
     9  C   -0.392460   0.000000
    10  C   -0.979350  -0.000000
    11  O   -0.253492  -0.000000
    12  O   -0.282452  -0.000000
    13  H    0.247217  -0.000000
    14  H    0.240186  -0.000000
    15  Br  -0.105828  -0.000000
    16  Br  -0.110675   0.000000
    17  C   -0.278742  -0.000000
    18  H    0.205970  -0.000000
    19  H    0.193840  -0.000000
    20  H    0.193928  -0.000000
    21  H    0.178081   0.000000
 Sum of Mulliken charges =  -0.00000   0.00000

 Dipole moment (field-independent basis, Debye):
    X=             -1.5300    Y=             -0.0522    Z=              1.4743  Tot=              2.1253
 Quadrupole moment (field-independent basis, Debye-Ang):
   XX=           -118.7757   YY=           -119.6589   ZZ=           -112.3700
   XY=              5.8542   XZ=             -0.6656   YZ=              3.1708

  Exact polarizability: 269.954 -61.271 236.722 -73.965 -60.319 253.779
 Approx polarizability: 287.096 -64.678 294.798 -65.455 -93.748 302.870

                      1                      2                      3
                      A                      A                      A
 Frequencies --     42.6140                47.8275               104.4054
 Red. masses --     11.5691                 6.1967                11.0777
 Frc consts  --      0.0124                 0.0084                 0.0711
 IR Inten    --      1.2503                 6.4151                 7.6850

                      4                      5                      6
                      A                      A                      A
 Frequencies --    126.5247               132.0341               138.6476
 Red. masses --     45.7374                10.9117                 1.3134
 Frc consts  --      0.4314                 0.1121                 0.0149
 IR Inten    --      0.1302                 0.1343                 0.0830

                      7                      8                      9
                      A                      A                      A
 Frequencies --    173.6731               184.5540               224.9655
 Red. masses --      2.5014                 4.2463                11.5649
 Frc consts  --      0.0445                 0.0852                 0.3448
 IR Inten    --      1.9119                 0.3227                 0.2919

                     10                     11                     12
                      A                      A                      A
 Frequencies --    240.4625               288.1003               299.7308
 Red. masses --     17.0881                 7.2592                 3.5423
 Frc consts  --      0.5822                 0.3550                 0.1875
 IR Inten    --      0.2294                 0.6724                 0.9578

                     13                     14                     15
                      A                      A                      A
 Frequencies --    379.4855               409.1023               415.9196
 Red. masses --      4.2648                 8.2651                 7.8142
 Frc consts  --      0.3619                 0.8150                 0.7964
 IR Inten    --      2.8941                59.3370                 5.3665

                     16                     17                     18
                      A                      A                      A
 Frequencies --    437.4709               458.2175               491.9318
 Red. masses --      3.2036                10.8915                 8.1824
 Frc consts  --      0.3612                 1.3474                 1.1666
 IR Inten    --      5.8875                26.9226                12.3416

                     19                     20                     21
                      A                      A                      A
 Frequencies --    553.7972               578.5643               662.2267
 Red. masses --      8.6848                 7.2407                 4.2018
 Frc consts  --      1.5693                 1.4280                 1.0857
 IR Inten    --      0.0125                15.0851                 0.0698

                     22                     23                     24
                      A                      A                      A
 Frequencies --    664.3829               683.9534               703.1956
 Red. masses --      5.1755                 6.8384                 3.6206
 Frc consts  --      1.3460                 1.8848                 1.0548
 IR Inten    --      0.5923                 7.8817                17.3197

                     25                     26                     27
                      A                      A                      A
 Frequencies --    738.0331               790.5454               849.3387
 Red. masses --      6.4845                 6.3152                 6.2675
 Frc consts  --      2.0810                 2.3254                 2.6638
 IR Inten    --     10.5375                 1.0248               107.7928

                     28                     29                     30
                      A                      A                      A
 Frequencies --    905.9900               912.9061               941.9881
 Red. masses --      1.4088                 1.3666                 1.5088
 Frc consts  --      0.6813                 0.6710                 0.7888
 IR Inten    --     64.3905                 0.1699                 7.6962

                     31                     32                     33
                      A                      A                      A
 Frequencies --    965.3409              1029.3963              1055.9025
 Red. masses --      4.5862                 1.9075                 1.5476
 Frc consts  --      2.5181                 1.1909                 1.0166
 IR Inten    --    103.7071                 3.2392                 6.3521

                     34                     35                     36
                      A                      A                      A
 Frequencies --   1113.1288              1115.4161              1159.0020
 Red. masses --      3.1088                 2.2388                 4.5040
 Frc consts  --      2.2695                 1.6411                 3.5646
 IR Inten    --      6.3131                58.4438                17.5038

                     37                     38                     39
                      A                      A                      A
 Frequencies --   1239.7848              1258.7428              1281.9235
 Red. masses --      2.0013                 1.3853                 5.7368
 Frc consts  --      1.8124                 1.2932                 5.5545
 IR Inten    --     39.9551                31.9134               830.3566

                     40                     41                     42
                      A                      A                      A
 Frequencies --   1320.9430              1351.2575              1392.6458
 Red. masses --     10.3906                 2.4346                 4.5100
 Frc consts  --     10.6821                 2.6191                 5.1536
 IR Inten    --     23.7655               156.2824                20.7130

                     43                     44                     45
                      A                      A                      A
 Frequencies --   1408.8551              1457.6936              1468.9738
 Red. masses --      1.3995                 1.0432                 1.1010
 Frc consts  --      1.6367                 1.3060                 1.3998
 IR Inten    --     30.8272                14.5469                26.9043

                     46                     47                     48
                      A                      A                      A
 Frequencies --   1479.4762              1581.3937              1595.3561
 Red. masses --      2.8744                10.3728                 6.8798
 Frc consts  --      3.7069                15.2836                10.3167
 IR Inten    --      1.5539                26.7430               381.2820

                     49                     50                     51
                      A                      A                      A
 Frequencies --   1667.9243              1693.5029              1705.8269
 Red. masses --      8.3339                10.7838                11.4517
 Frc consts  --     13.6601                18.2219                19.6332
 IR Inten    --    154.5103               768.2865               244.9042

                     52                     53                     54
                      A                      A                      A
 Frequencies --   3037.0034              3087.3784              3129.6901
 Red. masses --      1.0367                 1.0991                 1.1025
 Frc consts  --      5.6338                 6.1725                 6.3626
 IR Inten    --      9.2153                 9.3107                16.6278

                     55                     56                     57
                      A                      A                      A
 Frequencies --   3177.1091              3212.2542              3213.6854
 Red. masses --      1.0920                 1.0913                 1.0917
 Frc consts  --      6.4943                 6.6344                 6.6427
 IR Inten    --      9.3243                 6.0568                 4.6259

 - Thermochemistry -
 -------------------
 Temperature   298.150 Kelvin.  Pressure   1.00000 Atm.
 Atom     1 has atomic number  6 and mass  12.00000

 Molecular mass:   327.87345 amu.
 Principal axes and moments of inertia in atomic units:
                           1         2         3
     Eigenvalues --  3099.583178521.88442**********
           X            0.82463  -0.15402   0.54431
           Y           -0.25583   0.75666   0.60168
           Z           -0.50453  -0.63541   0.58456
 This molecule is an asymmetric top.
 Rotational symmetry number  1.
 Warning -- assumption of classical behavior for rotation
           may cause significant error
 Rotational temperatures (Kelvin)      0.02794     0.01016     0.00746
 Rotational constants (GHZ):           0.58225     0.21178     0.15544
 Zero-point vibrational energy     363546.3 (Joules/Mol)
                                   86.88965 (Kcal/Mol)
 Warning -- explicit consideration of  20 degrees of freedom as
           vibrations may cause significant error
 Vibrational temperatures:     61.31    68.81   150.22   182.04   189.97
          (Kelvin)            199.48   249.88   265.53   323.68   345.97
                              414.51   431.25   546.00   588.61   598.42
                              629.42   659.27   707.78   796.79   832.42
                              952.80   955.90   984.06  1011.74  1061.87
                             1137.42  1222.01  1303.52  1313.47  1355.31
                             1388.91  1481.07  1519.21  1601.54  1604.84
                             1667.55  1783.77  1811.05  1844.40  1900.54
                             1944.16  2003.71  2027.03  2097.30  2113.53
                             2128.64  2275.27  2295.36  2399.77  2436.57
                             2454.30  4369.57  4442.05  4502.93  4571.15
                             4621.72  4623.78

 Zero-point correction=                           0.138467 (Hartree/Particle)
 Thermal correction to Energy=                    0.152010
 Thermal correction to Enthalpy=                  0.152954
 Thermal correction to Gibbs Free Energy=         0.095926
 Sum of electronic and zero-point Energies=          -5721.537565
 Sum of electronic and thermal Energies=             -5721.524022
 Sum of electronic and thermal Enthalpies=           -5721.523078
 Sum of electronic and thermal Free Energies=        -5721.580106

                     E (Thermal)             CV                S
                      KCal/Mol        Cal/Mol-Kelvin    Cal/Mol-Kelvin
 Total                   95.388             49.135            120.026
 Electronic               0.000              0.000              0.000
 Translational            0.889              2.981             43.258
 Rotational               0.889              2.981             34.083
 Vibrational             93.610             43.174             42.685
 Vibration     1          0.595              1.980              5.134
 Vibration     2          0.595              1.978              4.905
 Vibration     3          0.605              1.946              3.370
 Vibration     4          0.611              1.927              2.998
 Vibration     5          0.612              1.921              2.916
 Vibration     6          0.614              1.915              2.822
 Vibration     7          0.627              1.875              2.395
 Vibration     8          0.631              1.861              2.282
 Vibration     9          0.650              1.803              1.919
 Vibration    10          0.658              1.778              1.799
 Vibration    11          0.685              1.696              1.485
 Vibration    12          0.692              1.674              1.418
 Vibration    13          0.749              1.514              1.041
 Vibration    14          0.773              1.450              0.930
 Vibration    15          0.779              1.436              0.906
 Vibration    16          0.798              1.389              0.835
 Vibration    17          0.816              1.343              0.771
 Vibration    18          0.848              1.268              0.679
 Vibration    19          0.909              1.131              0.536
 Vibration    20          0.935              1.078              0.488

                           ! Non-Optimized Parameters !
 Normal termination of Gaussian 16 at Sun Feb 11 00:19:16 2024.
