 Gaussian 16, Revision A.03,
 Gaussian 16:  ES64L-G16RevA.03 25-Dec-2016

 --------------------------------------
 #P UB3LYP/6-311++G(d,p) nosym opt freq
 --------------------------------------

 -------
 Radical
 -------
 Symbolic Z-matrix:
 Charge = -1 Multiplicity = 2

 SCF Done:  E(UB3LYP) =  -918.127190963     A.U. after   22 cycles
 Optimization completed.
    -- Stationary point found.
 Normal termination of Gaussian 16 at Wed Dec 27 19:56:19 2023.

 ----------------------------------------------------------------------
 #P Geom=AllCheck Guess=TCheck SCRF=Check GenChk UB3LYP/6-311++G(d,p) F
 req
 ----------------------------------------------------------------------

 Structure from the checkpoint file:  "142-rad.chk"
 -------
 Radical
 -------
 Charge = -1 Multiplicity = 2

                          Input orientation:
 ---------------------------------------------------------------------
 Center     Atomic      Atomic             Coordinates (Angstroms)
 Number     Number       Type             X           Y           Z
 ---------------------------------------------------------------------
      1          6           0       -3.255805    3.669829    0.084578
      2          6           0       -4.482539    3.036072    0.089917
      3          6           0       -4.557523    1.625048    0.066173
      4          6           0       -2.055331    2.931209    0.055557
      5          6           0       -2.120692    1.504615    0.031307
      6          6           0       -3.384825    0.890549    0.037468
      7          6           0       -0.781046    3.648614    0.051050
      8          6           0        0.422488    2.818531    0.020242
      9          6           0        0.357287    1.391929   -0.003965
     10          6           0       -0.917269    0.670325    0.000484
     11          6           0        1.685432    3.445000    0.014321
     12          6           0        2.849182    2.702416   -0.014478
     13          6           0        2.794993    1.290446   -0.038606
     14          6           0        1.560076    0.665566   -0.032937
     15          8           0       -0.723558    4.907052    0.072359
     16          8           0       -0.974523   -0.582963   -0.020836
     17          1           0       -3.412513   -0.193122    0.018813
     18          1           0        1.488598   -0.416107   -0.050995
     19          1           0       -3.196873    4.751090    0.102677
     20          1           0        1.725582    4.527116    0.032878
     21          8           0        4.035569    3.416791   -0.018141
     22          6           0        5.250265    2.698620   -0.042686
     23          8           0       -5.598788    3.855209    0.119596
     24          1           0        3.697408    0.692842   -0.061348
     25          1           0        6.043801    3.447393   -0.039127
     26          1           0        5.345062    2.082338   -0.946033
     27          1           0        5.363953    2.053607    0.838128
     28          6           0       -6.874024    3.250523    0.118807
     29          1           0       -5.510759    1.111921    0.070084
     30          1           0       -7.595915    4.068298    0.140974
     31          1           0       -7.027865    2.614661    1.000197
     32          1           0       -7.042959    2.649371   -0.783897
 ---------------------------------------------------------------------

 SCF Done:  E(UB3LYP) =  -918.127190963     A.U. after    1 cycles

 Alpha  occ. eigenvalues --  -19.05134 -19.05134 -18.94459 -18.93943 -10.13723
 Alpha  occ. eigenvalues --  -10.13723 -10.11908 -10.11907 -10.09705 -10.08778
 Alpha  occ. eigenvalues --  -10.06058 -10.06058 -10.05573 -10.05573 -10.05030
 Alpha  occ. eigenvalues --  -10.05030 -10.04473 -10.04472 -10.04436 -10.04436
 Alpha  occ. eigenvalues --   -0.96392  -0.96392  -0.87112  -0.86359  -0.74060
 Alpha  occ. eigenvalues --   -0.73320  -0.66931  -0.65029  -0.64483  -0.62623
 Alpha  occ. eigenvalues --   -0.60376  -0.59170  -0.53967  -0.52067  -0.49374
 Alpha  occ. eigenvalues --   -0.47786  -0.44603  -0.43211  -0.42969  -0.39245
 Alpha  occ. eigenvalues --   -0.38440  -0.37785  -0.37780  -0.37251  -0.36153
 Alpha  occ. eigenvalues --   -0.34287  -0.32490  -0.31057  -0.30865  -0.30260
 Alpha  occ. eigenvalues --   -0.29584  -0.28716  -0.28452  -0.27123  -0.27052
 Alpha  occ. eigenvalues --   -0.26459  -0.25583  -0.24525  -0.24486  -0.24155
 Alpha  occ. eigenvalues --   -0.22181  -0.21146  -0.21068  -0.19240  -0.13886
 Alpha  occ. eigenvalues --   -0.13691  -0.11895  -0.11277  -0.11012  -0.10406
 Alpha  occ. eigenvalues --   -0.00931
 Alpha virt. eigenvalues --    0.06450   0.06475   0.06809   0.09133   0.09238
 Alpha virt. eigenvalues --    0.10211   0.10521   0.10689   0.10736   0.11295
 Alpha virt. eigenvalues --    0.11783   0.11793   0.12335   0.13516   0.13787

  Beta  occ. eigenvalues --  -19.05114 -19.05113 -18.93964 -18.93271 -10.13724
  Beta  occ. eigenvalues --  -10.13724 -10.11868 -10.11868 -10.09587 -10.08603
  Beta  occ. eigenvalues --  -10.06008 -10.06008 -10.05600 -10.05599 -10.04934
  Beta  occ. eigenvalues --  -10.04933 -10.04405 -10.04405 -10.04396 -10.04395
  Beta  occ. eigenvalues --   -0.96348  -0.96348  -0.86257  -0.85191  -0.73816
  Beta  occ. eigenvalues --   -0.73212  -0.66593  -0.64953  -0.64288  -0.62465
  Beta  occ. eigenvalues --   -0.60169  -0.59086  -0.53346  -0.51880  -0.49162
  Beta  occ. eigenvalues --   -0.47713  -0.44462  -0.43141  -0.42755  -0.39132
  Beta  occ. eigenvalues --   -0.38351  -0.37735  -0.37732  -0.37030  -0.36085
  Beta  occ. eigenvalues --   -0.34173  -0.32394  -0.30900  -0.30830  -0.30146
  Beta  occ. eigenvalues --   -0.28639  -0.28468  -0.28325  -0.26890  -0.26484
  Beta  occ. eigenvalues --   -0.26415  -0.24905  -0.24349  -0.24017  -0.22196
  Beta  occ. eigenvalues --   -0.22123  -0.20934  -0.20869  -0.18259  -0.13237
  Beta  occ. eigenvalues --   -0.11931  -0.10778  -0.10705  -0.10584  -0.09815
  Beta virt. eigenvalues --    0.05027   0.06446   0.06471   0.07603   0.09127
  Beta virt. eigenvalues --    0.09231   0.10430   0.10518   0.10691   0.11294
  Beta virt. eigenvalues --    0.11385   0.11787   0.12196   0.12326   0.13519

 Mulliken charges and spin densities:
               1          2
     1  C   -0.589218   0.043836
     2  C   -0.751133   0.014504
     3  C    0.099816   0.038717
     4  C    0.872460   0.077555
     5  C    0.599397   0.036022
     6  C   -0.016492  -0.000608
     7  C   -0.861280   0.095093
     8  C    0.872250   0.077536
     9  C    0.599646   0.036034
    10  C   -0.645360   0.055078
    11  C   -0.589420   0.043850
    12  C   -0.751052   0.014492
    13  C    0.099627   0.038729
    14  C   -0.016260  -0.000616
    15  O   -0.364680   0.253240
    16  O   -0.369341   0.183439
    17  H    0.158062  -0.000362
    18  H    0.158065  -0.000361
    19  H    0.177244  -0.003746
    20  H    0.177236  -0.003747
    21  O   -0.173879   0.003697
    22  C   -0.338718   0.000609
    23  O   -0.173888   0.003698
    24  H    0.153228  -0.003422
    25  H    0.158228  -0.000016
    26  H    0.135543  -0.000106
    27  H    0.135821  -0.000105
    28  C   -0.338715   0.000608
    29  H    0.153231  -0.003421
    30  H    0.158227  -0.000016
    31  H    0.135448  -0.000106
    32  H    0.135909  -0.000105
 Sum of Mulliken charges =  -1.00000   1.00000

 Dipole moment (field-independent basis, Debye):
    X=              3.9729    Y=            -12.6856    Z=             -0.1656  Tot=             13.2942
 Quadrupole moment (field-independent basis, Debye-Ang):
   XX=           -121.3818   YY=           -188.4783   ZZ=           -123.1015
   XY=              8.8034   XZ=              0.1101   YZ=             -0.9810

  Exact polarizability: 410.462  -7.863 237.397  -4.004   2.237 115.736
 Approx polarizability: 547.182  -4.087 456.143  -4.930   4.861 183.079

                      1                      2                      3
                      A                      A                      A
 Frequencies --     28.6228                40.4639                53.3080
 Red. masses --      3.4523                 3.0881                 5.6128
 Frc consts  --      0.0017                 0.0030                 0.0094
 IR Inten    --      9.1243                 0.0002                 0.0896

                      4                      5                      6
                      A                      A                      A
 Frequencies --     88.8227               114.9701               125.6125
 Red. masses --      4.1743                 5.8157                 4.7688
 Frc consts  --      0.0194                 0.0453                 0.0443
 IR Inten    --      0.0003                 6.0261                 5.3007

                      7                      8                      9
                      A                      A                      A
 Frequencies --    160.5466               178.3514               195.2987
 Red. masses --      7.2805                 5.2169                 4.8469
 Frc consts  --      0.1106                 0.0978                 0.1089
 IR Inten    --      4.0760                 0.0000                 0.9122

                     10                     11                     12
                      A                      A                      A
 Frequencies --    225.8068               232.8470               261.6583
 Red. masses --      1.2751                 1.1591                 4.3100
 Frc consts  --      0.0383                 0.0370                 0.1739
 IR Inten    --      0.7160                 0.0041                 0.0084

                     13                     14                     15
                      A                      A                      A
 Frequencies --    293.2349               307.0393               309.3709
 Red. masses --      3.6140                 5.1765                 4.6865
 Frc consts  --      0.1831                 0.2875                 0.2643
 IR Inten    --      0.9278                 0.0374                 2.9410

                     16                     17                     18
                      A                      A                      A
 Frequencies --    336.8136               342.1941               405.8493
 Red. masses --      4.8388                10.5321                 7.9517
 Frc consts  --      0.3234                 0.7266                 0.7717
 IR Inten    --      0.0001                 0.3440                 6.3811

                     19                     20                     21
                      A                      A                      A
 Frequencies --    418.4637               461.9486               468.1204
 Red. masses --      4.3220                 3.1260                 7.9620
 Frc consts  --      0.4459                 0.3930                 1.0280
 IR Inten    --      0.4809                 0.0004                 4.1205

                     22                     23                     24
                      A                      A                      A
 Frequencies --    484.4470               501.8964               525.8987
 Red. masses --      5.0080                 6.5917                 4.4408
 Frc consts  --      0.6925                 0.9783                 0.7236
 IR Inten    --      5.3085                 2.9240                 4.6427

                     25                     26                     27
                      A                      A                      A
 Frequencies --    581.1846               585.6051               614.0696
 Red. masses --      4.6983                 6.5809                 4.7917
 Frc consts  --      0.9350                 1.3297                 1.0646
 IR Inten    --      0.0021                30.4697                 0.0250

                     28                     29                     30
                      A                      A                      A
 Frequencies --    653.6657               656.6037               710.5898
 Red. masses --      3.1110                 7.7817                 7.0333
 Frc consts  --      0.7832                 1.9767                 2.0924
 IR Inten    --     17.4167                 1.0559                 0.0450

                     31                     32                     33
                      A                      A                      A
 Frequencies --    714.1956               717.8842               726.1961
 Red. masses --      6.1978                 4.5008                 5.6506
 Frc consts  --      1.8626                 1.3666                 1.7557
 IR Inten    --     24.8771                 0.0001                35.2913

                     34                     35                     36
                      A                      A                      A
 Frequencies --    769.6189               777.2074               780.2824
 Red. masses --      2.0563                 6.4565                 1.4242
 Frc consts  --      0.7176                 2.2979                 0.5109
 IR Inten    --     16.3604                86.7547                 0.0006

                     37                     38                     39
                      A                      A                      A
 Frequencies --    811.5757               901.5757               905.1884
 Red. masses --      3.2726                 5.3670                 1.3913
 Frc consts  --      1.2700                 2.5703                 0.6716
 IR Inten    --     14.8310                18.1535                 0.0003

                     40                     41                     42
                      A                      A                      A
 Frequencies --    910.5255               942.0625               964.1843
 Red. masses --      1.4636                 6.8800                 1.2980
 Frc consts  --      0.7149                 3.5975                 0.7110
 IR Inten    --     31.4839                41.0890                 0.0000

                     43                     44                     45
                      A                      A                      A
 Frequencies --    969.5392              1000.0554              1059.4811
 Red. masses --      1.3428                 3.1506                 2.5353
 Frc consts  --      0.7437                 1.8565                 1.6768
 IR Inten    --      7.0463                 0.9500                 8.1606

                     46                     47                     48
                      A                      A                      A
 Frequencies --   1064.1221              1120.9053              1126.3642
 Red. masses --      3.0050                 3.4775                 1.6819
 Frc consts  --      2.0048                 2.5743                 1.2572
 IR Inten    --     64.3648                11.3637                 0.0045

                     49                     50                     51
                      A                      A                      A
 Frequencies --   1148.7302              1164.2751              1164.3381
 Red. masses --      1.9165                 1.2756                 1.2756
 Frc consts  --      1.4900                 1.0187                 1.0189
 IR Inten    --      3.4167                 0.2013                 0.8672

                     52                     53                     54
                      A                      A                      A
 Frequencies --   1176.5063              1190.9012              1193.6786
 Red. masses --      3.5528                 1.8015                 1.9242
 Frc consts  --      2.8974                 1.5054                 1.6154
 IR Inten    --    648.8519                 3.6548                 4.5025

                     55                     56                     57
                      A                      A                      A
 Frequencies --   1204.8275              1219.1957              1245.4498
 Red. masses --      1.6210                 1.7429                 2.2278
 Frc consts  --      1.3864                 1.5264                 2.0360
 IR Inten    --      0.7538                 0.0890                89.5383

                     58                     59                     60
                      A                      A                      A
 Frequencies --   1262.8484              1271.0359              1322.7241
 Red. masses --      3.9082                 2.7602                 2.2503
 Frc consts  --      3.6723                 2.6273                 2.3197
 IR Inten    --    366.3186                 1.3509                 7.3337

                     61                     62                     63
                      A                      A                      A
 Frequencies --   1356.8757              1360.7827              1413.2087
 Red. masses --      9.2955                 9.2262                 4.2801
 Frc consts  --     10.0833                10.0658                 5.0364
 IR Inten    --     74.4918                18.5315               271.4980

                     64                     65                     66
                      A                      A                      A
 Frequencies --   1447.1887              1466.5335              1469.8996
 Red. masses --      2.6529                 1.4602                 1.5754
 Frc consts  --      3.2736                 1.8504                 2.0055
 IR Inten    --    218.0925                12.5300                19.9657

                     67                     68                     69
                      A                      A                      A
 Frequencies --   1483.4357              1485.1137              1485.3461
 Red. masses --      2.2726                 1.0479                 1.0475
 Frc consts  --      2.9465                 1.3617                 1.3616
 IR Inten    --    152.6002                 3.5555                 7.7975

                     70                     71                     72
                      A                      A                      A
 Frequencies --   1491.2484              1507.0734              1507.8121
 Red. masses --      2.5823                 1.0706                 1.0752
 Frc consts  --      3.3834                 1.4327                 1.4403
 IR Inten    --    143.6981                34.9751                47.5874

                     73                     74                     75
                      A                      A                      A
 Frequencies --   1530.5568              1536.1457              1557.2665
 Red. masses --      5.5462                 6.3262                 5.4772
 Frc consts  --      7.6550                 8.7954                 7.8259
 IR Inten    --    483.3848                36.4154                 0.0459

                     76                     77                     78
                      A                      A                      A
 Frequencies --   1606.4074              1621.8994              1643.5141
 Red. masses --      8.2942                 6.3336                 7.9094
 Frc consts  --     12.6106                 9.8164                12.5876
 IR Inten    --     26.3919               526.3563                11.2560

                     79                     80                     81
                      A                      A                      A
 Frequencies --   2979.0870              2979.3720              3026.2656
 Red. masses --      1.0351                 1.0352                 1.1047
 Frc consts  --      5.4126                 5.4142                 5.9611
 IR Inten    --    216.5465                28.7511                41.4701

                     82                     83                     84
                      A                      A                      A
 Frequencies --   3026.3539              3099.8005              3099.9002
 Red. masses --      1.1047                 1.0970                 1.0969
 Frc consts  --      5.9614                 6.2102                 6.2103
 IR Inten    --     77.1348                72.6147                38.7813

                     85                     86                     87
                      A                      A                      A
 Frequencies --   3173.0506              3173.1686              3190.6448
 Red. masses --      1.0860                 1.0860                 1.0927
 Frc consts  --      6.4425                 6.4429                 6.5541
 IR Inten    --      1.6534                 0.2165                48.1756

                     88                     89                     90
                      A                      A                      A
 Frequencies --   3191.0194              3195.3048              3195.8047
 Red. masses --      1.0927                 1.0895                 1.0898
 Frc consts  --      6.5557                 6.5542                 6.5577
 IR Inten    --     13.5713                15.6409                 0.1154

 - Thermochemistry -
 -------------------
 Temperature   298.150 Kelvin.  Pressure   1.00000 Atm.
 Atom     1 has atomic number  6 and mass  12.00000

 Molecular mass:   268.07356 amu.
 Principal axes and moments of inertia in atomic units:
                           1         2         3
     Eigenvalues --  1931.21776********************
           X            0.99887   0.04569   0.01309
           Y           -0.04546   0.99881  -0.01752
           Z           -0.01387   0.01690   0.99976
 This molecule is an asymmetric top.
 Rotational symmetry number  1.
 Warning -- assumption of classical behavior for rotation
           may cause significant error
 Rotational temperatures (Kelvin)      0.04485     0.00818     0.00693
 Rotational constants (GHZ):           0.93451     0.17054     0.14448
 Zero-point vibrational energy     630963.5 (Joules/Mol)
                                  150.80390 (Kcal/Mol)
 Warning -- explicit consideration of  27 degrees of freedom as
           vibrations may cause significant error
 Vibrational temperatures:     41.18    58.22    76.70   127.80   165.42
          (Kelvin)            180.73   230.99   256.61   280.99   324.89
                              335.01   376.47   421.90   441.76   445.12
                              484.60   492.34   583.93   602.08   664.64
                              673.52   697.01   722.12   756.65   836.20
                              842.56   883.51   940.48   944.71  1022.38
                             1027.57  1032.88  1044.83  1107.31  1118.23
                             1122.65  1167.68  1297.17  1302.36  1310.04
                             1355.42  1387.25  1394.95  1438.86  1524.36
                             1531.03  1612.73  1620.59  1652.77  1675.13
                             1675.22  1692.73  1713.44  1717.44  1733.48
                             1754.15  1791.92  1816.96  1828.74  1903.10
                             1952.24  1957.86  2033.29  2082.18  2110.01
                             2114.86  2134.33  2136.75  2137.08  2145.57
                             2168.34  2169.41  2202.13  2210.17  2240.56
                             2311.26  2333.55  2364.65  4286.24  4286.65
                             4354.12  4354.25  4459.92  4460.06  4565.31
                             4565.48  4590.63  4591.17  4597.33  4598.05

 Zero-point correction=                           0.240321 (Hartree/Particle)
 Thermal correction to Energy=                    0.257142
 Thermal correction to Enthalpy=                  0.258087
 Thermal correction to Gibbs Free Energy=         0.194416
 Sum of electronic and zero-point Energies=           -917.886870
 Sum of electronic and thermal Energies=              -917.870049
 Sum of electronic and thermal Enthalpies=            -917.869104
 Sum of electronic and thermal Free Energies=         -917.932775

                     E (Thermal)             CV                S
                      KCal/Mol        Cal/Mol-Kelvin    Cal/Mol-Kelvin
 Total                  161.359             65.053            134.006
 Electronic               0.000              0.000              1.377
 Translational            0.889              2.981             42.657
 Rotational               0.889              2.981             33.901
 Vibrational            159.582             59.091             56.071
 Vibration     1          0.593              1.984              5.923
 Vibration     2          0.594              1.981              5.236
 Vibration     3          0.596              1.976              4.691
 Vibration     4          0.602              1.957              3.686
 Vibration     5          0.608              1.937              3.183
 Vibration     6          0.611              1.927              3.012
 Vibration     7          0.622              1.891              2.543
 Vibration     8          0.629              1.869              2.346
 Vibration     9          0.636              1.846              2.177
 Vibration    10          0.650              1.802              1.912
 Vibration    11          0.654              1.791              1.857
 Vibration    12          0.669              1.743              1.651
 Vibration    13          0.688              1.686              1.455
 Vibration    14          0.697              1.660              1.378
 Vibration    15          0.699              1.656              1.366
 Vibration    16          0.718              1.602              1.227
 Vibration    17          0.721              1.591              1.202
 Vibration    18          0.771              1.457              0.941
 Vibration    19          0.781              1.430              0.897
 Vibration    20          0.820              1.334              0.760
 Vibration    21          0.825              1.321              0.743
 Vibration    22          0.841              1.285              0.698
 Vibration    23          0.857              1.246              0.653
 Vibration    24          0.881              1.193              0.596
 Vibration    25          0.938              1.072              0.483
 Vibration    26          0.943              1.063              0.475
 Vibration    27          0.973              1.002              0.426

                           ! Non-Optimized Parameters !
 Normal termination of Gaussian 16 at Wed Dec 27 21:40:58 2023.
