 Q-Chem 5.4, Q-Chem, Inc., Pleasanton, CA (2021)
 Q-Chem 5.4.0 for Intel X86 EM64T Linux

User input:
--------------------------------------------------------------
$molecule
-1 2
C                 -3.2558050000      3.6698290000      0.0845780000
C                 -4.4825390000      3.0360720000      0.0899170000
C                 -4.5575230000      1.6250480000      0.0661730000
C                 -2.0553310000      2.9312090000      0.0555570000
C                 -2.1206920000      1.5046150000      0.0313070000
C                 -3.3848250000      0.8905490000      0.0374680000
C                 -0.7810460000      3.6486140000      0.0510500000
C                  0.4224880000      2.8185310000      0.0202420000
C                  0.3572870000      1.3919290000     -0.0039650000
C                 -0.9172690000      0.6703250000      0.0004840000
C                  1.6854320000      3.4450000000      0.0143210000
C                  2.8491820000      2.7024160000     -0.0144780000
C                  2.7949930000      1.2904460000     -0.0386060000
C                  1.5600760000      0.6655660000     -0.0329370000
O                 -0.7235580000      4.9070520000      0.0723590000
O                 -0.9745230000     -0.5829630000     -0.0208360000
H                 -3.4125130000     -0.1931220000      0.0188130000
H                  1.4885980000     -0.4161070000     -0.0509950000
H                 -3.1968730000      4.7510900000      0.1026770000
H                  1.7255820000      4.5271160000      0.0328780000
O                  4.0355690000      3.4167910000     -0.0181410000
C                  5.2502650000      2.6986200000     -0.0426860000
O                 -5.5987880000      3.8552090000      0.1195960000
H                  3.6974080000      0.6928420000     -0.0613480000
H                  6.0438010000      3.4473930000     -0.0391270000
H                  5.3450620000      2.0823380000     -0.9460330000
H                  5.3639530000      2.0536070000      0.8381280000
C                 -6.8740240000      3.2505230000      0.1188070000
H                 -5.5107590000      1.1119210000      0.0700840000
H                 -7.5959150000      4.0682980000      0.1409740000
H                 -7.0278650000      2.6146610000      1.0001970000
H                 -7.0429590000      2.6493710000     -0.7838970000
$end
$rem
MAX_SCF_CYCLES=200
BASIS  =  6-311++G(d,p)
GUI  =  2
JOB_TYPE  =  SP
METHOD  =  B3LYP
SOLVENT_METHOD = PCM
$end
$pcm
theory = CPCM
$end
$solvent
dielectric 37.219
opticaldielectric 1.43
$end

--------------------------------------------------------------

             Standard Nuclear Orientation (Angstroms)
    I     Atom           X                Y                Z
 ----------------------------------------------------------------
    1      C      -3.2558050000     3.6698290000     0.0845780000
    2      C      -4.4825390000     3.0360720000     0.0899170000
    3      C      -4.5575230000     1.6250480000     0.0661730000
    4      C      -2.0553310000     2.9312090000     0.0555570000
    5      C      -2.1206920000     1.5046150000     0.0313070000
    6      C      -3.3848250000     0.8905490000     0.0374680000
    7      C      -0.7810460000     3.6486140000     0.0510500000
    8      C       0.4224880000     2.8185310000     0.0202420000
    9      C       0.3572870000     1.3919290000    -0.0039650000
   10      C      -0.9172690000     0.6703250000     0.0004840000
   11      C       1.6854320000     3.4450000000     0.0143210000
   12      C       2.8491820000     2.7024160000    -0.0144780000
   13      C       2.7949930000     1.2904460000    -0.0386060000
   14      C       1.5600760000     0.6655660000    -0.0329370000
   15      O      -0.7235580000     4.9070520000     0.0723590000
   16      O      -0.9745230000    -0.5829630000    -0.0208360000
   17      H      -3.4125130000    -0.1931220000     0.0188130000
   18      H       1.4885980000    -0.4161070000    -0.0509950000
   19      H      -3.1968730000     4.7510900000     0.1026770000
   20      H       1.7255820000     4.5271160000     0.0328780000
   21      O       4.0355690000     3.4167910000    -0.0181410000
   22      C       5.2502650000     2.6986200000    -0.0426860000
   23      O      -5.5987880000     3.8552090000     0.1195960000
   24      H       3.6974080000     0.6928420000    -0.0613480000
   25      H       6.0438010000     3.4473930000    -0.0391270000
   26      H       5.3450620000     2.0823380000    -0.9460330000
   27      H       5.3639530000     2.0536070000     0.8381280000
   28      C      -6.8740240000     3.2505230000     0.1188070000
   29      H      -5.5107590000     1.1119210000     0.0700840000
   30      H      -7.5959150000     4.0682980000     0.1409740000
   31      H      -7.0278650000     2.6146610000     1.0001970000
   32      H      -7.0429590000     2.6493710000    -0.7838970000
 ----------------------------------------------------------------

    8    -918.2153985939      8.21e-06  Convergence criterion met
 Total energy in the final basis set =     -918.2153985939

                    Orbital Energies (a.u.)
 --------------------------------------------------------------

 Alpha MOs
 -- Occupied --
-19.1545 -19.1545 -19.0768 -19.0738 -10.2356 -10.2356 -10.2278 -10.2199
-10.2146 -10.2146 -10.1752 -10.1751 -10.1742 -10.1742 -10.1730 -10.1730
-10.1684 -10.1684 -10.1650 -10.1650  -1.0660  -1.0660  -1.0045  -0.9990
 -0.8620  -0.8519  -0.7862  -0.7601  -0.7600  -0.7428  -0.7058  -0.6928
 -0.6587  -0.6352  -0.6064  -0.5938  -0.5606  -0.5401  -0.5400  -0.5002
 -0.4973  -0.4888  -0.4686  -0.4665  -0.4662  -0.4470  -0.4376  -0.4288
 -0.4252  -0.4220  -0.4178  -0.4119  -0.3979  -0.3950  -0.3811  -0.3788
 -0.3771  -0.3616  -0.3586  -0.3543  -0.3309  -0.3274  -0.3203  -0.3099
 -0.2633  -0.2580  -0.2476  -0.2392  -0.2385  -0.2260  -0.1384

 Beta MOs
 -- Occupied --
-19.1543 -19.1543 -19.0727 -19.0682 -10.2353 -10.2353 -10.2262 -10.2173
-10.2146 -10.2146 -10.1745 -10.1745 -10.1743 -10.1743 -10.1726 -10.1725
-10.1678 -10.1678 -10.1644 -10.1644  -1.0655  -1.0655  -0.9970  -0.9888
 -0.8595  -0.8507  -0.7826  -0.7587  -0.7577  -0.7413  -0.7034  -0.6922
 -0.6528  -0.6333  -0.6042  -0.5930  -0.5583  -0.5391  -0.5383  -0.4986
 -0.4964  -0.4869  -0.4677  -0.4656  -0.4654  -0.4457  -0.4353  -0.4283
 -0.4241  -0.4167  -0.4098  -0.4075  -0.3970  -0.3930  -0.3763  -0.3762
 -0.3612  -0.3574  -0.3528  -0.3522  -0.3306  -0.3265  -0.3184  -0.3002
 -0.2531  -0.2476  -0.2432  -0.2338  -0.2287  -0.2220

          Ground-State Mulliken Net Atomic Charges

     Atom                 Charge (a.u.)    Spin (a.u.)
  --------------------------------------------------------
      1 C                    -0.552238       0.067113
      2 C                    -0.788564       0.006695
      3 C                     0.022821       0.037635
      4 C                     0.735995       0.050763
      5 C                     0.536643       0.023350
      6 C                     0.044240       0.009175
      7 C                    -0.664430       0.152849
      8 C                     0.737772       0.050846
      9 C                     0.535959       0.023284
     10 C                    -0.437239       0.085461
     11 C                    -0.553277       0.067193
     12 C                    -0.795285       0.006692
     13 C                     0.023686       0.037737
     14 C                     0.047473       0.009087
     15 O                    -0.491186       0.217677
     16 O                    -0.480092       0.159515
     17 H                     0.175465      -0.000611
     18 H                     0.175059      -0.000612
     19 H                     0.180172      -0.004726
     20 H                     0.180364      -0.004724
     21 O                    -0.221548       0.005168
     22 C                    -0.375110       0.000212
     23 O                    -0.222336       0.005180
     24 H                     0.239475      -0.003082
     25 H                     0.197663      -0.000012
     26 H                     0.171751       0.000252
     27 H                     0.171491       0.000253
     28 C                    -0.374260       0.000212
     29 H                     0.238569      -0.003074
     30 H                     0.197741      -0.000012
     31 H                     0.171678       0.000252
     32 H                     0.171527       0.000254
  --------------------------------------------------------
  Sum of atomic charges =    -1.000020

                    Cartesian Multipole Moments
 -----------------------------------------------------------------
    Charge (ESU x 10^10)
                -4.8033
    Dipole Moment (Debye)
         X       3.9185      Y     -13.8582      Z      -0.1874
       Tot      14.4027
    Quadrupole Moments (Debye-Ang)
        XX     -87.0947     XY       7.8985     YY    -198.2848
        XZ      -0.3259     YZ      -1.1231     ZZ    -122.6919

 Total job time:  93.55s(wall), 487.98s(cpu)
        *  Thank you very much for using Q-Chem.  Have a nice day.  *
