 Gaussian 16, Revision A.03,
 Gaussian 16:  ES64L-G16RevA.03 25-Dec-2016

 ----------------------------------------------------------------
 #P UB3LYP/6-311++G(d,p) SCRF=(PCM,Solvent=n,n-DiMethylFormamide)
 ----------------------------------------------------------------

 ------------------
 Radical PCM in DMF
 ------------------
 Symbolic Z-matrix:
 Charge = -1 Multiplicity = 2

                         Standard orientation:
 ---------------------------------------------------------------------
 Center     Atomic      Atomic             Coordinates (Angstroms)
 Number     Number       Type             X           Y           Z
 ---------------------------------------------------------------------
      1          6           0        9.872811    1.105848    1.205166
      2          6           0       10.411731    2.218302    0.586000
      3          6           0        9.772770    2.778933   -0.538492
      4          6           0        8.603881    2.213033   -1.021388
      5          6           0        8.035468    1.081790   -0.410298
      6          6           0        8.682869    0.516431    0.725770
      7          6           0        8.119415   -0.648427    1.374618
      8          6           0        6.899689   -1.179605    0.811321
      9          6           0        6.251789   -0.662567   -0.290613
     10          6           0        6.786519    0.506936   -0.954232
     11          8           0        8.614371   -1.232779    2.394046
     12          8           0        6.220498    1.019240   -1.955227
     13          6           0        4.979629   -1.274682   -0.817313
     14          6           0        3.708247   -0.603737   -0.262552
     15          6           0        2.415560   -1.204933   -0.824732
     16          6           0        1.143203   -0.545319   -0.280476
     17          6           0       -0.153394   -1.141645   -0.840652
     18          6           0       -1.422905   -0.478203   -0.294306
     19          6           0       -2.720981   -1.071927   -0.853325
     20          6           0       -3.985966   -0.403039   -0.302494
     21          6           0       -5.284585   -0.999215   -0.863413
     22          6           0       -6.527438   -0.315237   -0.296177
     23         16           0       -8.059325   -1.074273   -1.007433
     24          6           0       -9.324100   -0.100047   -0.182202
     25          6           0       -9.800644    1.081962   -0.757219
     26          6           0       -9.877040   -0.531030    1.027319
     27          6           0      -10.874175    0.214441    1.652449
     28          6           0      -11.348321    1.404761    1.091144
     29          6           0      -10.797288    1.821929   -0.125237
     30          6           0      -12.405372    2.226638    1.788333
     31          1           0       10.345843    0.656717    2.071213
     32          1           0       11.327977    2.661373    0.965653
     33          1           0       10.196840    3.652708   -1.024310
     34          1           0        8.090907    2.623716   -1.883730
     35          8           0        6.425882   -2.273767    1.475967
     36          1           0        4.957480   -2.341613   -0.572498
     37          1           0        4.976613   -1.171317   -1.907212
     38          1           0        3.749650    0.464803   -0.499157
     39          1           0        3.706701   -0.689749    0.830742
     40          1           0        2.387613   -2.280529   -0.601991
     41          1           0        2.425912   -1.120115   -1.919598
     42          1           0        1.172318    0.529260   -0.503181
     43          1           0        1.134511   -0.627531    0.814489
     44          1           0       -0.183127   -2.216569   -0.618010
     45          1           0       -0.145393   -1.059226   -1.935542
     46          1           0       -1.392238    0.596460   -0.516718
     47          1           0       -1.430369   -0.560405    0.800530
     48          1           0       -2.753785   -2.146244   -0.630293
     49          1           0       -2.715505   -0.988953   -1.947839
     50          1           0       -3.953427    0.670795   -0.526464
     51          1           0       -3.991458   -0.486703    0.791755
     52          1           0       -5.322620   -2.070868   -0.636992
     53          1           0       -5.285690   -0.910431   -1.955772
     54          1           0       -6.530717    0.749486   -0.540143
     55          1           0       -6.568343   -0.421929    0.790156
     56          1           0       -9.392929    1.415086   -1.704603
     57          1           0       -9.527903   -1.455485    1.472504
     58          1           0      -11.292941   -0.139069    2.589687
     59          1           0      -11.155718    2.735544   -0.589571
     60          1           0      -13.065363    1.598809    2.391608
     61          1           0      -13.020542    2.776160    1.071806
     62          1           0      -11.949480    2.962525    2.460079
     63          1           0        7.100147   -2.388244    2.182039
 ---------------------------------------------------------------------

 SCF Done:  E(UB3LYP) =  -1672.56493202     A.U. after   25 cycles

 The electronic state is 2-A.
 Alpha  occ. eigenvalues --  -88.84458 -19.14251 -19.08512 -19.07305 -10.22212
 Alpha  occ. eigenvalues --  -10.22032 -10.21981 -10.20706 -10.19765 -10.19254
 Alpha  occ. eigenvalues --  -10.18427 -10.18425 -10.17952 -10.17950 -10.17400
 Alpha  occ. eigenvalues --  -10.17253 -10.17179 -10.17152 -10.17142 -10.17062
 Alpha  occ. eigenvalues --  -10.16912 -10.16872 -10.16488 -10.16138 -10.16091
 Alpha  occ. eigenvalues --  -10.15908 -10.15812 -10.15733 -10.15726 -10.15653
 Alpha  occ. eigenvalues --  -10.15589  -7.93070  -5.89466  -5.89112  -5.88431
 Alpha  occ. eigenvalues --   -1.06242  -0.99847  -0.99492  -0.87354  -0.85795
 Alpha  occ. eigenvalues --   -0.82075  -0.81347  -0.80443  -0.79207  -0.77601
 Alpha  occ. eigenvalues --   -0.75724  -0.75621  -0.75045  -0.73770  -0.71669
 Alpha  occ. eigenvalues --   -0.69411  -0.67496  -0.65976  -0.63670  -0.61814
 Alpha  occ. eigenvalues --   -0.61764  -0.60689  -0.58960  -0.58054  -0.57802
 Alpha  occ. eigenvalues --   -0.57249  -0.57084  -0.56678  -0.53606  -0.50364
 Alpha  occ. eigenvalues --   -0.49977  -0.48823  -0.48362  -0.47746  -0.47260
 Alpha  occ. eigenvalues --   -0.46082  -0.45934  -0.45257  -0.44815  -0.43679
 Alpha  occ. eigenvalues --   -0.43200  -0.42908  -0.42714  -0.42629  -0.42480
 Alpha  occ. eigenvalues --   -0.42335  -0.41676  -0.41203  -0.40292  -0.40198
 Alpha  occ. eigenvalues --   -0.39199  -0.39158  -0.38778  -0.38704  -0.38075
 Alpha  occ. eigenvalues --   -0.37736  -0.37030  -0.36759  -0.36098  -0.35859
 Alpha  occ. eigenvalues --   -0.35128  -0.34972  -0.34367  -0.34201  -0.34025
 Alpha  occ. eigenvalues --   -0.33714  -0.33385  -0.32815  -0.32579  -0.32224
 Alpha  occ. eigenvalues --   -0.32114  -0.31954  -0.31695  -0.30176  -0.26648
 Alpha  occ. eigenvalues --   -0.26585  -0.25895  -0.25734  -0.25135  -0.23827
 Alpha  occ. eigenvalues --   -0.23625  -0.22673  -0.15006
 Alpha virt. eigenvalues --   -0.03231  -0.03051  -0.02394  -0.00783  -0.00581
 Alpha virt. eigenvalues --   -0.00395  -0.00034   0.00549   0.00719   0.00839
 Alpha virt. eigenvalues --    0.01032   0.01254   0.01475   0.01746   0.01914

  Beta  occ. eigenvalues --  -88.84458 -19.14204 -19.07884 -19.06772 -10.22079
  Beta  occ. eigenvalues --  -10.21930 -10.21696 -10.20706 -10.19765 -10.19254
  Beta  occ. eigenvalues --  -10.18427 -10.18425 -10.17952 -10.17950 -10.17384
  Beta  occ. eigenvalues --  -10.17249 -10.17152 -10.17070 -10.17053 -10.17011
  Beta  occ. eigenvalues --  -10.16937 -10.16872 -10.16488 -10.16091 -10.16057
  Beta  occ. eigenvalues --  -10.15908 -10.15812 -10.15733 -10.15733 -10.15652
  Beta  occ. eigenvalues --  -10.15580  -7.93070  -5.89466  -5.89112  -5.88431
  Beta  occ. eigenvalues --   -1.06028  -0.98918  -0.98429  -0.87354  -0.85560
  Beta  occ. eigenvalues --   -0.82073  -0.81178  -0.80340  -0.79129  -0.77506
  Beta  occ. eigenvalues --   -0.75622  -0.75617  -0.74833  -0.73705  -0.71610
  Beta  occ. eigenvalues --   -0.69283  -0.67113  -0.65564  -0.63579  -0.61813
  Beta  occ. eigenvalues --   -0.61619  -0.60558  -0.58863  -0.58040  -0.57757
  Beta  occ. eigenvalues --   -0.57235  -0.57021  -0.56475  -0.53432  -0.50136
  Beta  occ. eigenvalues --   -0.49977  -0.48817  -0.48157  -0.47714  -0.47193
  Beta  occ. eigenvalues --   -0.45965  -0.45933  -0.45167  -0.44774  -0.43250
  Beta  occ. eigenvalues --   -0.42970  -0.42907  -0.42579  -0.42550  -0.42443
  Beta  occ. eigenvalues --   -0.41956  -0.41437  -0.40829  -0.40093  -0.39948
  Beta  occ. eigenvalues --   -0.39179  -0.39089  -0.38668  -0.38020  -0.37716
  Beta  occ. eigenvalues --   -0.37527  -0.36736  -0.36586  -0.36065  -0.35093
  Beta  occ. eigenvalues --   -0.34970  -0.34927  -0.34159  -0.33888  -0.33634
  Beta  occ. eigenvalues --   -0.33270  -0.32790  -0.32761  -0.32467  -0.32224
  Beta  occ. eigenvalues --   -0.32099  -0.31930  -0.31648  -0.30113  -0.26585
  Beta  occ. eigenvalues --   -0.25344  -0.25135  -0.25028  -0.24682  -0.23625
  Beta  occ. eigenvalues --   -0.23324  -0.21778
  Beta virt. eigenvalues --   -0.08477  -0.03051  -0.02477  -0.02394  -0.00591
  Beta virt. eigenvalues --   -0.00408  -0.00029   0.00316   0.00592   0.00722
  Beta virt. eigenvalues --    0.00844   0.01040   0.01255   0.01485   0.01754

 Mulliken charges and spin densities:
               1          2
     1  C    0.069991   0.074671
     2  C   -0.393260  -0.001318
     3  C   -0.423211   0.073044
     4  C    0.102686   0.002549
     5  C    0.055926   0.064938
     6  C    0.299657  -0.006139
     7  C   -0.837873   0.168972
     8  C   -0.608588   0.057111
     9  C    1.864938   0.051316
    10  C   -0.765108   0.073888
    11  O   -0.524795   0.229584
    12  O   -0.453153   0.198044
    13  C   -0.308305   0.011505
    14  C   -0.621780  -0.003529
    15  C   -0.158078   0.003039
    16  C   -0.174844  -0.001997
    17  C   -0.288816  -0.000406
    18  C   -0.375699  -0.000046
    19  C   -0.220595   0.000131
    20  C   -0.286653  -0.000015
    21  C   -0.093320  -0.000001
    22  C   -0.828476   0.000009
    23  S   -0.212191  -0.000000
    24  C    1.285011  -0.000000
    25  C   -0.504898   0.000000
    26  C   -0.522119  -0.000001
    27  C   -0.462804  -0.000000
    28  C    0.542282   0.000000
    29  C   -0.450798   0.000000
    30  C   -0.647390  -0.000000
    31  H    0.167403  -0.004056
    32  H    0.182253  -0.000649
    33  H    0.178687  -0.005179
    34  H    0.164809  -0.000288
    35  O   -0.283854   0.015974
    36  H    0.213403  -0.000650
    37  H    0.197930   0.002546
    38  H    0.175958  -0.001645
    39  H    0.165269   0.002130
    40  H    0.109588  -0.000333
    41  H    0.112854   0.000554
    42  H    0.124584  -0.000044
    43  H    0.124291  -0.000019
    44  H    0.132668  -0.000010
    45  H    0.133227   0.000001
    46  H    0.131918   0.000004
    47  H    0.131618  -0.000005
    48  H    0.130474  -0.000012
    49  H    0.130407   0.000005
    50  H    0.132333  -0.000002
    51  H    0.132261   0.000001
    52  H    0.132541   0.000003
    53  H    0.133292  -0.000002
    54  H    0.211393  -0.000001
    55  H    0.212904   0.000001
    56  H    0.203019   0.000000
    57  H    0.202906  -0.000000
    58  H    0.191630   0.000000
    59  H    0.192611   0.000000
    60  H    0.154834  -0.000000
    61  H    0.154433  -0.000000
    62  H    0.173931   0.000000
    63  H    0.290687  -0.003673
 Sum of Mulliken charges =  -1.00000   1.00000

 Dipole moment (field-independent basis, Debye):
    X=            -34.4993    Y=              3.0658    Z=              1.2788  Tot=             34.6588
 Quadrupole moment (field-independent basis, Debye-Ang):
   XX=           -453.7220   YY=           -206.2205   ZZ=           -219.3003
   XY=            -11.3386   XZ=            -34.9801   YZ=              5.8024

 Normal termination of Gaussian 16 at Thu Jan 25 06:02:06 2024.
