 Gaussian 16, Revision A.03,
 Gaussian 16:  ES64L-G16RevA.03 25-Dec-2016

 ----------------------------------------------------------------------
 #P UB3LYP/6-311++G(d,p) nosym opt freq SCRF=(PCM,Solvent=n,n-DiMethylF
 ormamide)
 ----------------------------------------------------------------------

 -------
 Reduced
 -------
 Symbolic Z-matrix:
 Charge = -2 Multiplicity = 1

 SCF Done:  E(UB3LYP) =  -3109.06259199     A.U. after   17 cycles
 SCF Done:  E(UB3LYP) =  -3109.06408955     A.U. after   14 cycles
 SCF Done:  E(UB3LYP) =  -3109.06446374     A.U. after   14 cycles
 SCF Done:  E(UB3LYP) =  -3109.06437185     A.U. after   12 cycles
 SCF Done:  E(UB3LYP) =  -3109.06450004     A.U. after   12 cycles
 SCF Done:  E(UB3LYP) =  -3109.06450270     A.U. after   11 cycles
 SCF Done:  E(UB3LYP) =  -3109.06450284     A.U. after   10 cycles
 Optimization completed.
    -- Stationary point found.
 Normal termination of Gaussian 16 at Sun Feb 11 15:55:02 2024.

 ----------------------------------------------------------------------
 #P Geom=AllCheck Guess=TCheck SCRF=Check GenChk UB3LYP/6-311++G(d,p) F
 req
 ----------------------------------------------------------------------

 Structure from the checkpoint file:  "321-an.chk"
 -------
 Reduced
 -------
 Charge = -2 Multiplicity = 1

                          Input orientation:
 ---------------------------------------------------------------------
 Center     Atomic      Atomic             Coordinates (Angstroms)
 Number     Number       Type             X           Y           Z
 ---------------------------------------------------------------------
      1         35           0        3.730225   -2.159183    0.618058
      2          6           0        2.221404   -0.950382    0.262707
      3          6           0        0.954597   -1.524835    0.316748
      4          6           0       -0.155805   -0.699697    0.074034
      5          6           0       -1.493694   -1.193360    0.108709
      6          6           0       -2.573798   -0.375380   -0.127598
      7          6           0       -2.364674    1.003210   -0.417536
      8          6           0       -1.085623    1.510466   -0.459603
      9          6           0        0.062920    0.699881   -0.219423
     10          6           0        1.385020    1.278590   -0.271231
     11          8           0        1.561158    2.530967   -0.530828
     12          6           0        2.546527    0.407019   -0.018568
     13          8           0        3.753925    0.863651   -0.052333
     14          1           0        0.822860   -2.576504    0.540137
     15          1           0       -1.647373   -2.246742    0.330357
     16          1           0       -3.581770   -0.776711   -0.093738
     17          1           0       -3.216571    1.649919   -0.604115
     18          1           0       -0.919329    2.559091   -0.680680
 ---------------------------------------------------------------------

 SCF Done:  E(UB3LYP) =  -3109.06450284     A.U. after    1 cycles

 Alpha  occ. eigenvalues -- -482.80239 -62.45523 -56.27516 -56.27198 -56.27177
 Alpha  occ. eigenvalues --  -19.02315 -19.02097 -10.18342 -10.17784 -10.17626
 Alpha  occ. eigenvalues --  -10.15358 -10.15094 -10.14980 -10.14784 -10.14647
 Alpha  occ. eigenvalues --  -10.13741 -10.13716  -8.66477  -6.49479  -6.48420
 Alpha  occ. eigenvalues --   -6.48357  -2.60597  -2.60303  -2.60256  -2.59414
 Alpha  occ. eigenvalues --   -2.59413  -0.94853  -0.91786  -0.83540  -0.79541
 Alpha  occ. eigenvalues --   -0.75123  -0.72895  -0.68264  -0.65796  -0.58084
 Alpha  occ. eigenvalues --   -0.56723  -0.54082  -0.48366  -0.46245  -0.45080
 Alpha  occ. eigenvalues --   -0.41458  -0.40537  -0.38797  -0.38026  -0.37621
 Alpha  occ. eigenvalues --   -0.36193  -0.34717  -0.33658  -0.32425  -0.31082
 Alpha  occ. eigenvalues --   -0.30752  -0.27273  -0.26953  -0.26790  -0.23041
 Alpha  occ. eigenvalues --   -0.20756  -0.19140  -0.19071  -0.12304
 Alpha virt. eigenvalues --   -0.01298   0.00004   0.00274   0.01435   0.02084
 Alpha virt. eigenvalues --    0.02279   0.03611   0.03750   0.03763   0.05536
 Alpha virt. eigenvalues --    0.05998   0.06062   0.06264   0.06721   0.07912

  Beta  occ. eigenvalues -- -482.80239 -62.45523 -56.27516 -56.27198 -56.27177
  Beta  occ. eigenvalues --  -19.02315 -19.02097 -10.18342 -10.17784 -10.17626
  Beta  occ. eigenvalues --  -10.15358 -10.15094 -10.14980 -10.14784 -10.14647
  Beta  occ. eigenvalues --  -10.13741 -10.13716  -8.66477  -6.49479  -6.48420
  Beta  occ. eigenvalues --   -6.48357  -2.60597  -2.60303  -2.60256  -2.59414
  Beta  occ. eigenvalues --   -2.59413  -0.94853  -0.91786  -0.83540  -0.79541
  Beta  occ. eigenvalues --   -0.75123  -0.72895  -0.68264  -0.65796  -0.58084
  Beta  occ. eigenvalues --   -0.56723  -0.54082  -0.48366  -0.46245  -0.45080
  Beta  occ. eigenvalues --   -0.41458  -0.40537  -0.38797  -0.38026  -0.37621
  Beta  occ. eigenvalues --   -0.36193  -0.34717  -0.33658  -0.32425  -0.31082
  Beta  occ. eigenvalues --   -0.30752  -0.27273  -0.26953  -0.26790  -0.23041
  Beta  occ. eigenvalues --   -0.20756  -0.19140  -0.19071  -0.12304
  Beta virt. eigenvalues --   -0.01298   0.00004   0.00274   0.01435   0.02084
  Beta virt. eigenvalues --    0.02279   0.03611   0.03750   0.03763   0.05536
  Beta virt. eigenvalues --    0.05998   0.06062   0.06264   0.06721   0.07912

 Mulliken charges and spin densities:
               1          2
     1  Br  -0.272301   0.000000
     2  C    0.694307   0.000000
     3  C   -0.455833   0.000000
     4  C   -0.396286  -0.000000
     5  C   -0.201753  -0.000000
     6  C   -0.409951   0.000000
     7  C   -0.371927   0.000000
     8  C    0.069048   0.000000
     9  C    0.767668  -0.000000
    10  C   -0.494906  -0.000000
    11  O   -0.660233   0.000000
    12  C   -0.369806   0.000000
    13  O   -0.656356  -0.000000
    14  H    0.174219  -0.000000
    15  H    0.125557  -0.000000
    16  H    0.160984  -0.000000
    17  H    0.157803  -0.000000
    18  H    0.139766  -0.000000
 Sum of Mulliken charges =  -2.00000   0.00000

 Dipole moment (field-independent basis, Debye):
    X=            -21.0002    Y=             -8.3190    Z=              1.3026  Tot=             22.6254
 Quadrupole moment (field-independent basis, Debye-Ang):
   XX=           -172.8192   YY=           -126.2360   ZZ=           -100.2929
   XY=            -14.2235   XZ=              0.4338   YZ=              5.7209

  Exact polarizability: 388.656 -19.264 288.377  18.448 -35.194 141.142
 Approx polarizability: 429.067  -9.387 336.776  17.809 -42.554 154.721

                      1                      2                      3
                      A                      A                      A
 Frequencies --     76.8228                85.5611               149.9973
 Red. masses --      8.7088                 6.9883                 5.2861
 Frc consts  --      0.0303                 0.0301                 0.0701
 IR Inten    --      2.6511                 0.1048                 1.7861

                      4                      5                      6
                      A                      A                      A
 Frequencies --    156.5909               221.3300               273.7886
 Red. masses --     10.5508                19.2257                 5.6529
 Frc consts  --      0.1524                 0.5549                 0.2497
 IR Inten    --     13.4299                 1.3638                 0.2827

                      7                      8                      9
                      A                      A                      A
 Frequencies --    287.8157               332.5355               389.8999
 Red. masses --      6.5093                 6.6882                15.2075
 Frc consts  --      0.3177                 0.4357                 1.3621
 IR Inten    --      2.8209                 2.2273                 0.2561

                     10                     11                     12
                      A                      A                      A
 Frequencies --    423.2917               445.1339               505.9141
 Red. masses --      8.8138                 3.3169                 8.9711
 Frc consts  --      0.9305                 0.3872                 1.3529
 IR Inten    --     40.4688                11.0175                 4.5219

                     13                     14                     15
                      A                      A                      A
 Frequencies --    551.7373               571.0116               585.2577
 Red. masses --      3.7513                 4.7563                 7.0955
 Frc consts  --      0.6728                 0.9137                 1.4320
 IR Inten    --      0.9702                48.2133                21.7029

                     16                     17                     18
                      A                      A                      A
 Frequencies --    643.9550               683.3774               719.0111
 Red. masses --      6.4717                 1.9198                 6.8722
 Frc consts  --      1.5812                 0.5282                 2.0932
 IR Inten    --     22.2118                 1.1368                 4.4105

                     19                     20                     21
                      A                      A                      A
 Frequencies --    719.7939               742.1060               753.5370
 Red. masses --      2.0576                 2.2653                 8.3283
 Frc consts  --      0.6281                 0.7350                 2.7862
 IR Inten    --      1.8986                92.4939               310.1671

                     22                     23                     24
                      A                      A                      A
 Frequencies --    777.6134               834.2298               895.5016
 Red. masses --      2.6838                 1.4197                 5.0192
 Frc consts  --      0.9561                 0.5821                 2.3715
 IR Inten    --     63.8447                 0.5392                31.7805

                     25                     26                     27
                      A                      A                      A
 Frequencies --    950.4821               976.4256               981.7374
 Red. masses --      1.3160                 1.2594                 6.9715
 Frc consts  --      0.7005                 0.7075                 3.9588
 IR Inten    --      2.2577                 1.7943                39.4892

                     28                     29                     30
                      A                      A                      A
 Frequencies --   1018.3696              1114.8707              1143.3326
 Red. masses --      2.1188                 1.9565                 1.7125
 Frc consts  --      1.2947                 1.4328                 1.3190
 IR Inten    --     33.9249                93.6768                94.0090

                     31                     32                     33
                      A                      A                      A
 Frequencies --   1163.6962              1202.8368              1234.8786
 Red. masses --      1.5123                 2.2387                 2.2364
 Frc consts  --      1.2066                 1.9084                 2.0094
 IR Inten    --     15.6084               452.5733                57.5055

                     34                     35                     36
                      A                      A                      A
 Frequencies --   1280.6739              1316.5845              1364.8279
 Red. masses --      2.5785                 4.3714                 7.4906
 Frc consts  --      2.4917                 4.4644                 8.2209
 IR Inten    --    327.7745               997.3188                69.5437

                     37                     38                     39
                      A                      A                      A
 Frequencies --   1399.8916              1420.2368              1468.1919
 Red. masses --      2.5197                 6.1619                 3.2752
 Frc consts  --      2.9093                 7.3229                 4.1597
 IR Inten    --    686.4541               593.0415               586.4961

                     40                     41                     42
                      A                      A                      A
 Frequencies --   1491.3617              1528.3770              1551.5550
 Red. masses --      3.3843                 6.7720                 5.7989
 Frc consts  --      4.4349                 9.3202                 8.2249
 IR Inten    --    224.7478               204.7365                47.0903

                     43                     44                     45
                      A                      A                      A
 Frequencies --   1616.2785              3130.0533              3143.9118
 Red. masses --      5.4007                 1.0857                 1.0871
 Frc consts  --      8.3126                 6.2671                 6.3306
 IR Inten    --      2.9406                17.4686                38.8592

                     46                     47                     48
                      A                      A                      A
 Frequencies --   3161.6252              3173.1888              3175.7668
 Red. masses --      1.0926                 1.0940                 1.0903
 Frc consts  --      6.4349                 6.4902                 6.4786
 IR Inten    --     58.7611                63.1551                14.0936

 - Thermochemistry -
 -------------------
 Temperature   298.150 Kelvin.  Pressure   1.00000 Atm.
 Atom     1 has atomic number 35 and mass  78.91834

 Molecular mass:   235.94729 amu.
 Principal axes and moments of inertia in atomic units:
                           1         2         3
     Eigenvalues --  1487.779924952.547166440.31147
           X            0.89069   0.45131  -0.05467
           Y           -0.43098   0.87654   0.21430
           Z            0.14464  -0.16731   0.97524
 This molecule is an asymmetric top.
 Rotational symmetry number  1.
 Warning -- assumption of classical behavior for rotation
           may cause significant error
 Rotational temperatures (Kelvin)      0.05822     0.01749     0.01345
 Rotational constants (GHZ):           1.21304     0.36441     0.28023
 Zero-point vibrational energy     310042.0 (Joules/Mol)
                                   74.10181 (Kcal/Mol)
 Warning -- explicit consideration of  15 degrees of freedom as
           vibrations may cause significant error
 Vibrational temperatures:    110.53   123.10   215.81   225.30   318.44
          (Kelvin)            393.92   414.10   478.44   560.98   609.02
                              640.45   727.90   793.83   821.56   842.06
                              926.51   983.23  1034.50  1035.62  1067.73
                             1084.17  1118.81  1200.27  1288.43  1367.53
                             1404.86  1412.50  1465.21  1604.05  1645.00
                             1674.30  1730.61  1776.71  1842.60  1894.27
                             1963.68  2014.13  2043.40  2112.40  2145.74
                             2198.99  2232.34  2325.46  4503.45  4523.39
                             4548.87  4565.51  4569.22

 Zero-point correction=                           0.118089 (Hartree/Particle)
 Thermal correction to Energy=                    0.128353
 Thermal correction to Enthalpy=                  0.129297
 Thermal correction to Gibbs Free Energy=         0.080956
 Sum of electronic and zero-point Energies=          -3108.946414
 Sum of electronic and thermal Energies=             -3108.936150
 Sum of electronic and thermal Enthalpies=           -3108.935206
 Sum of electronic and thermal Free Energies=        -3108.983547

                     E (Thermal)             CV                S
                      KCal/Mol        Cal/Mol-Kelvin    Cal/Mol-Kelvin
 Total                   80.543             39.677            101.742
 Electronic               0.000              0.000              0.000
 Translational            0.889              2.981             42.277
 Rotational               0.889              2.981             32.229
 Vibrational             78.765             33.715             27.237
 Vibration     1          0.599              1.965              3.970
 Vibration     2          0.601              1.959              3.759
 Vibration     3          0.618              1.903              2.672
 Vibration     4          0.620              1.895              2.591
 Vibration     5          0.648              1.809              1.948
 Vibration     6          0.676              1.722              1.572
 Vibration     7          0.685              1.696              1.487
 Vibration     8          0.714              1.611              1.248
 Vibration     9          0.758              1.492              1.001
 Vibration    10          0.785              1.420              0.881
 Vibration    11          0.805              1.372              0.811
 Vibration    12          0.861              1.237              0.644
 Vibration    13          0.907              1.136              0.541
 Vibration    14          0.927              1.094              0.502
 Vibration    15          0.942              1.063              0.476

                           ! Non-Optimized Parameters !
 Normal termination of Gaussian 16 at Sun Feb 11 16:11:25 2024.
