 Q-Chem 5.4, Q-Chem, Inc., Pleasanton, CA (2021)
 Q-Chem 5.4.0 for Intel X86 EM64T Linux

User input:
--------------------------------------------------------------
$molecule
0 1
C                 -1.4185360000      2.2673840000     -3.9853330000
C                 -1.3982100000      0.8854210000     -4.1054570000
C                 -1.1382650000      0.0872800000     -2.9847600000
C                 -1.1793440000      2.8704250000     -2.7430140000
C                 -0.9193200000      2.0718520000     -1.6217100000
C                 -0.9005100000      0.6764940000     -1.7514860000
C                 -1.2084570000      4.3489310000     -2.6348980000
C                 -0.6599250000      2.6822640000     -0.2955790000
C                 -0.9556620000      4.9629990000     -1.3308450000
C                 -0.6849040000      4.1405670000     -0.1765720000
C                 -0.9808380000      6.3827130000     -1.2127970000
C                 -0.7268910000      6.9402170000      0.0733280000
C                 -0.4745810000      6.1623090000      1.1657030000
C                 -0.4376340000      4.7401100000      1.0920860000
O                 -1.4492000000      5.0151680000     -3.6588390000
O                 -0.4285100000      1.9307130000      0.6697690000
H                 -1.6175320000      2.9056560000     -4.8366980000
H                 -1.5838040000      0.4231080000     -5.0686170000
H                 -1.1227740000     -0.9927380000     -3.0805550000
H                 -0.6967490000      0.0810760000     -0.8707080000
H                 -0.2948780000      6.6495010000      2.1143630000
H                 -0.7353620000      8.0145580000      0.1971130000
N                 -1.2526140000      7.1940960000     -2.2704210000
N                 -0.1568410000      4.0029990000      2.2005120000
H                 -1.4020000000      6.6927330000     -3.1453010000
H                 -0.1723940000      2.9965380000      2.0396120000
C                  0.0397100000      4.5045790000      3.5574880000
C                  0.8361790000      3.4620520000      4.3473190000
C                 -1.2925610000      4.8365330000      4.2504040000
C                 -1.2324050000      8.6539330000     -2.2804020000
C                  0.1984220000      9.2123430000     -2.3589230000
C                 -2.0878340000      9.1409210000     -3.4534910000
H                  0.6463030000      5.4161070000      3.5066730000
H                  1.0120230000      3.8096030000      5.3679340000
H                  1.8022280000      3.2679020000      3.8761280000
H                  0.2866330000      2.5171860000      4.4041850000
H                 -1.8754370000      5.5574550000      3.6725990000
H                 -1.1158150000      5.2588210000      5.2441400000
H                 -1.8960800000      3.9315660000      4.3635680000
H                 -1.7003190000      9.0144110000     -1.3570680000
H                  0.8182340000      8.8417490000     -1.5392660000
H                  0.1889910000     10.3054220000     -2.3123490000
H                  0.6708190000      8.9121270000     -3.2984520000
H                 -1.6801330000      8.7831420000     -4.4041640000
H                 -2.1047620000     10.2327280000     -3.4856130000
H                 -3.1152210000      8.7809190000     -3.3649480000
$end

$rem
BASIS  =  6-311++G(d,p)
GUI  =  2
JOB_TYPE  =  SP
METHOD  =  B3LYP
SCF_CONVERGENCE  = 8
SOLVENT_METHOD = sm12
$end

$smx
solvent dimethylformamide
charges CM5
$end

--------------------------------------------------------------

             Standard Nuclear Orientation (Angstroms)
    I     Atom           X                Y                Z
 ----------------------------------------------------------------
    1      C      -1.4185360000     2.2673840000    -3.9853330000
    2      C      -1.3982100000     0.8854210000    -4.1054570000
    3      C      -1.1382650000     0.0872800000    -2.9847600000
    4      C      -1.1793440000     2.8704250000    -2.7430140000
    5      C      -0.9193200000     2.0718520000    -1.6217100000
    6      C      -0.9005100000     0.6764940000    -1.7514860000
    7      C      -1.2084570000     4.3489310000    -2.6348980000
    8      C      -0.6599250000     2.6822640000    -0.2955790000
    9      C      -0.9556620000     4.9629990000    -1.3308450000
   10      C      -0.6849040000     4.1405670000    -0.1765720000
   11      C      -0.9808380000     6.3827130000    -1.2127970000
   12      C      -0.7268910000     6.9402170000     0.0733280000
   13      C      -0.4745810000     6.1623090000     1.1657030000
   14      C      -0.4376340000     4.7401100000     1.0920860000
   15      O      -1.4492000000     5.0151680000    -3.6588390000
   16      O      -0.4285100000     1.9307130000     0.6697690000
   17      H      -1.6175320000     2.9056560000    -4.8366980000
   18      H      -1.5838040000     0.4231080000    -5.0686170000
   19      H      -1.1227740000    -0.9927380000    -3.0805550000
   20      H      -0.6967490000     0.0810760000    -0.8707080000
   21      H      -0.2948780000     6.6495010000     2.1143630000
   22      H      -0.7353620000     8.0145580000     0.1971130000
   23      N      -1.2526140000     7.1940960000    -2.2704210000
   24      N      -0.1568410000     4.0029990000     2.2005120000
   25      H      -1.4020000000     6.6927330000    -3.1453010000
   26      H      -0.1723940000     2.9965380000     2.0396120000
   27      C       0.0397100000     4.5045790000     3.5574880000
   28      C       0.8361790000     3.4620520000     4.3473190000
   29      C      -1.2925610000     4.8365330000     4.2504040000
   30      C      -1.2324050000     8.6539330000    -2.2804020000
   31      C       0.1984220000     9.2123430000    -2.3589230000
   32      C      -2.0878340000     9.1409210000    -3.4534910000
   33      H       0.6463030000     5.4161070000     3.5066730000
   34      H       1.0120230000     3.8096030000     5.3679340000
   35      H       1.8022280000     3.2679020000     3.8761280000
   36      H       0.2866330000     2.5171860000     4.4041850000
   37      H      -1.8754370000     5.5574550000     3.6725990000
   38      H      -1.1158150000     5.2588210000     5.2441400000
   39      H      -1.8960800000     3.9315660000     4.3635680000
   40      H      -1.7003190000     9.0144110000    -1.3570680000
   41      H       0.8182340000     8.8417490000    -1.5392660000
   42      H       0.1889910000    10.3054220000    -2.3123490000
   43      H       0.6708190000     8.9121270000    -3.2984520000
   44      H      -1.6801330000     8.7831420000    -4.4041640000
   45      H      -2.1047620000    10.2327280000    -3.4856130000
   46      H      -3.1152210000     8.7809190000    -3.3649480000
 ----------------------------------------------------------------

   15   -1035.6510110878      4.48e-09  Convergence criterion met
 Total energy in the final basis set =    -1035.6750619450

                    Orbital Energies (a.u.)
 --------------------------------------------------------------

 Alpha MOs
 -- Occupied --
-19.1086 -19.1086 -14.3322 -14.3322 -10.2618 -10.2618 -10.2393 -10.2393
-10.2182 -10.2182 -10.1968 -10.1963 -10.1961 -10.1958 -10.1943 -10.1939
-10.1903 -10.1898 -10.1876 -10.1876 -10.1620 -10.1620 -10.1618 -10.1618
 -1.0425  -1.0405  -0.9553  -0.9494  -0.8799  -0.8595  -0.8054  -0.8005
 -0.7810  -0.7684  -0.7600  -0.7255  -0.6945  -0.6929  -0.6795  -0.6605
 -0.6501  -0.6180  -0.6036  -0.6017  -0.5879  -0.5494  -0.5457  -0.5314
 -0.5096  -0.5005  -0.4893  -0.4838  -0.4737  -0.4601  -0.4550  -0.4522
 -0.4457  -0.4418  -0.4372  -0.4372  -0.4270  -0.4217  -0.4203  -0.4137
 -0.4018  -0.3965  -0.3932  -0.3893  -0.3863  -0.3780  -0.3751  -0.3690
 -0.3649  -0.3627  -0.3577  -0.3538  -0.3497  -0.3453  -0.3284  -0.2825
 -0.2741  -0.2704  -0.2694  -0.2619  -0.2591  -0.1921

          Ground-State Mulliken Net Atomic Charges

     Atom                 Charge (a.u.)
  ----------------------------------------
      1 C                    -0.115885
      2 C                     0.341179
      3 C                     0.342250
      4 C                    -0.257565
      5 C                    -0.259910
      6 C                    -0.113995
      7 C                    -0.554742
      8 C                    -0.558909
      9 C                    -0.150012
     10 C                    -0.143174
     11 C                    -1.133879
     12 C                     0.428178
     13 C                     0.426682
     14 C                    -1.133565
     15 O                    -0.295087
     16 O                    -0.294541
     17 H                     0.178050
     18 H                     0.316195
     19 H                     0.316112
     20 H                     0.177876
     21 H                     0.410858
     22 H                     0.410512
     23 N                    -0.120756
     24 N                    -0.120042
     25 H                     0.340201
     26 H                     0.340412
     27 C                     0.141990
     28 C                    -0.330543
     29 C                    -0.332129
     30 C                     0.140116
     31 C                    -0.330736
     32 C                    -0.330471
     33 H                     0.171501
     34 H                     0.225225
     35 H                     0.139683
     36 H                     0.140369
     37 H                     0.132322
     38 H                     0.206496
     39 H                     0.116943
     40 H                     0.171131
     41 H                     0.133139
     42 H                     0.206593
     43 H                     0.116772
     44 H                     0.140331
     45 H                     0.225194
     46 H                     0.139633
  ----------------------------------------
  Sum of atomic charges =     0.000000

                    Cartesian Multipole Moments
 -----------------------------------------------------------------
    Charge (ESU x 10^10)
                 0.0000
    Dipole Moment (Debye)
         X       0.4698      Y       4.2516      Z       2.9181
       Tot       5.1781
    Quadrupole Moments (Debye-Ang)
        XX    -148.1768     XY      -0.2482     YY     -82.7494
        XZ       0.7029     YZ      17.9372     ZZ    -132.3357

 Total job time:  2290.59s(wall), 16866.68s(cpu)
        *  Thank you very much for using Q-Chem.  Have a nice day.  *
