 Q-Chem 5.4, Q-Chem, Inc., Pleasanton, CA (2021)
 Q-Chem 5.4.0 for Intel X86 EM64T Linux

User input:
--------------------------------------------------------------
$molecule
-2 1
N                 -4.7629730000      0.3641810000      0.3583680000
C                 -3.7789880000     -0.1876320000      0.6740300000
C                 -2.5953100000     -0.8392160000      1.0431380000
C                 -2.7144110000     -1.9121250000      1.9357130000
N                 -2.8022190000     -2.8109890000      2.6818440000
C                 -1.2858000000     -0.4158020000      0.5168140000
C                 -1.1507380000      0.6623150000     -0.3812240000
C                  0.0867510000      1.0623870000     -0.8786360000
C                  1.2858310000      0.4156950000     -0.5168970000
C                  1.1507780000     -0.6623360000      0.3812010000
C                 -0.0866830000     -1.0624290000      0.8786340000
C                  2.5953610000      0.8391710000     -1.0432340000
C                  3.7790830000      0.1876130000     -0.6742690000
N                  4.7628630000     -0.3645190000     -0.3586290000
C                  2.7144200000      1.9122230000     -1.9355750000
N                  2.8018470000      2.8112940000     -2.6814590000
H                 -2.0403540000      1.1995790000     -0.6963320000
H                  0.1279700000      1.9006250000     -1.5678530000
H                  2.0404230000     -1.1994950000      0.6963530000
H                 -0.1278490000     -1.9005380000      1.5680120000
$end

$rem
BASIS  =  6-311++G(d,p)
GUI  =  2
JOB_TYPE  =  SP
METHOD  =  B3LYP
SCF_CONVERGENCE  = 8
SOLVENT_METHOD = sm12
$end

$smx
solvent dimethylformamide
charges CM5
$end

--------------------------------------------------------------

             Standard Nuclear Orientation (Angstroms)
    I     Atom           X                Y                Z
 ----------------------------------------------------------------
    1      N      -4.7629730000     0.3641810000     0.3583680000
    2      C      -3.7789880000    -0.1876320000     0.6740300000
    3      C      -2.5953100000    -0.8392160000     1.0431380000
    4      C      -2.7144110000    -1.9121250000     1.9357130000
    5      N      -2.8022190000    -2.8109890000     2.6818440000
    6      C      -1.2858000000    -0.4158020000     0.5168140000
    7      C      -1.1507380000     0.6623150000    -0.3812240000
    8      C       0.0867510000     1.0623870000    -0.8786360000
    9      C       1.2858310000     0.4156950000    -0.5168970000
   10      C       1.1507780000    -0.6623360000     0.3812010000
   11      C      -0.0866830000    -1.0624290000     0.8786340000
   12      C       2.5953610000     0.8391710000    -1.0432340000
   13      C       3.7790830000     0.1876130000    -0.6742690000
   14      N       4.7628630000    -0.3645190000    -0.3586290000
   15      C       2.7144200000     1.9122230000    -1.9355750000
   16      N       2.8018470000     2.8112940000    -2.6814590000
   17      H      -2.0403540000     1.1995790000    -0.6963320000
   18      H       0.1279700000     1.9006250000    -1.5678530000
   19      H       2.0404230000    -1.1994950000     0.6963530000
   20      H      -0.1278490000    -1.9005380000     1.5680120000
 ----------------------------------------------------------------

   14    -678.8754598907      5.34e-09  Convergence criterion met
 Total energy in the final basis set =     -679.1076585019

                    Orbital Energies (a.u.)
 --------------------------------------------------------------

 Alpha MOs
 -- Occupied --
-14.3135 -14.3135 -14.3135 -14.3135 -10.2249 -10.2249 -10.2249 -10.2249
-10.2042 -10.2042 -10.2039 -10.2039 -10.1859 -10.1859 -10.1853 -10.1853
 -0.9213  -0.9205  -0.9096  -0.9095  -0.8750  -0.8222  -0.7823  -0.7596
 -0.7226  -0.6356  -0.6177  -0.5838  -0.5566  -0.5445  -0.5022  -0.4564
 -0.4545  -0.4315  -0.4189  -0.4088  -0.3987  -0.3901  -0.3875  -0.3853
 -0.3832  -0.3724  -0.3575  -0.3546  -0.3545  -0.3509  -0.3505  -0.3435
 -0.3410  -0.2996  -0.2704  -0.2267  -0.1802

          Ground-State Mulliken Net Atomic Charges

     Atom                 Charge (a.u.)
  ----------------------------------------
      1 N                    -0.434507
      2 C                    -1.783661
      3 C                     2.383183
      4 C                    -1.782384
      5 N                    -0.434580
      6 C                     1.210493
      7 C                    -0.283623
      8 C                    -0.284764
      9 C                     1.211009
     10 C                    -0.283368
     11 C                    -0.284540
     12 C                     2.382657
     13 C                    -1.783827
     14 N                    -0.434506
     15 C                    -1.782660
     16 N                    -0.434622
     17 H                     0.204963
     18 H                     0.204859
     19 H                     0.204955
     20 H                     0.204924
  ----------------------------------------
  Sum of atomic charges =    -2.000000

                    Cartesian Multipole Moments
 -----------------------------------------------------------------
    Charge (ESU x 10^10)
                -9.6064
    Dipole Moment (Debye)
         X       0.0008      Y       0.0000      Z       0.0002
       Tot       0.0008
    Quadrupole Moments (Debye-Ang)
        XX    -240.5826     XY     -26.9680     YY    -139.4195
        XZ      41.1687     YZ      34.6368     ZZ    -135.5294

 Total job time:  246.84s(wall), 1893.95s(cpu)
        *  Thank you very much for using Q-Chem.  Have a nice day.  *
