 Gaussian 16, Revision A.03,
 Gaussian 16:  ES64L-G16RevA.03 25-Dec-2016

 --------------------------------------
 #P UB3LYP/6-311++G(d,p) nosym opt freq
 --------------------------------------

 -------
 Reduced
 -------
 Symbolic Z-matrix:
 Charge = -2 Multiplicity = 1

 SCF Done:  E(UB3LYP) =  -678.876076858     A.U. after   16 cycles
 SCF Done:  E(UB3LYP) =  -678.876076872     A.U. after    9 cycles
 SCF Done:  E(UB3LYP) =  -678.876076880     A.U. after    9 cycles
 Optimization completed.
    -- Stationary point found.
 Normal termination of Gaussian 16 at Tue Jan  9 20:33:32 2024.

 ----------------------------------------------------------------------
 #P Geom=AllCheck Guess=TCheck SCRF=Check GenChk UB3LYP/6-311++G(d,p) F
 req
 ----------------------------------------------------------------------

 Structure from the checkpoint file:  "347-an.chk"
 -------
 Reduced
 -------
 Charge = -2 Multiplicity = 1

                          Input orientation:
 ---------------------------------------------------------------------
 Center     Atomic      Atomic             Coordinates (Angstroms)
 Number     Number       Type             X           Y           Z
 ---------------------------------------------------------------------
      1          7           0       -4.762973    0.364181    0.358368
      2          6           0       -3.778988   -0.187632    0.674030
      3          6           0       -2.595310   -0.839216    1.043138
      4          6           0       -2.714411   -1.912125    1.935713
      5          7           0       -2.802219   -2.810989    2.681844
      6          6           0       -1.285800   -0.415802    0.516814
      7          6           0       -1.150738    0.662315   -0.381224
      8          6           0        0.086751    1.062387   -0.878636
      9          6           0        1.285831    0.415695   -0.516897
     10          6           0        1.150778   -0.662336    0.381201
     11          6           0       -0.086683   -1.062429    0.878634
     12          6           0        2.595361    0.839171   -1.043234
     13          6           0        3.779083    0.187613   -0.674269
     14          7           0        4.762863   -0.364519   -0.358629
     15          6           0        2.714420    1.912223   -1.935575
     16          7           0        2.801847    2.811294   -2.681459
     17          1           0       -2.040354    1.199579   -0.696332
     18          1           0        0.127970    1.900625   -1.567853
     19          1           0        2.040423   -1.199495    0.696353
     20          1           0       -0.127849   -1.900538    1.568012
 ---------------------------------------------------------------------

 SCF Done:  E(UB3LYP) =  -678.876076880     A.U. after    1 cycles

 Alpha  occ. eigenvalues --  -14.06743 -14.06742 -14.06741 -14.06741  -9.97841
 Alpha  occ. eigenvalues --   -9.97839  -9.97838  -9.97836  -9.96389  -9.96388
 Alpha  occ. eigenvalues --   -9.95965  -9.95964  -9.94759  -9.94757  -9.94703
 Alpha  occ. eigenvalues --   -9.94703  -0.67553  -0.67443  -0.66313  -0.66311
 Alpha  occ. eigenvalues --   -0.63513  -0.57942  -0.53812  -0.52147  -0.48064
 Alpha  occ. eigenvalues --   -0.39599  -0.37772  -0.33903  -0.31311  -0.30563
 Alpha  occ. eigenvalues --   -0.26111  -0.21884  -0.21468  -0.19494  -0.17576
 Alpha  occ. eigenvalues --   -0.16327  -0.15750  -0.14317  -0.14174  -0.13878
 Alpha  occ. eigenvalues --   -0.13654  -0.13028  -0.11851  -0.10760  -0.10748
 Alpha  occ. eigenvalues --   -0.10539  -0.10439  -0.09664  -0.09562  -0.05709
 Alpha  occ. eigenvalues --   -0.03286   0.01772   0.06350
 Alpha virt. eigenvalues --    0.18358   0.19044   0.20101   0.20557   0.20824
 Alpha virt. eigenvalues --    0.21207   0.21561   0.22540   0.22955   0.23075
 Alpha virt. eigenvalues --    0.24173   0.24364   0.24591   0.24703   0.24771

  Beta  occ. eigenvalues --  -14.06743 -14.06742 -14.06741 -14.06741  -9.97841
  Beta  occ. eigenvalues --   -9.97839  -9.97838  -9.97836  -9.96389  -9.96388
  Beta  occ. eigenvalues --   -9.95965  -9.95964  -9.94759  -9.94757  -9.94703
  Beta  occ. eigenvalues --   -9.94703  -0.67553  -0.67443  -0.66313  -0.66311
  Beta  occ. eigenvalues --   -0.63513  -0.57942  -0.53812  -0.52147  -0.48064
  Beta  occ. eigenvalues --   -0.39599  -0.37772  -0.33903  -0.31311  -0.30563
  Beta  occ. eigenvalues --   -0.26111  -0.21884  -0.21468  -0.19494  -0.17576
  Beta  occ. eigenvalues --   -0.16327  -0.15750  -0.14317  -0.14174  -0.13878
  Beta  occ. eigenvalues --   -0.13654  -0.13028  -0.11851  -0.10760  -0.10748
  Beta  occ. eigenvalues --   -0.10539  -0.10439  -0.09664  -0.09562  -0.05709
  Beta  occ. eigenvalues --   -0.03286   0.01772   0.06350
  Beta virt. eigenvalues --    0.18358   0.19044   0.20101   0.20557   0.20824
  Beta virt. eigenvalues --    0.21207   0.21561   0.22540   0.22955   0.23075
  Beta virt. eigenvalues --    0.24173   0.24364   0.24591   0.24703   0.24771

 Mulliken charges and spin densities:
               1          2
     1  N   -0.370150  -0.000000
     2  C   -1.409623   0.000000
     3  C    2.194739   0.000000
     4  C   -1.409470   0.000000
     5  N   -0.370087  -0.000000
     6  C    1.454216  -0.000000
     7  C   -0.645664   0.000000
     8  C   -0.645405  -0.000000
     9  C    1.455040  -0.000000
    10  C   -0.645396   0.000000
    11  C   -0.645488   0.000000
    12  C    2.194319   0.000000
    13  C   -1.409871   0.000000
    14  N   -0.370155  -0.000000
    15  C   -1.409602  -0.000000
    16  N   -0.370105   0.000000
    17  H    0.100673   0.000000
    18  H    0.100678  -0.000000
    19  H    0.100687   0.000000
    20  H    0.100665   0.000000
 Sum of Mulliken charges =  -2.00000  -0.00000

 Dipole moment (field-independent basis, Debye):
    X=              0.0007    Y=              0.0001    Z=              0.0001  Tot=              0.0008
 Quadrupole moment (field-independent basis, Debye-Ang):
   XX=           -238.0003   YY=           -139.0517   ZZ=           -135.0409
   XY=            -26.1988   XZ=             40.1902   YZ=             34.2564

  Exact polarizability: 283.193  11.916 179.226 -35.356 -68.541 158.120
 Approx polarizability: 394.131 -14.868 295.013 -22.137-120.038 246.517

                      1                      2                      3
                      A                      A                      A
 Frequencies --     29.6476                58.3585                65.5444
 Red. masses --     13.5552                 9.4977                 4.1859
 Frc consts  --      0.0070                 0.0191                 0.0106
 IR Inten    --      0.0000                12.7087                 0.0000

                      4                      5                      6
                      A                      A                      A
 Frequencies --     79.6304               125.9815               131.3557
 Red. masses --     12.2278                13.7988                10.3949
 Frc consts  --      0.0457                 0.1290                 0.1057
 IR Inten    --      2.5882                 0.0001                 0.0000

                      7                      8                      9
                      A                      A                      A
 Frequencies --    140.9198               152.2627               220.0926
 Red. masses --     10.1598                12.2422                 9.6976
 Frc consts  --      0.1189                 0.1672                 0.2768
 IR Inten    --      0.0000                29.0403                 5.7139

                     10                     11                     12
                      A                      A                      A
 Frequencies --    289.6677               337.4601               362.8783
 Red. masses --      9.7609                12.1948                 8.1484
 Frc consts  --      0.4825                 0.8182                 0.6322
 IR Inten    --      0.2505                 0.0000                 0.0000

                     13                     14                     15
                      A                      A                      A
 Frequencies --    393.3209               418.6871               508.5930
 Red. masses --      5.5475                 3.1588                 2.7339
 Frc consts  --      0.5056                 0.3262                 0.4167
 IR Inten    --      0.0000                 0.0001                31.3687

                     16                     17                     18
                      A                      A                      A
 Frequencies --    518.3130               519.2390               533.8348
 Red. masses --     12.3002                12.1922                 8.1528
 Frc consts  --      1.9469                 1.9367                 1.3689
 IR Inten    --      0.0000                 0.0003                39.6106

                     19                     20                     21
                      A                      A                      A
 Frequencies --    544.8042               558.0324               595.2399
 Red. masses --     11.6855                 8.7003                11.5902
 Frc consts  --      2.0435                 1.5963                 2.4195
 IR Inten    --      1.2264                 0.0000                 0.0001

                     22                     23                     24
                      A                      A                      A
 Frequencies --    601.2671               649.3409               649.4060
 Red. masses --      6.5341                12.3562                12.3753
 Frc consts  --      1.3918                 3.0696                 3.0750
 IR Inten    --      3.1641                 3.1330                 4.3859

                     25                     26                     27
                      A                      A                      A
 Frequencies --    654.5140               733.5241               740.6074
 Red. masses --      7.1818                 4.0700                 7.3968
 Frc consts  --      1.8127                 1.2902                 2.3904
 IR Inten    --      0.0000                 0.0000                 0.0000

                     28                     29                     30
                      A                      A                      A
 Frequencies --    826.1031               832.5480               938.1637
 Red. masses --      1.2582                 1.7491                 1.3090
 Frc consts  --      0.5059                 0.7143                 0.6788
 IR Inten    --      0.0003                62.4643                 0.0000

                     31                     32                     33
                      A                      A                      A
 Frequencies --    954.5739              1006.4774              1010.3321
 Red. masses --      1.3194                 8.9219                 5.8408
 Frc consts  --      0.7083                 5.3250                 3.5128
 IR Inten    --      0.0001                 0.0000                 0.7624

                     34                     35                     36
                      A                      A                      A
 Frequencies --   1050.0227              1129.5423              1211.1747
 Red. masses --      2.6250                 1.5985                 1.1437
 Frc consts  --      1.7052                 1.2016                 0.9885
 IR Inten    --     13.5876                 0.0137                 0.0000

                     37                     38                     39
                      A                      A                      A
 Frequencies --   1243.7140              1250.5661              1301.1963
 Red. masses --      4.2771                 5.4571                 3.9168
 Frc consts  --      3.8979                 5.0284                 3.9072
 IR Inten    --     59.0839                 0.0028               353.8777

                     40                     41                     42
                      A                      A                      A
 Frequencies --   1306.1882              1310.8394              1348.9007
 Red. masses --     11.8850                10.6811                 1.5087
 Frc consts  --     11.9471                10.8135                 1.6173
 IR Inten    --      0.1364                 0.0044                 0.0000

                     43                     44                     45
                      A                      A                      A
 Frequencies --   1447.3681              1526.8471              1562.2695
 Red. masses --      3.1118                 2.2906                 6.0918
 Frc consts  --      3.8408                 3.1462                 8.7601
 IR Inten    --      3.9417               458.7795                 0.0000

                     46                     47                     48
                      A                      A                      A
 Frequencies --   1641.5641              2174.1952              2175.7058
 Red. masses --      5.4854                12.6389                12.6422
 Frc consts  --      8.7091                35.2012                35.2594
 IR Inten    --      0.0000                 6.3908              1413.4966

                     49                     50                     51
                      A                      A                      A
 Frequencies --   2222.2909              2236.1837              3139.2384
 Red. masses --     12.6505                12.6467                 1.0854
 Frc consts  --     36.8096                37.2600                 6.3019
 IR Inten    --   1183.6707                 0.0611                34.0486

                     52                     53                     54
                      A                      A                      A
 Frequencies --   3140.3046              3157.3650              3160.0433
 Red. masses --      1.0858                 1.0923                 1.0929
 Frc consts  --      6.3086                 6.4157                 6.4302
 IR Inten    --      0.0304                43.0690                 0.0063

 - Thermochemistry -
 -------------------
 Temperature   298.150 Kelvin.  Pressure   1.00000 Atm.
 Atom     1 has atomic number  7 and mass  14.00307

 Molecular mass:   204.04360 amu.
 Principal axes and moments of inertia in atomic units:
                           1         2         3
     Eigenvalues --  1520.831456925.849288446.68046
           X            0.88872  -0.44598   0.10618
           Y            0.28741   0.72245   0.62886
           Z           -0.35717  -0.52836   0.77024
 This molecule is an asymmetric top.
 Rotational symmetry number  1.
 Warning -- assumption of classical behavior for rotation
           may cause significant error
 Rotational temperatures (Kelvin)      0.05695     0.01251     0.01025
 Rotational constants (GHZ):           1.18668     0.26058     0.21366
 Zero-point vibrational energy     328472.1 (Joules/Mol)
                                   78.50671 (Kcal/Mol)
 Warning -- explicit consideration of  22 degrees of freedom as
           vibrations may cause significant error
 Vibrational temperatures:     42.66    83.96    94.30   114.57   181.26
          (Kelvin)            188.99   202.75   219.07   316.66   416.77
                              485.53   522.10   565.90   602.40   731.75
                              745.74   747.07   768.07   783.85   802.88
                              856.42   865.09   934.26   934.35   941.70
                             1055.38  1065.57  1188.58  1197.85  1349.81
                             1373.42  1448.10  1453.64  1510.75  1625.16
                             1742.61  1789.43  1799.29  1872.13  1879.31
                             1886.01  1940.77  2082.44  2196.79  2247.76
                             2361.84  3128.18  3130.36  3197.38  3217.37
                             4516.66  4518.20  4542.74  4546.60

 Zero-point correction=                           0.125108 (Hartree/Particle)
 Thermal correction to Energy=                    0.138765
 Thermal correction to Enthalpy=                  0.139709
 Thermal correction to Gibbs Free Energy=         0.082931
 Sum of electronic and zero-point Energies=           -678.750968
 Sum of electronic and thermal Energies=              -678.737312
 Sum of electronic and thermal Enthalpies=            -678.736368
 Sum of electronic and thermal Free Energies=         -678.793146

                     E (Thermal)             CV                S
                      KCal/Mol        Cal/Mol-Kelvin    Cal/Mol-Kelvin
 Total                   87.076             49.347            119.500
 Electronic               0.000              0.000              0.000
 Translational            0.889              2.981             41.844
 Rotational               0.889              2.981             32.853
 Vibrational             85.299             43.385             44.803
 Vibration     1          0.593              1.984              5.853
 Vibration     2          0.596              1.974              4.512
 Vibration     3          0.597              1.971              4.283
 Vibration     4          0.600              1.963              3.900
 Vibration     5          0.611              1.927              3.006
 Vibration     6          0.612              1.922              2.926
 Vibration     7          0.615              1.912              2.791
 Vibration     8          0.619              1.900              2.644
 Vibration     9          0.647              1.810              1.958
 Vibration    10          0.686              1.693              1.476
 Vibration    11          0.718              1.601              1.224
 Vibration    12          0.737              1.549              1.110
 Vibration    13          0.761              1.484              0.988
 Vibration    14          0.782              1.430              0.896
 Vibration    15          0.864              1.231              0.637
 Vibration    16          0.873              1.209              0.614
 Vibration    17          0.874              1.207              0.612
 Vibration    18          0.889              1.175              0.579
 Vibration    19          0.900              1.151              0.555
 Vibration    20          0.914              1.122              0.528
 Vibration    21          0.953              1.042              0.458
 Vibration    22          0.959              1.029              0.447

 Optimization completed.
    -- Stationary point found.
 Normal termination of Gaussian 16 at Tue Jan  9 20:56:03 2024.
