 Gaussian 16, Revision A.03,
 Gaussian 16:  ES64L-G16RevA.03 25-Dec-2016

 ----------------------------------------------------------------
 #P UB3LYP/6-311++G(d,p) SCRF=(PCM,Solvent=n,n-DiMethylFormamide)
 ----------------------------------------------------------------

 -------
 Reduced
 -------
 Symbolic Z-matrix:
 Charge = -2 Multiplicity = 1

                         Standard orientation:
 ---------------------------------------------------------------------
 Center     Atomic      Atomic             Coordinates (Angstroms)
 Number     Number       Type             X           Y           Z
 ---------------------------------------------------------------------
      1          6           0       -3.184361   -1.393499    0.029936
      2          6           0       -4.383048   -0.712560    0.063321
      3          6           0       -4.383198    0.711723    0.062737
      4          6           0       -1.934573   -0.720498   -0.011709
      5          6           0       -1.934720    0.720115   -0.012183
      6          6           0       -3.184649    1.392883    0.028886
      7          6           0       -0.716085   -1.483682   -0.036174
      8          6           0       -0.716396    1.483569   -0.036938
      9          6           0        0.512117   -0.730451   -0.097030
     10          6           0        0.512005    0.730583   -0.097366
     11          6           0        1.791290   -1.426161   -0.106365
     12          6           0        2.971539   -0.710159   -0.015094
     13          6           0        2.971405    0.710663   -0.015213
     14          6           0        1.791093    1.426484   -0.106705
     15          8           0       -0.769014   -2.790887    0.013706
     16          8           0       -0.769641    2.790764    0.012138
     17          1           0       -3.148558   -2.478026    0.034077
     18          1           0       -5.324648   -1.258803    0.090563
     19          1           0       -5.324915    1.257789    0.089494
     20          1           0       -3.149071    2.477421    0.032147
     21          1           0        3.922548    1.233388    0.004964
     22          1           0        3.922747   -1.232749    0.005132
     23          7           0        1.788296   -2.818578   -0.225767
     24          7           0        1.787998    2.818992   -0.226307
     25          6           0        2.900034   -3.598244    0.232648
     26          6           0        2.898628    3.598776    0.234870
     27          1           0        0.820290   -3.171592   -0.077828
     28          1           0        0.819791    3.171653   -0.078945
     29          1           0        3.245101   -3.325771    1.252744
     30          1           0        3.780483   -3.508028   -0.425409
     31          1           0        2.612308   -4.655751    0.244376
     32          1           0        3.780434    3.509305   -0.421423
     33          1           0        3.241653    3.325803    1.255506
     34          1           0        2.610546    4.656196    0.246644
 ---------------------------------------------------------------------

 SCF Done:  E(UB3LYP) =  -878.569521506     A.U. after   16 cycles

 The electronic state is 1-A.
 Alpha  occ. eigenvalues --  -19.02436 -19.02435 -14.27197 -14.27195 -10.17652
 Alpha  occ. eigenvalues --  -10.17651 -10.17646 -10.17644 -10.17149 -10.17147
 Alpha  occ. eigenvalues --  -10.14952 -10.14908 -10.14563 -10.14561 -10.14064
 Alpha  occ. eigenvalues --  -10.14030 -10.13562 -10.13523 -10.12801 -10.12757
 Alpha  occ. eigenvalues --   -0.94483  -0.94113  -0.89167  -0.88688  -0.82538
 Alpha  occ. eigenvalues --   -0.79568  -0.74790  -0.72296  -0.71262  -0.70552
 Alpha  occ. eigenvalues --   -0.66410  -0.64267  -0.62923  -0.59659  -0.58652
 Alpha  occ. eigenvalues --   -0.54459  -0.53233  -0.50470  -0.49133  -0.46891
 Alpha  occ. eigenvalues --   -0.46759  -0.44442  -0.43124  -0.43116  -0.42620
 Alpha  occ. eigenvalues --   -0.41682  -0.41213  -0.39878  -0.39803  -0.37974
 Alpha  occ. eigenvalues --   -0.37849  -0.37652  -0.37139  -0.35430  -0.34940
 Alpha  occ. eigenvalues --   -0.34331  -0.33767  -0.33121  -0.32908  -0.31592
 Alpha  occ. eigenvalues --   -0.30381  -0.30070  -0.27955  -0.23064  -0.22907
 Alpha  occ. eigenvalues --   -0.21891  -0.21140  -0.20301  -0.19869  -0.15569
 Alpha  occ. eigenvalues --   -0.10327
 Alpha virt. eigenvalues --   -0.01696  -0.00157   0.00445   0.00549   0.00731
 Alpha virt. eigenvalues --    0.02103   0.02190   0.03102   0.03151   0.03863
 Alpha virt. eigenvalues --    0.04011   0.04537   0.04942   0.05280   0.05645

  Beta  occ. eigenvalues --  -19.02436 -19.02435 -14.27197 -14.27195 -10.17652
  Beta  occ. eigenvalues --  -10.17651 -10.17646 -10.17644 -10.17149 -10.17147
  Beta  occ. eigenvalues --  -10.14952 -10.14908 -10.14563 -10.14561 -10.14064
  Beta  occ. eigenvalues --  -10.14030 -10.13562 -10.13523 -10.12801 -10.12757
  Beta  occ. eigenvalues --   -0.94483  -0.94113  -0.89167  -0.88688  -0.82538
  Beta  occ. eigenvalues --   -0.79568  -0.74790  -0.72296  -0.71262  -0.70552
  Beta  occ. eigenvalues --   -0.66410  -0.64267  -0.62923  -0.59659  -0.58652
  Beta  occ. eigenvalues --   -0.54459  -0.53233  -0.50470  -0.49133  -0.46891
  Beta  occ. eigenvalues --   -0.46759  -0.44442  -0.43124  -0.43116  -0.42620
  Beta  occ. eigenvalues --   -0.41682  -0.41213  -0.39878  -0.39803  -0.37974
  Beta  occ. eigenvalues --   -0.37849  -0.37652  -0.37139  -0.35430  -0.34940
  Beta  occ. eigenvalues --   -0.34331  -0.33767  -0.33121  -0.32908  -0.31592
  Beta  occ. eigenvalues --   -0.30381  -0.30070  -0.27955  -0.23064  -0.22907
  Beta  occ. eigenvalues --   -0.21891  -0.21140  -0.20301  -0.19869  -0.15569
  Beta  occ. eigenvalues --   -0.10327
  Beta virt. eigenvalues --   -0.01696  -0.00157   0.00445   0.00549   0.00731
  Beta virt. eigenvalues --    0.02103   0.02190   0.03102   0.03151   0.03863
  Beta virt. eigenvalues --    0.04011   0.04537   0.04942   0.05280   0.05645

 Mulliken charges and spin densities:
               1          2
     1  C   -0.057524   0.000000
     2  C   -0.567488   0.000000
     3  C   -0.567630   0.000000
     4  C    0.094868  -0.000000
     5  C    0.094996   0.000000
     6  C   -0.057523   0.000000
     7  C   -0.305858  -0.000000
     8  C   -0.306247  -0.000000
     9  C    0.332842  -0.000000
    10  C    0.333614   0.000000
    11  C   -0.113487  -0.000000
    12  C   -0.295443  -0.000000
    13  C   -0.295549  -0.000000
    14  C   -0.112848   0.000000
    15  O   -0.621879  -0.000000
    16  O   -0.621827  -0.000000
    17  H    0.144493   0.000000
    18  H    0.157063  -0.000000
    19  H    0.157057   0.000000
    20  H    0.144523  -0.000000
    21  H    0.147459   0.000000
    22  H    0.147556  -0.000000
    23  N   -0.292940   0.000000
    24  N   -0.292841  -0.000000
    25  C   -0.401802  -0.000000
    26  C   -0.401775  -0.000000
    27  H    0.380416   0.000000
    28  H    0.380269  -0.000000
    29  H    0.124335  -0.000000
    30  H    0.134560  -0.000000
    31  H    0.139885   0.000000
    32  H    0.134610  -0.000000
    33  H    0.124322  -0.000000
    34  H    0.139793   0.000000
 Sum of Mulliken charges =  -2.00000  -0.00000

 Dipole moment (field-independent basis, Debye):
    X=              4.3039    Y=             -0.0035    Z=              1.3374  Tot=              4.5069
 Quadrupole moment (field-independent basis, Debye-Ang):
   XX=           -155.2600   YY=           -173.1686   ZZ=           -134.8197
   XY=             -0.0068   XZ=              2.1306   YZ=              0.0206

 Normal termination of Gaussian 16 at Sun Jan 14 01:33:49 2024.
