 Gaussian 16, Revision A.03,
 Gaussian 16:  ES64L-G16RevA.03 25-Dec-2016

 --------------------------------------
 #P UB3LYP/6-311++G(d,p) nosym opt freq
 --------------------------------------

 -------
 Reduced
 -------
 Symbolic Z-matrix:
 Charge = -2 Multiplicity = 1

 SCF Done:  E(UB3LYP) =  -689.152141902     A.U. after   30 cycles
 Optimization completed.
    -- Stationary point found.
 Normal termination of Gaussian 16 at Mon Jan  8 01:36:50 2024.

 ----------------------------------------------------------------------
 #P Geom=AllCheck Guess=TCheck SCRF=Check GenChk UB3LYP/6-311++G(d,p) F
 req
 ----------------------------------------------------------------------

 Structure from the checkpoint file:  "282-an.chk"
 -------
 Reduced
 -------
 Charge = -2 Multiplicity = 1

                          Input orientation:
 ---------------------------------------------------------------------
 Center     Atomic      Atomic             Coordinates (Angstroms)
 Number     Number       Type             X           Y           Z
 ---------------------------------------------------------------------
      1          6           0       -1.820555    3.148669    0.239470
      2          6           0       -2.956264    2.443086   -0.104657
      3          6           0       -2.859881    1.071336   -0.464571
      4          6           0       -0.532494    2.544127    0.249225
      5          6           0       -0.432301    1.143222   -0.127594
      6          6           0       -1.614348    0.459071   -0.470102
      7          6           0        0.628654    3.285481    0.613363
      8          6           0        1.847793    2.565039    0.573335
      9          6           0        1.996039    1.217057    0.217643
     10          6           0        0.849359    0.436012   -0.155272
     11          8           0        0.672344    4.553673    0.969514
     12          8           0        0.934165   -0.804808   -0.483401
     13          1           0       -1.873060    4.197206    0.518218
     14          1           0       -3.927463    2.937502   -0.099954
     15          1           0       -3.752784    0.509880   -0.734214
     16          1           0       -1.503146   -0.586618   -0.743194
     17          6           0        3.348078    0.555178    0.244973
     18          8           0        2.936061    3.341661    0.933741
     19          6           0        4.099082    0.617006   -1.102205
     20          1           0        3.201654   -0.500112    0.504357
     21          1           0        3.975536    1.021469    1.015184
     22          1           0        2.456237    4.194411    1.107289
     23          1           0        3.508907    0.125257   -1.880878
     24          1           0        5.080171    0.116993   -1.043071
     25          1           0        4.269056    1.656454   -1.401758
 ---------------------------------------------------------------------

 SCF Done:  E(UB3LYP) =  -689.152141902     A.U. after    3 cycles

 Alpha  occ. eigenvalues --  -18.86664 -18.77838 -18.77353  -9.93542  -9.93404
 Alpha  occ. eigenvalues --   -9.92499  -9.92293  -9.91877  -9.91703  -9.91499
 Alpha  occ. eigenvalues --   -9.91239  -9.91194  -9.89839  -9.89481  -9.88595
 Alpha  occ. eigenvalues --   -0.77769  -0.68945  -0.67452  -0.58758  -0.54104
 Alpha  occ. eigenvalues --   -0.50768  -0.48673  -0.45697  -0.40339  -0.37702
 Alpha  occ. eigenvalues --   -0.34429  -0.32198  -0.29465  -0.26576  -0.23590
 Alpha  occ. eigenvalues --   -0.21088  -0.20065  -0.19274  -0.17979  -0.16929
 Alpha  occ. eigenvalues --   -0.16426  -0.14732  -0.13074  -0.12067  -0.11872
 Alpha  occ. eigenvalues --   -0.10861  -0.10791  -0.10526  -0.09027  -0.07236
 Alpha  occ. eigenvalues --   -0.06785  -0.05764  -0.04993   0.00847   0.02106
 Alpha  occ. eigenvalues --    0.03479   0.05005   0.05196   0.13620
 Alpha virt. eigenvalues --    0.15981   0.16455   0.18163   0.19779   0.20050
 Alpha virt. eigenvalues --    0.20708   0.21264   0.22651   0.22869   0.23155
 Alpha virt. eigenvalues --    0.23685   0.25002   0.25892   0.27135   0.27825

  Beta  occ. eigenvalues --  -18.86664 -18.77838 -18.77353  -9.93542  -9.93404
  Beta  occ. eigenvalues --   -9.92499  -9.92293  -9.91877  -9.91703  -9.91499
  Beta  occ. eigenvalues --   -9.91239  -9.91194  -9.89839  -9.89481  -9.88595
  Beta  occ. eigenvalues --   -0.77769  -0.68945  -0.67452  -0.58758  -0.54104
  Beta  occ. eigenvalues --   -0.50768  -0.48673  -0.45697  -0.40339  -0.37702
  Beta  occ. eigenvalues --   -0.34429  -0.32198  -0.29465  -0.26576  -0.23590
  Beta  occ. eigenvalues --   -0.21088  -0.20065  -0.19274  -0.17979  -0.16929
  Beta  occ. eigenvalues --   -0.16426  -0.14732  -0.13074  -0.12067  -0.11872
  Beta  occ. eigenvalues --   -0.10861  -0.10791  -0.10526  -0.09027  -0.07236
  Beta  occ. eigenvalues --   -0.06785  -0.05764  -0.04993   0.00847   0.02106
  Beta  occ. eigenvalues --    0.03479   0.05005   0.05196   0.13620
  Beta virt. eigenvalues --    0.15981   0.16455   0.18163   0.19779   0.20050
  Beta virt. eigenvalues --    0.20708   0.21264   0.22651   0.22869   0.23155
  Beta virt. eigenvalues --    0.23685   0.25002   0.25892   0.27135   0.27825

 Mulliken charges and spin densities:
               1          2
     1  C   -0.074336  -0.000000
     2  C   -0.317435  -0.000000
     3  C   -0.372964   0.000000
     4  C    0.495319  -0.000000
     5  C    0.691100   0.000000
     6  C    0.042263  -0.000000
     7  C   -1.323439  -0.000000
     8  C   -0.471305   0.000000
     9  C    2.274803   0.000000
    10  C   -1.068449  -0.000000
    11  O   -0.603892  -0.000000
    12  O   -0.499993  -0.000000
    13  H    0.127335  -0.000000
    14  H    0.066302  -0.000000
    15  H    0.065082   0.000000
    16  H    0.126732  -0.000000
    17  C   -1.215589   0.000000
    18  O   -0.322661  -0.000000
    19  C    0.261222  -0.000000
    20  H    0.088218   0.000000
    21  H    0.126292   0.000000
    22  H    0.242233   0.000000
    23  H    0.163349   0.000000
    24  H   -0.549417   0.000000
    25  H    0.049229   0.000000
 Sum of Mulliken charges =  -2.00000   0.00000

 Dipole moment (field-independent basis, Debye):
    X=             -8.9276    Y=            -16.4179    Z=             -0.5306  Tot=             18.6958
 Quadrupole moment (field-independent basis, Debye-Ang):
   XX=           -165.7138   YY=           -176.4770   ZZ=           -108.3809
   XY=             -5.5612   XZ=              3.2459   YZ=            -14.6044

  Exact polarizability:1398.480-368.948 389.220-245.392  85.321 251.562
 Approx polarizability:2014.100-526.795 587.586-333.132 163.173 325.424

                      1                      2                      3
                      A                      A                      A
 Frequencies --     36.7976                68.8931               110.0895
 Red. masses --      2.6470                 4.4939                 5.9029
 Frc consts  --      0.0021                 0.0126                 0.0422
 IR Inten    --      1.6630                 1.6710                 3.5508

                      4                      5                      6
                      A                      A                      A
 Frequencies --    146.6023               169.0015               217.1186
 Red. masses --      4.7011                 7.3094                 1.3536
 Frc consts  --      0.0595                 0.1230                 0.0376
 IR Inten    --      3.4641                 6.1295                 7.2187

                      7                      8                      9
                      A                      A                      A
 Frequencies --    227.0292               256.9686               313.0471
 Red. masses --      4.7289                 3.9443                 1.8824
 Frc consts  --      0.1436                 0.1535                 0.1087
 IR Inten    --     13.0479                 5.1365                28.3864

                     10                     11                     12
                      A                      A                      A
 Frequencies --    327.0270               346.4282               363.9907
 Red. masses --      5.3784                 6.0650                 8.2707
 Frc consts  --      0.3389                 0.4288                 0.6456
 IR Inten    --      2.2922                27.8395                 8.0798

                     13                     14                     15
                      A                      A                      A
 Frequencies --    394.5850               432.5529               438.4597
 Red. masses --      6.8792                 7.3494                 5.0243
 Frc consts  --      0.6311                 0.8102                 0.5691
 IR Inten    --     36.1825               231.1958                15.1762

                     16                     17                     18
                      A                      A                      A
 Frequencies --    471.9873               509.3414               547.8258
 Red. masses --      4.0220                 7.1314                 5.3643
 Frc consts  --      0.5279                 1.0900                 0.9485
 IR Inten    --    140.6949               202.8645                 4.1517

                     19                     20                     21
                      A                      A                      A
 Frequencies --    613.9135               661.1513               677.2191
 Red. masses --      5.7094                 5.9953                 1.9339
 Frc consts  --      1.2678                 1.5440                 0.5226
 IR Inten    --      8.3492                 6.5232                51.0962

                     22                     23                     24
                      A                      A                      A
 Frequencies --    689.0314               693.2559               724.4061
 Red. masses --      3.1659                 3.3375                 3.6125
 Frc consts  --      0.8856                 0.9451                 1.1169
 IR Inten    --     20.3071                 8.3977                12.2705

                     25                     26                     27
                      A                      A                      A
 Frequencies --    763.0794               769.7055               777.7852
 Red. masses --      2.4465                 1.5973                 1.9268
 Frc consts  --      0.8393                 0.5575                 0.6868
 IR Inten    --      7.0373                 9.7306                23.9300

                     28                     29                     30
                      A                      A                      A
 Frequencies --    809.7212               875.0726               891.8167
 Red. masses --      1.1964                 2.9783                 3.4446
 Frc consts  --      0.4622                 1.3437                 1.6141
 IR Inten    --     35.9804                 5.2125                82.6755

                     31                     32                     33
                      A                      A                      A
 Frequencies --    932.2074               950.2003               969.6604
 Red. masses --      1.2517                 1.3141                 3.8802
 Frc consts  --      0.6409                 0.6990                 2.1495
 IR Inten    --      1.9713                 1.9685                52.5660

                     34                     35                     36
                      A                      A                      A
 Frequencies --   1012.3619              1026.6164              1070.5640
 Red. masses --      2.0820                 3.1466                 1.9495
 Frc consts  --      1.2572                 1.9539                 1.3165
 IR Inten    --    302.9566                60.5130                49.3237

                     37                     38                     39
                      A                      A                      A
 Frequencies --   1089.6698              1110.3561              1124.1029
 Red. masses --      2.1393                 2.1994                 1.4558
 Frc consts  --      1.4966                 1.5977                 1.0839
 IR Inten    --     72.2699               165.7792               200.1722

                     40                     41                     42
                      A                      A                      A
 Frequencies --   1165.4669              1182.7692              1235.2995
 Red. masses --      3.1203                 2.0147                 2.5123
 Frc consts  --      2.4972                 1.6606                 2.2587
 IR Inten    --      9.2678               357.6929               217.6263

                     43                     44                     45
                      A                      A                      A
 Frequencies --   1274.0593              1301.8315              1319.8328
 Red. masses --      2.2331                 1.4444                 3.8699
 Frc consts  --      2.1357                 1.4423                 3.9718
 IR Inten    --     12.7904               324.8792               771.7888

                     46                     47                     48
                      A                      A                      A
 Frequencies --   1341.0380              1359.9362              1367.4062
 Red. masses --      1.6200                 1.7820                 1.4745
 Frc consts  --      1.7165                 1.9418                 1.6244
 IR Inten    --     53.9350               366.6573               578.0455

                     49                     50                     51
                      A                      A                      A
 Frequencies --   1417.0725              1424.3342              1436.6179
 Red. masses --      3.5178                 4.1125                 2.6190
 Frc consts  --      4.1620                 4.9156                 3.1846
 IR Inten    --    378.3034              1367.5164                80.6014

                     52                     53                     54
                      A                      A                      A
 Frequencies --   1462.4678              1474.1948              1481.0534
 Red. masses --      1.2970                 2.1146                 1.2298
 Frc consts  --      1.6344                 2.7076                 1.5894
 IR Inten    --    100.3697               173.6900               118.6195

                     55                     56                     57
                      A                      A                      A
 Frequencies --   1496.7239              1505.4372              1537.3331
 Red. masses --      1.0841                 4.0331                 4.2276
 Frc consts  --      1.4309                 5.3854                 5.8868
 IR Inten    --     72.3627               446.4959              1567.6356

                     58                     59                     60
                      A                      A                      A
 Frequencies --   1579.6442              1595.5095              2938.4740
 Red. masses --      4.3085                 4.2816                 1.0563
 Frc consts  --      6.3342                 6.4217                 5.3736
 IR Inten    --    143.4695              1239.3365                 3.7562

                     61                     62                     63
                      A                      A                      A
 Frequencies --   2987.3106              3025.5767              3039.2108
 Red. masses --      1.0568                 1.1005                 1.0773
 Frc consts  --      5.5563                 5.9354                 5.8630
 IR Inten    --    109.0770                21.1390                47.4020

                     64                     65                     66
                      A                      A                      A
 Frequencies --   3079.5404              3082.8195              3109.6045
 Red. masses --      1.1025                 1.0825                 1.0897
 Frc consts  --      6.1605                 6.0614                 6.2084
 IR Inten    --     29.7759                68.0266               240.6127

                     67                     68                     69
                      A                      A                      A
 Frequencies --   3148.9511              3151.9763              3283.3029
 Red. masses --      1.0901                 1.0914                 1.0639
 Frc consts  --      6.3686                 6.3883                 6.7570
 IR Inten    --     38.3545               188.8868                91.9035

 - Thermochemistry -
 -------------------
 Temperature   298.150 Kelvin.  Pressure   1.00000 Atm.
 Atom     1 has atomic number  6 and mass  12.00000

 Molecular mass:   202.06299 amu.
 Principal axes and moments of inertia in atomic units:
                           1         2         3
     Eigenvalues --  1878.092393462.454365170.29219
           X            0.99121   0.12045  -0.05478
           Y           -0.13167   0.93909  -0.31744
           Z            0.01321   0.32186   0.94669
 This molecule is an asymmetric top.
 Rotational symmetry number  1.
 Warning -- assumption of classical behavior for rotation
           may cause significant error
 Rotational temperatures (Kelvin)      0.04612     0.02502     0.01675
 Rotational constants (GHZ):           0.96094     0.52123     0.34906
 Zero-point vibrational energy     492947.8 (Joules/Mol)
                                  117.81735 (Kcal/Mol)
 Warning -- explicit consideration of  19 degrees of freedom as
           vibrations may cause significant error
 Vibrational temperatures:     52.94    99.12   158.39   210.93   243.16
          (Kelvin)            312.39   326.64   369.72   450.41   470.52
                              498.43   523.70   567.72   622.35   630.85
                              679.08   732.83   788.20   883.28   951.25
                              974.37   991.36   997.44  1042.26  1097.90
                             1107.43  1119.06  1165.01  1259.03  1283.13
                             1341.24  1367.13  1395.13  1456.56  1477.07
                             1540.30  1567.79  1597.55  1617.33  1676.85
                             1701.74  1777.32  1833.09  1873.05  1898.94
                             1929.45  1956.64  1967.39  2038.85  2049.30
                             2066.97  2104.16  2121.04  2130.91  2153.45
                             2165.99  2211.88  2272.76  2295.58  4227.81
                             4298.07  4353.13  4372.75  4430.77  4435.49
                             4474.03  4530.64  4534.99  4723.94

 Zero-point correction=                           0.187754 (Hartree/Particle)
 Thermal correction to Energy=                    0.200441
 Thermal correction to Enthalpy=                  0.201385
 Thermal correction to Gibbs Free Energy=         0.148550
 Sum of electronic and zero-point Energies=           -688.964388
 Sum of electronic and thermal Energies=              -688.951701
 Sum of electronic and thermal Enthalpies=            -688.950757
 Sum of electronic and thermal Free Energies=         -689.003592

                     E (Thermal)             CV                S
                      KCal/Mol        Cal/Mol-Kelvin    Cal/Mol-Kelvin
 Total                  125.779             49.852            111.202
 Electronic               0.000              0.000              0.000
 Translational            0.889              2.981             41.815
 Rotational               0.889              2.981             31.886
 Vibrational            124.001             43.890             37.501
 Vibration     1          0.594              1.982              5.424
 Vibration     2          0.598              1.969              4.185
 Vibration     3          0.606              1.941              3.267
 Vibration     4          0.617              1.906              2.716
 Vibration     5          0.625              1.881              2.447
 Vibration     6          0.646              1.815              1.983
 Vibration     7          0.651              1.800              1.902
 Vibration     8          0.667              1.751              1.682
 Vibration     9          0.701              1.649              1.346
 Vibration    10          0.711              1.621              1.275
 Vibration    11          0.724              1.583              1.182
 Vibration    12          0.738              1.546              1.105
 Vibration    13          0.762              1.482              0.983
 Vibration    14          0.793              1.399              0.850
 Vibration    15          0.799              1.386              0.831
 Vibration    16          0.829              1.312              0.732
 Vibration    17          0.864              1.229              0.635
 Vibration    18          0.903              1.144              0.549
 Vibration    19          0.973              1.002              0.426

 Optimization completed.
    -- Stationary point found.
 Normal termination of Gaussian 16 at Mon Jan  8 02:20:34 2024.
