 Q-Chem 5.4, Q-Chem, Inc., Pleasanton, CA (2021)
 Q-Chem 5.4.0 for Intel X86 EM64T Linux

User input:
--------------------------------------------------------------
$molecule
-2 1
C                 -1.8205550000      3.1486690000      0.2394700000
C                 -2.9562640000      2.4430860000     -0.1046570000
C                 -2.8598810000      1.0713360000     -0.4645710000
C                 -0.5324940000      2.5441270000      0.2492250000
C                 -0.4323010000      1.1432220000     -0.1275940000
C                 -1.6143480000      0.4590710000     -0.4701020000
C                  0.6286540000      3.2854810000      0.6133630000
C                  1.8477930000      2.5650390000      0.5733350000
C                  1.9960390000      1.2170570000      0.2176430000
C                  0.8493590000      0.4360120000     -0.1552720000
O                  0.6723440000      4.5536730000      0.9695140000
O                  0.9341650000     -0.8048080000     -0.4834010000
H                 -1.8730600000      4.1972060000      0.5182180000
H                 -3.9274630000      2.9375020000     -0.0999540000
H                 -3.7527840000      0.5098800000     -0.7342140000
H                 -1.5031460000     -0.5866180000     -0.7431940000
C                  3.3480780000      0.5551780000      0.2449730000
O                  2.9360610000      3.3416610000      0.9337410000
C                  4.0990820000      0.6170060000     -1.1022050000
H                  3.2016540000     -0.5001120000      0.5043570000
H                  3.9755360000      1.0214690000      1.0151840000
H                  2.4562370000      4.1944110000      1.1072890000
H                  3.5089070000      0.1252570000     -1.8808780000
H                  5.0801710000      0.1169930000     -1.0430710000
H                  4.2690560000      1.6564540000     -1.4017580000
$end

$rem
BASIS  =  6-311++G(d,p)
GUI  =  2
JOB_TYPE  =  SP
METHOD  =  B3LYP
SCF_CONVERGENCE  = 8
SOLVENT_METHOD = sm12
$end

$smx
solvent dimethylformamide
charges CM5
$end

--------------------------------------------------------------

             Standard Nuclear Orientation (Angstroms)
    I     Atom           X                Y                Z
 ----------------------------------------------------------------
    1      C      -1.8205550000     3.1486690000     0.2394700000
    2      C      -2.9562640000     2.4430860000    -0.1046570000
    3      C      -2.8598810000     1.0713360000    -0.4645710000
    4      C      -0.5324940000     2.5441270000     0.2492250000
    5      C      -0.4323010000     1.1432220000    -0.1275940000
    6      C      -1.6143480000     0.4590710000    -0.4701020000
    7      C       0.6286540000     3.2854810000     0.6133630000
    8      C       1.8477930000     2.5650390000     0.5733350000
    9      C       1.9960390000     1.2170570000     0.2176430000
   10      C       0.8493590000     0.4360120000    -0.1552720000
   11      O       0.6723440000     4.5536730000     0.9695140000
   12      O       0.9341650000    -0.8048080000    -0.4834010000
   13      H      -1.8730600000     4.1972060000     0.5182180000
   14      H      -3.9274630000     2.9375020000    -0.0999540000
   15      H      -3.7527840000     0.5098800000    -0.7342140000
   16      H      -1.5031460000    -0.5866180000    -0.7431940000
   17      C       3.3480780000     0.5551780000     0.2449730000
   18      O       2.9360610000     3.3416610000     0.9337410000
   19      C       4.0990820000     0.6170060000    -1.1022050000
   20      H       3.2016540000    -0.5001120000     0.5043570000
   21      H       3.9755360000     1.0214690000     1.0151840000
   22      H       2.4562370000     4.1944110000     1.1072890000
   23      H       3.5089070000     0.1252570000    -1.8808780000
   24      H       5.0801710000     0.1169930000    -1.0430710000
   25      H       4.2690560000     1.6564540000    -1.4017580000
 ----------------------------------------------------------------

   18    -689.1456208058      8.02e-09  Convergence criterion met
 Total energy in the final basis set =     -689.4297052149

                    Orbital Energies (a.u.)
 --------------------------------------------------------------

 Alpha MOs
 -- Occupied --
-19.1193 -19.0317 -19.0273 -10.1911 -10.1879 -10.1739 -10.1730 -10.1688
-10.1679 -10.1677 -10.1670 -10.1659 -10.1538 -10.1503 -10.1403  -1.0303
 -0.9441  -0.9287  -0.8416  -0.7933  -0.7593  -0.7414  -0.7079  -0.6559
 -0.6278  -0.5979  -0.5743  -0.5495  -0.5181  -0.4874  -0.4620  -0.4507
 -0.4433  -0.4293  -0.4220  -0.4152  -0.4003  -0.3810  -0.3707  -0.3698
 -0.3616  -0.3601  -0.3564  -0.3414  -0.3260  -0.3218  -0.3117  -0.3028
 -0.2474  -0.2345  -0.2179  -0.2048  -0.2024  -0.1206

          Ground-State Mulliken Net Atomic Charges

     Atom                 Charge (a.u.)
  ----------------------------------------
      1 C                    -0.106308
      2 C                     1.312650
      3 C                     1.144475
      4 C                    -1.562208
      5 C                    -1.450143
      6 C                    -0.459822
      7 C                    -1.940239
      8 C                    -0.365315
      9 C                     1.112368
     10 C                    -2.285213
     11 O                    -0.424826
     12 O                    -0.305191
     13 H                     0.123849
     14 H                     0.395656
     15 H                     0.366696
     16 H                     0.104327
     17 C                     1.120606
     18 O                    -0.083637
     19 C                     0.165827
     20 H                     0.091257
     21 H                     0.199186
     22 H                     0.313648
     23 H                     0.135722
     24 H                     0.289889
     25 H                     0.106746
  ----------------------------------------
  Sum of atomic charges =    -2.000000

                    Cartesian Multipole Moments
 -----------------------------------------------------------------
    Charge (ESU x 10^10)
                -9.6064
    Dipole Moment (Debye)
         X      -5.1257      Y     -17.5365      Z      -1.6119
       Tot      18.3412
    Quadrupole Moments (Debye-Ang)
        XX    -133.6586     XY      -7.1360     YY    -178.1710
        XZ      -2.4675     YZ     -15.0835     ZZ    -106.4519

 Total job time:  564.04s(wall), 3984.26s(cpu)
        *  Thank you very much for using Q-Chem.  Have a nice day.  *
