 Q-Chem 5.4, Q-Chem, Inc., Pleasanton, CA (2021)
 Q-Chem 5.4.0 for Intel X86 EM64T Linux

User input:
--------------------------------------------------------------
$molecule
-1 2
C                 -2.2015320000     -0.3785190000      0.0027990000
C                 -0.7221910000     -0.0973960000      0.0000200000
C                 -0.2248010000      1.1815170000     -0.0385030000
C                  1.1908900000      1.4934880000     -0.0424130000
O                  1.6229150000      2.6835360000     -0.0782590000
C                  2.0715420000      0.3446540000     -0.0022160000
C                  1.5913690000     -0.9383690000      0.0364290000
C                  0.1780330000     -1.2467500000      0.0402130000
O                 -0.2581730000     -2.4358750000      0.0761130000
H                 -2.4913660000     -0.9456260000      0.8942690000
H                 -2.4838850000     -1.0019820000     -0.8527180000
H                 -2.7787730000      0.5503200000     -0.0295030000
H                 -0.9008830000      2.0337130000     -0.0684540000
H                  3.1396180000      0.5467350000     -0.0040510000
H                  2.2672390000     -1.7894450000      0.0662740000
$end
$rem
MAX_SCF_CYCLES=200
BASIS  =  6-311++G(d,p)
GUI  =  2
JOB_TYPE  =  SP
METHOD  =  B3LYP
SOLVENT_METHOD = PCM
$end
$pcm
theory = CPCM
$end
$solvent
dielectric 37.219
opticaldielectric 1.43
$end

--------------------------------------------------------------

             Standard Nuclear Orientation (Angstroms)
    I     Atom           X                Y                Z
 ----------------------------------------------------------------
    1      C      -2.2015320000    -0.3785190000     0.0027990000
    2      C      -0.7221910000    -0.0973960000     0.0000200000
    3      C      -0.2248010000     1.1815170000    -0.0385030000
    4      C       1.1908900000     1.4934880000    -0.0424130000
    5      O       1.6229150000     2.6835360000    -0.0782590000
    6      C       2.0715420000     0.3446540000    -0.0022160000
    7      C       1.5913690000    -0.9383690000     0.0364290000
    8      C       0.1780330000    -1.2467500000     0.0402130000
    9      O      -0.2581730000    -2.4358750000     0.0761130000
   10      H      -2.4913660000    -0.9456260000     0.8942690000
   11      H      -2.4838850000    -1.0019820000    -0.8527180000
   12      H      -2.7787730000     0.5503200000    -0.0295030000
   13      H      -0.9008830000     2.0337130000    -0.0684540000
   14      H       3.1396180000     0.5467350000    -0.0040510000
   15      H       2.2672390000    -1.7894450000     0.0662740000
 ----------------------------------------------------------------

    9    -421.0567771402      7.36e-06  Convergence criterion met
 Total energy in the final basis set =     -421.0567771402

                    Orbital Energies (a.u.)
 --------------------------------------------------------------

 Alpha MOs
 -- Occupied --
-19.0784 -19.0781 -10.2188 -10.2177 -10.1725 -10.1620 -10.1612 -10.1574
-10.1555  -0.9988  -0.9963  -0.8235  -0.7622  -0.6961  -0.6634  -0.5893
 -0.5527  -0.4759  -0.4667  -0.4381  -0.4229  -0.4065  -0.4006  -0.3883
 -0.3865  -0.3690  -0.3626  -0.3498  -0.2811  -0.2511  -0.2445  -0.2386
 -0.1628

 Beta MOs
 -- Occupied --
-19.0715 -19.0713 -10.2173 -10.2160 -10.1713 -10.1609 -10.1599 -10.1566
-10.1556  -0.9867  -0.9840  -0.8175  -0.7594  -0.6911  -0.6555  -0.5852
 -0.5485  -0.4737  -0.4621  -0.4342  -0.4139  -0.4042  -0.3955  -0.3847
 -0.3722  -0.3598  -0.3475  -0.3416  -0.2493  -0.2422  -0.2381  -0.2325

          Ground-State Mulliken Net Atomic Charges

     Atom                 Charge (a.u.)    Spin (a.u.)
  --------------------------------------------------------
      1 C                    -0.463247       0.007187
      2 C                     1.251093       0.098394
      3 C                    -0.769230       0.014520
      4 C                    -0.342139       0.138004
      5 O                    -0.540641       0.235287
      6 C                     0.043640       0.095713
      7 C                     0.089631       0.085255
      8 C                    -0.804252       0.092304
      9 O                    -0.520576       0.246277
     10 H                     0.168450       0.004450
     11 H                     0.168478       0.004451
     12 H                     0.155489      -0.000468
     13 H                     0.170923      -0.006111
     14 H                     0.196217      -0.007496
     15 H                     0.196166      -0.007768
  --------------------------------------------------------
  Sum of atomic charges =    -1.000000

                    Cartesian Multipole Moments
 -----------------------------------------------------------------
    Charge (ESU x 10^10)
                -4.8032
    Dipole Moment (Debye)
         X      -3.8534      Y      -0.9599      Z       0.0140
       Tot       3.9711
    Quadrupole Moments (Debye-Ang)
        XX     -59.8936     XY     -15.4057     YY     -93.7390
        XZ       0.4764     YZ       1.0980     ZZ     -57.1005

 Total job time:  18.50s(wall), 89.67s(cpu)
        *  Thank you very much for using Q-Chem.  Have a nice day.  *
