 Q-Chem 5.4, Q-Chem, Inc., Pleasanton, CA (2021)
 Q-Chem 5.4.0 for Intel X86 EM64T Linux

User input:
--------------------------------------------------------------
$molecule
-1 2
C                  1.0772950000      1.7141060000     -0.6019280000
C                 -0.1569850000      1.2308600000      0.0293630000
C                 -0.4529760000     -0.1071190000      0.1265380000
C                  0.4528020000     -1.1337060000     -0.3977880000
C                  1.6585730000     -0.6636580000     -1.0303690000
C                  1.9412970000      0.6776180000     -1.1329860000
O                  1.3622460000      2.9364980000     -0.6545450000
O                  0.1977990000     -2.3667590000     -0.3050740000
S                  3.4441350000      1.1440650000     -1.9985820000
C                  4.4764050000      2.0142630000     -0.7818630000
C                  4.3053630000      3.3812110000     -0.5744170000
C                  5.4541250000      1.2926820000     -0.1004730000
C                  6.2743790000      1.9531640000      0.8128120000
C                  5.1336970000      4.0314650000      0.3386630000
C                  6.1148850000      3.3216560000      1.0317080000
O                  3.1595430000      2.0900200000     -3.0878140000
O                  4.1743940000     -0.1005710000     -2.3184750000
H                  3.5203960000      3.9013340000     -1.1051840000
H                  5.5688050000      0.2347600000     -0.3012800000
H                  5.0081060000      5.0949780000      0.5116600000
H                  2.3391190000     -1.4036290000     -1.4325900000
H                  7.0395640000      1.4003230000      1.3474070000
C                 -1.7219660000     -0.5858670000      0.7848740000
C                 -1.0870930000      2.2843180000      0.5778290000
H                  6.7540800000      3.8344020000      1.7432900000
H                 -1.7819050000     -0.2580860000      1.8297330000
H                 -1.7565360000     -1.6750050000      0.7562830000
H                 -2.6108670000     -0.1907590000      0.2785800000
H                 -0.6735020000      3.2735460000      0.3827680000
H                 -1.2295700000      2.1717210000      1.6595710000
H                 -2.0808570000      2.2198590000      0.1190490000
$end

$rem
BASIS  =  6-311++G(d,p)
GUI  =  2
JOB_TYPE  =  SP
METHOD  =  B3LYP
SCF_CONVERGENCE  = 8
SOLVENT_METHOD = sm12
$end

$smx
solvent dimethylformamide
charges CM5
$end

--------------------------------------------------------------

             Standard Nuclear Orientation (Angstroms)
    I     Atom           X                Y                Z
 ----------------------------------------------------------------
    1      C       1.0772950000     1.7141060000    -0.6019280000
    2      C      -0.1569850000     1.2308600000     0.0293630000
    3      C      -0.4529760000    -0.1071190000     0.1265380000
    4      C       0.4528020000    -1.1337060000    -0.3977880000
    5      C       1.6585730000    -0.6636580000    -1.0303690000
    6      C       1.9412970000     0.6776180000    -1.1329860000
    7      O       1.3622460000     2.9364980000    -0.6545450000
    8      O       0.1977990000    -2.3667590000    -0.3050740000
    9      S       3.4441350000     1.1440650000    -1.9985820000
   10      C       4.4764050000     2.0142630000    -0.7818630000
   11      C       4.3053630000     3.3812110000    -0.5744170000
   12      C       5.4541250000     1.2926820000    -0.1004730000
   13      C       6.2743790000     1.9531640000     0.8128120000
   14      C       5.1336970000     4.0314650000     0.3386630000
   15      C       6.1148850000     3.3216560000     1.0317080000
   16      O       3.1595430000     2.0900200000    -3.0878140000
   17      O       4.1743940000    -0.1005710000    -2.3184750000
   18      H       3.5203960000     3.9013340000    -1.1051840000
   19      H       5.5688050000     0.2347600000    -0.3012800000
   20      H       5.0081060000     5.0949780000     0.5116600000
   21      H       2.3391190000    -1.4036290000    -1.4325900000
   22      H       7.0395640000     1.4003230000     1.3474070000
   23      C      -1.7219660000    -0.5858670000     0.7848740000
   24      C      -1.0870930000     2.2843180000     0.5778290000
   25      H       6.7540800000     3.8344020000     1.7432900000
   26      H      -1.7819050000    -0.2580860000     1.8297330000
   27      H      -1.7565360000    -1.6750050000     0.7562830000
   28      H      -2.6108670000    -0.1907590000     0.2785800000
   29      H      -0.6735020000     3.2735460000     0.3827680000
   30      H      -1.2295700000     2.1717210000     1.6595710000
   31      H      -2.0808570000     2.2198590000     0.1190490000
 ----------------------------------------------------------------

   18   -1240.0551907827      7.63e-09  Convergence criterion met
 Total energy in the final basis set =    -1240.1421394575

                    Orbital Energies (a.u.)
 --------------------------------------------------------------

 Alpha MOs
 -- Occupied --
-89.0458 -19.1102 -19.1099 -19.0845 -19.0839 -10.2372 -10.2274 -10.2126
-10.1994 -10.1957 -10.1923 -10.1919 -10.1907 -10.1895 -10.1825 -10.1819
-10.1812 -10.1656 -10.1650  -8.1095  -6.0723  -6.0713  -6.0705  -1.1025
 -1.0124  -1.0055  -0.9978  -0.8774  -0.8447  -0.8007  -0.7769  -0.7653
 -0.7351  -0.7085  -0.6782  -0.6552  -0.6246  -0.6083  -0.5747  -0.5657
 -0.5362  -0.5075  -0.4961  -0.4803  -0.4760  -0.4592  -0.4538  -0.4466
 -0.4428  -0.4396  -0.4235  -0.4114  -0.4056  -0.4023  -0.4006  -0.3936
 -0.3881  -0.3811  -0.3748  -0.3658  -0.3624  -0.3572  -0.3344  -0.3205
 -0.3067  -0.2983  -0.2931  -0.2762  -0.2723  -0.2551  -0.2518  -0.2411
 -0.1724

 Beta MOs
 -- Occupied --
-89.0458 -19.1101 -19.1099 -19.0781 -19.0759 -10.2362 -10.2265 -10.2126
-10.1983 -10.1957 -10.1922 -10.1919 -10.1907 -10.1895 -10.1814 -10.1806
-10.1799 -10.1657 -10.1650  -8.1095  -6.0723  -6.0713  -6.0706  -1.1023
 -1.0020  -0.9972  -0.9916  -0.8773  -0.8393  -0.7985  -0.7762  -0.7652
 -0.7325  -0.7049  -0.6737  -0.6519  -0.6245  -0.6069  -0.5713  -0.5640
 -0.5350  -0.5058  -0.4939  -0.4795  -0.4758  -0.4582  -0.4518  -0.4443
 -0.4399  -0.4389  -0.4199  -0.4061  -0.4014  -0.3998  -0.3931  -0.3918
 -0.3846  -0.3776  -0.3646  -0.3620  -0.3552  -0.3499  -0.3336  -0.3199
 -0.3039  -0.2973  -0.2797  -0.2724  -0.2611  -0.2454  -0.2437  -0.2348

          Ground-State Mulliken Net Atomic Charges

     Atom                 Charge (a.u.)    Spin (a.u.)
  --------------------------------------------------------
      1 C                    -1.361848       0.032895
      2 C                    -0.162519       0.006344
      3 C                     0.839137       0.080753
      4 C                    -1.677078       0.062360
      5 C                    -0.191425       0.182556
      6 C                    -0.763871       0.115318
      7 O                    -0.259443       0.238913
      8 O                    -0.348734       0.288623
      9 S                    -0.245678      -0.026443
     10 C                    -1.376723       0.002258
     11 C                    -1.110139       0.017193
     12 C                    -0.000001       0.007775
     13 C                     0.548896      -0.001430
     14 C                     0.422015      -0.004730
     15 C                     1.011742       0.004242
     16 O                    -0.140262       0.006138
     17 O                    -0.169978      -0.002724
     18 H                     0.171767      -0.000945
     19 H                     0.253499       0.000941
     20 H                     0.331614       0.000103
     21 H                     0.180852      -0.016580
     22 H                     0.349861       0.000064
     23 C                     0.503083       0.011850
     24 C                     0.538949      -0.008471
     25 H                     0.388907      -0.000192
     26 H                     0.230049       0.001391
     27 H                     0.184628      -0.002430
     28 H                     0.225909       0.001414
     29 H                     0.206751      -0.001555
     30 H                     0.212329       0.002164
     31 H                     0.207712       0.002206
  --------------------------------------------------------
  Sum of atomic charges =    -1.000000

                    Cartesian Multipole Moments
 -----------------------------------------------------------------
    Charge (ESU x 10^10)
                -4.8032
    Dipole Moment (Debye)
         X      -7.6084      Y      -0.3374      Z       8.6948
       Tot      11.5586
    Quadrupole Moments (Debye-Ang)
        XX    -138.6520     XY      -4.7607     YY    -148.0481
        XZ      31.4860     YZ      11.8754     ZZ    -144.1150

 Total job time:  982.27s(wall), 7643.14s(cpu)
        *  Thank you very much for using Q-Chem.  Have a nice day.  *
