 Gaussian 16, Revision A.03,
 Gaussian 16:  ES64L-G16RevA.03 25-Dec-2016

 ----------------------------------------------------------------------
 #P UB3LYP/6-311++G(d,p) nosym opt freq SCRF=(PCM,Solvent=n,n-DiMethylF
 ormamide)
 ----------------------------------------------------------------------

 -------
 Reduced
 -------
 Symbolic Z-matrix:
 Charge = -2 Multiplicity = 1

 SCF Done:  E(UB3LYP) =  -5686.21437658     A.U. after   16 cycles
 SCF Done:  E(UB3LYP) =  -5686.21490511     A.U. after   13 cycles
 SCF Done:  E(UB3LYP) =  -5686.21524580     A.U. after   13 cycles
 SCF Done:  E(UB3LYP) =  -5686.21477906     A.U. after   13 cycles
 SCF Done:  E(UB3LYP) =  -5686.21538030     A.U. after   12 cycles
 SCF Done:  E(UB3LYP) =  -5686.21540327     A.U. after   11 cycles
 SCF Done:  E(UB3LYP) =  -5686.21540606     A.U. after   11 cycles
 SCF Done:  E(UB3LYP) =  -5686.21540827     A.U. after   10 cycles
 SCF Done:  E(UB3LYP) =  -5686.21540860     A.U. after    9 cycles
 SCF Done:  E(UB3LYP) =  -5686.21540870     A.U. after    8 cycles
 SCF Done:  E(UB3LYP) =  -5686.21540871     A.U. after    8 cycles
 Optimization completed.
    -- Stationary point found.
 Normal termination of Gaussian 16 at Sat Feb 10 11:07:27 2024.

 ----------------------------------------------------------------------
 #P Geom=AllCheck Guess=TCheck SCRF=Check GenChk UB3LYP/6-311++G(d,p) F
 req
 ----------------------------------------------------------------------

 Structure from the checkpoint file:  "015-an.chk"
 -------
 Reduced
 -------
 Charge = -2 Multiplicity = 1

                          Input orientation:
 ---------------------------------------------------------------------
 Center     Atomic      Atomic             Coordinates (Angstroms)
 Number     Number       Type             X           Y           Z
 ---------------------------------------------------------------------
      1          6           0       -1.827935    0.294412   -1.082722
      2          6           0       -1.169597    0.140125    0.309091
      3          6           0       -1.859706   -1.044847    1.013416
      4          6           0       -1.448766    1.403826    1.157549
      5          6           0        0.355140   -0.054600    0.148197
      6          6           0        0.971087   -1.215911    0.605377
      7          6           0        2.364471   -1.528315    0.526230
      8          8           0        2.853447   -2.649713    0.974927
      9          6           0        3.121221   -0.493618   -0.080793
     10          6           0        2.531638    0.694370   -0.557573
     11         35           0        3.627394    2.072857   -1.384775
     12          6           0        1.136789    0.991353   -0.486223
     13          8           0        0.626749    2.092737   -0.944472
     14         35           0        5.035398   -0.809613   -0.215027
     15          1           0       -2.903990    0.477963   -0.979544
     16          1           0       -1.699755   -0.620948   -1.670426
     17          1           0       -1.374849    1.124661   -1.623502
     18          1           0       -1.745891   -1.979266    0.456321
     19          1           0       -2.931577   -0.837844    1.095829
     20          1           0       -1.474990   -1.203142    2.025097
     21          1           0       -1.055353    1.277835    2.172049
     22          1           0       -2.527802    1.581636    1.236711
     23          1           0       -0.975168    2.273549    0.702896
     24          1           0        0.372045   -1.987507    1.075678
 ---------------------------------------------------------------------

 SCF Done:  E(UB3LYP) =  -5686.21540871     A.U. after    1 cycles

 Alpha  occ. eigenvalues -- -482.80505-482.80399 -62.45784 -62.45676 -56.27791
 Alpha  occ. eigenvalues --  -56.27685 -56.27457 -56.27426 -56.27351 -56.27317
 Alpha  occ. eigenvalues --  -19.01850 -19.01435 -10.18447 -10.18375 -10.18187
 Alpha  occ. eigenvalues --  -10.18045 -10.16774 -10.14206 -10.14089 -10.13458
 Alpha  occ. eigenvalues --  -10.13418 -10.12691  -8.66745  -8.66638  -6.49792
 Alpha  occ. eigenvalues --   -6.49685  -6.48677  -6.48585  -6.48574  -6.48473
 Alpha  occ. eigenvalues --   -2.60903  -2.60796  -2.60599  -2.60529  -2.60496
 Alpha  occ. eigenvalues --   -2.60419  -2.59643  -2.59642  -2.59534  -2.59533
 Alpha  occ. eigenvalues --   -0.93372  -0.92867  -0.81748  -0.80211  -0.76218
 Alpha  occ. eigenvalues --   -0.75125  -0.67748  -0.66844  -0.66450  -0.64822
 Alpha  occ. eigenvalues --   -0.56990  -0.53754  -0.50204  -0.45433  -0.44392
 Alpha  occ. eigenvalues --   -0.42062  -0.41447  -0.40644  -0.38854  -0.38535
 Alpha  occ. eigenvalues --   -0.36429  -0.36386  -0.35837  -0.34866  -0.34508
 Alpha  occ. eigenvalues --   -0.32946  -0.32034  -0.31475  -0.31157  -0.30353
 Alpha  occ. eigenvalues --   -0.29430  -0.28240  -0.27540  -0.25370  -0.22532
 Alpha  occ. eigenvalues --   -0.20851  -0.19983  -0.19304  -0.12520
 Alpha virt. eigenvalues --   -0.01672   0.00071   0.01469   0.01614   0.01792
 Alpha virt. eigenvalues --    0.02291   0.02335   0.03610   0.04248   0.04432
 Alpha virt. eigenvalues --    0.04674   0.04749   0.05560   0.06263   0.06328

  Beta  occ. eigenvalues -- -482.80505-482.80399 -62.45784 -62.45676 -56.27791
  Beta  occ. eigenvalues --  -56.27685 -56.27457 -56.27426 -56.27351 -56.27317
  Beta  occ. eigenvalues --  -19.01850 -19.01435 -10.18447 -10.18375 -10.18187
  Beta  occ. eigenvalues --  -10.18045 -10.16774 -10.14206 -10.14089 -10.13458
  Beta  occ. eigenvalues --  -10.13418 -10.12691  -8.66745  -8.66638  -6.49792
  Beta  occ. eigenvalues --   -6.49685  -6.48677  -6.48585  -6.48574  -6.48473
  Beta  occ. eigenvalues --   -2.60903  -2.60796  -2.60599  -2.60529  -2.60496
  Beta  occ. eigenvalues --   -2.60419  -2.59643  -2.59642  -2.59534  -2.59533
  Beta  occ. eigenvalues --   -0.93372  -0.92867  -0.81748  -0.80211  -0.76218
  Beta  occ. eigenvalues --   -0.75125  -0.67748  -0.66844  -0.66450  -0.64822
  Beta  occ. eigenvalues --   -0.56990  -0.53754  -0.50204  -0.45433  -0.44392
  Beta  occ. eigenvalues --   -0.42062  -0.41447  -0.40644  -0.38854  -0.38535
  Beta  occ. eigenvalues --   -0.36429  -0.36386  -0.35837  -0.34866  -0.34508
  Beta  occ. eigenvalues --   -0.32946  -0.32034  -0.31475  -0.31157  -0.30353
  Beta  occ. eigenvalues --   -0.29430  -0.28240  -0.27540  -0.25370  -0.22532
  Beta  occ. eigenvalues --   -0.20851  -0.19983  -0.19304  -0.12520
  Beta virt. eigenvalues --   -0.01672   0.00071   0.01469   0.01614   0.01792
  Beta virt. eigenvalues --    0.02291   0.02335   0.03610   0.04248   0.04432
  Beta virt. eigenvalues --    0.04674   0.04749   0.05560   0.06263   0.06328

 Mulliken charges and spin densities:
               1          2
     1  C   -0.680733  -0.000000
     2  C    0.677162  -0.000000
     3  C   -0.511514   0.000000
     4  C   -0.681449  -0.000000
     5  C    1.172543   0.000000
     6  C   -0.467827   0.000000
     7  C   -0.814339  -0.000000
     8  O   -0.669007  -0.000000
     9  C    0.607202  -0.000000
    10  C   -0.314422   0.000000
    11  Br  -0.212315  -0.000000
    12  C   -0.778472   0.000000
    13  O   -0.578391  -0.000000
    14  Br  -0.204437   0.000000
    15  H    0.136071   0.000000
    16  H    0.120624   0.000000
    17  H    0.183132  -0.000000
    18  H    0.125962  -0.000000
    19  H    0.160893   0.000000
    20  H    0.126690  -0.000000
    21  H    0.119758   0.000000
    22  H    0.135177   0.000000
    23  H    0.184410  -0.000000
    24  H    0.163281   0.000000
 Sum of Mulliken charges =  -2.00000  -0.00000

 Dipole moment (field-independent basis, Debye):
    X=            -22.2547    Y=              1.4944    Z=              1.2163  Tot=             22.3379
 Quadrupole moment (field-independent basis, Debye-Ang):
   XX=           -193.8543   YY=           -166.7362   ZZ=           -128.8120
   XY=             20.5943   XZ=             -1.9707   YZ=             19.2827

  Exact polarizability: 332.273 -11.254 284.611 -18.405 -48.274 206.006
 Approx polarizability: 344.021 -15.523 316.406 -15.857 -56.037 223.474

                      1                      2                      3
                      A                      A                      A
 Frequencies --     42.3877                50.9498                78.9903
 Red. masses --      5.7763                 6.6421                 4.5686
 Frc consts  --      0.0061                 0.0102                 0.0168
 IR Inten    --      2.5706                15.9340                 0.0003

                      4                      5                      6
                      A                      A                      A
 Frequencies --    130.8325               142.3510               170.9886
 Red. masses --     30.4668                 6.7557                 5.9229
 Frc consts  --      0.3073                 0.0807                 0.1020
 IR Inten    --      2.0694                10.0111                13.2763

                      7                      8                      9
                      A                      A                      A
 Frequencies --    210.2541               220.8391               228.1437
 Red. masses --      6.3361                 2.3041                 1.4430
 Frc consts  --      0.1650                 0.0662                 0.0443
 IR Inten    --      1.7545                 0.2568                 1.9963

                     10                     11                     12
                      A                      A                      A
 Frequencies --    241.3985               260.9339               270.6861
 Red. masses --      2.6785                 7.3861                 1.7444
 Frc consts  --      0.0920                 0.2963                 0.0753
 IR Inten    --      0.2748                 2.0863                 4.7973

                     13                     14                     15
                      A                      A                      A
 Frequencies --    292.1546               301.6005               332.6545
 Red. masses --      5.4411                 3.0421                 1.0996
 Frc consts  --      0.2736                 0.1630                 0.0717
 IR Inten    --      0.2925                 4.7289                 0.5586

                     16                     17                     18
                      A                      A                      A
 Frequencies --    336.1228               353.0373               409.5998
 Red. masses --      4.3844                 3.1798                 2.7896
 Frc consts  --      0.2918                 0.2335                 0.2757
 IR Inten    --     17.9423                 0.2049                 0.5306

                     19                     20                     21
                      A                      A                      A
 Frequencies --    410.9993               479.5887               488.3174
 Red. masses --      2.6153                 4.2387                 8.9697
 Frc consts  --      0.2603                 0.5744                 1.2602
 IR Inten    --      2.3394                 1.8357                28.3377

                     22                     23                     24
                      A                      A                      A
 Frequencies --    549.1972               573.1707               669.3079
 Red. masses --      4.8324                 4.2399                 4.6988
 Frc consts  --      0.8588                 0.8207                 1.2402
 IR Inten    --      0.9154                 4.7623                 0.6797

                     25                     26                     27
                      A                      A                      A
 Frequencies --    673.8573               735.7659               752.7985
 Red. masses --      6.3495                 7.7732                 7.9283
 Frc consts  --      1.6987                 2.4793                 2.6472
 IR Inten    --      5.4908                71.8290                13.5360

                     28                     29                     30
                      A                      A                      A
 Frequencies --    813.0078               837.8946               859.1545
 Red. masses --      4.7203                 4.4201                 1.5933
 Frc consts  --      1.8383                 1.8284                 0.6929
 IR Inten    --    243.0632               156.0185                34.7727

                     31                     32                     33
                      A                      A                      A
 Frequencies --    923.7032               926.0561               952.2113
 Red. masses --      1.7711                 1.7349                 1.2017
 Frc consts  --      0.8903                 0.8766                 0.6420
 IR Inten    --      0.5634                 9.5896                 0.7822

                     34                     35                     36
                      A                      A                      A
 Frequencies --    973.1917              1034.1088              1042.2887
 Red. masses --      5.2291                 1.4719                 1.3796
 Frc consts  --      2.9179                 0.9274                 0.8831
 IR Inten    --     57.2248                32.9436                 0.3700

                     37                     38                     39
                      A                      A                      A
 Frequencies --   1100.3571              1138.4347              1211.3992
 Red. masses --      3.0815                10.7369                 2.7383
 Frc consts  --      2.1983                 8.1987                 2.3676
 IR Inten    --     97.9773               284.7824                 9.5098

                     40                     41                     42
                      A                      A                      A
 Frequencies --   1213.9409              1256.6753              1272.0581
 Red. masses --      2.4470                 2.2762                 2.8236
 Frc consts  --      2.1247                 2.1179                 2.6920
 IR Inten    --     38.8025               151.8550               164.6460

                     43                     44                     45
                      A                      A                      A
 Frequencies --   1334.6532              1364.8310              1373.3997
 Red. masses --      5.6665                 1.2192                 1.5119
 Frc consts  --      5.9471                 1.3381                 1.6803
 IR Inten    --    149.3468                18.6283                55.6642

                     46                     47                     48
                      A                      A                      A
 Frequencies --   1374.6658              1394.3164              1414.7881
 Red. masses --      6.3438                 1.8153                 2.0649
 Frc consts  --      7.0631                 2.0793                 2.4351
 IR Inten    --    586.7412               447.1145               771.4010

                     49                     50                     51
                      A                      A                      A
 Frequencies --   1437.4410              1466.2911              1486.3900
 Red. masses --      4.6036                 1.0477                 1.0928
 Frc consts  --      5.6044                 1.3272                 1.4225
 IR Inten    --     63.9029                 0.1930                11.6013

                     52                     53                     54
                      A                      A                      A
 Frequencies --   1487.0594              1488.4179              1499.8008
 Red. masses --      1.0712                 1.0483                 1.0518
 Frc consts  --      1.3957                 1.3684                 1.3940
 IR Inten    --      6.3600                 0.2996                 7.2218

                     55                     56                     57
                      A                      A                      A
 Frequencies --   1515.5885              1589.8013              2997.2255
 Red. masses --      1.0585                 6.9481                 1.0383
 Frc consts  --      1.4325                10.3467                 5.4957
 IR Inten    --     10.1062               103.9955                95.2700

                     58                     59                     60
                      A                      A                      A
 Frequencies --   3001.7748              3014.5102              3052.1528
 Red. masses --      1.0385                 1.0356                 1.1007
 Frc consts  --      5.5134                 5.5449                 6.0412
 IR Inten    --    106.6619               105.3535                51.3257

                     61                     62                     63
                      A                      A                      A
 Frequencies --   3054.8789              3070.9097              3079.4442
 Red. masses --      1.0997                 1.1007                 1.1018
 Frc consts  --      6.0466                 6.1156                 6.1561
 IR Inten    --     83.3098               131.2906                74.8239

                     64                     65                     66
                      A                      A                      A
 Frequencies --   3109.3607              3118.0352              3164.9342
 Red. masses --      1.0989                 1.0971                 1.0864
 Frc consts  --      6.2597                 6.2846                 6.4116
 IR Inten    --     10.4292                13.0978                46.5409

 - Thermochemistry -
 -------------------
 Temperature   298.150 Kelvin.  Pressure   1.00000 Atm.
 Atom     1 has atomic number  6 and mass  12.00000

 Molecular mass:   319.90475 amu.
 Principal axes and moments of inertia in atomic units:
                           1         2         3
     Eigenvalues --  3116.334706599.446049315.29115
           X            0.98956  -0.03034   0.14092
           Y           -0.03327   0.90312   0.42809
           Z           -0.14025  -0.42831   0.89268
 This molecule is an asymmetric top.
 Rotational symmetry number  1.
 Warning -- assumption of classical behavior for rotation
           may cause significant error
 Rotational temperatures (Kelvin)      0.02779     0.01312     0.00930
 Rotational constants (GHZ):           0.57912     0.27347     0.19374
 Zero-point vibrational energy     453696.2 (Joules/Mol)
                                  108.43599 (Kcal/Mol)
 Warning -- explicit consideration of  23 degrees of freedom as
           vibrations may cause significant error
 Vibrational temperatures:     60.99    73.31   113.65   188.24   204.81
          (Kelvin)            246.01   302.51   317.74   328.25   347.32
                              375.43   389.46   420.35   433.94   478.62
                              483.61   507.94   589.32   591.34   690.02
                              702.58   790.17   824.66   962.98   969.53
                             1058.60  1083.11  1169.74  1205.54  1236.13
                             1329.00  1332.39  1370.02  1400.21  1487.85
                             1499.62  1583.17  1637.95  1742.93  1746.59
                             1808.08  1830.21  1920.27  1963.69  1976.02
                             1977.84  2006.11  2035.56  2068.16  2109.67
                             2138.58  2139.55  2141.50  2157.88  2180.59
                             2287.37  4312.34  4318.88  4337.21  4391.37
                             4395.29  4418.35  4430.63  4473.68  4486.16
                             4553.63

 Zero-point correction=                           0.172804 (Hartree/Particle)
 Thermal correction to Energy=                    0.187546
 Thermal correction to Enthalpy=                  0.188490
 Thermal correction to Gibbs Free Energy=         0.129890
 Sum of electronic and zero-point Energies=          -5686.042605
 Sum of electronic and thermal Energies=             -5686.027863
 Sum of electronic and thermal Enthalpies=           -5686.026918
 Sum of electronic and thermal Free Energies=        -5686.085519

                     E (Thermal)             CV                S
                      KCal/Mol        Cal/Mol-Kelvin    Cal/Mol-Kelvin
 Total                  117.687             54.164            123.335
 Electronic               0.000              0.000              0.000
 Translational            0.889              2.981             43.184
 Rotational               0.889              2.981             33.615
 Vibrational            115.910             48.202             46.536
 Vibration     1          0.595              1.980              5.144
 Vibration     2          0.595              1.977              4.780
 Vibration     3          0.600              1.963              3.916
 Vibration     4          0.612              1.922              2.934
 Vibration     5          0.616              1.911              2.772
 Vibration     6          0.626              1.878              2.425
 Vibration     7          0.642              1.825              2.041
 Vibration     8          0.648              1.809              1.952
 Vibration     9          0.651              1.798              1.894
 Vibration    10          0.658              1.777              1.793
 Vibration    11          0.669              1.744              1.656
 Vibration    12          0.674              1.727              1.592
 Vibration    13          0.688              1.688              1.461
 Vibration    14          0.694              1.671              1.408
 Vibration    15          0.715              1.610              1.247
 Vibration    16          0.717              1.603              1.230
 Vibration    17          0.729              1.569              1.153
 Vibration    18          0.774              1.449              0.928
 Vibration    19          0.775              1.446              0.923
 Vibration    20          0.836              1.295              0.711
 Vibration    21          0.844              1.276              0.688
 Vibration    22          0.904              1.141              0.546
 Vibration    23          0.929              1.089              0.498

 Optimization completed.
    -- Stationary point found.
 Normal termination of Gaussian 16 at Sat Feb 10 12:02:12 2024.
