 Q-Chem 5.4, Q-Chem, Inc., Pleasanton, CA (2021)
 Q-Chem 5.4.0 for Intel X86 EM64T Linux

User input:
--------------------------------------------------------------
$molecule
-1 2
N                 -3.4375600000      1.5918770000      0.5957780000
C                 -2.8493550000      0.3475780000      0.3474420000
C                 -3.6699470000     -0.7769370000      0.2891700000
C                 -3.1462810000     -2.0510930000      0.0885550000
C                 -1.7742750000     -2.2659560000     -0.0239760000
N                 -1.3193230000     -3.5656990000     -0.2683530000
C                 -0.8862540000     -1.1441600000      0.0600280000
C                  0.5563070000     -1.3446670000      0.0392070000
O                  1.0466000000     -2.5296860000     -0.0182870000
C                  1.4360150000     -0.1846130000      0.0845740000
C                  2.8587470000     -0.3555370000      0.1068870000
N                  3.4611470000     -1.6119240000      0.2285420000
C                  3.6752730000      0.7724370000      0.0593560000
C                  3.1410350000      2.0555840000     -0.0181790000
C                  1.7649240000      2.2738830000     -0.0119820000
N                  1.2958840000      3.5854830000     -0.1366580000
C                  0.8831580000      1.1468550000      0.0667900000
C                 -0.5563200000      1.3447260000      0.1688710000
O                 -1.0466610000      2.5297790000      0.2255100000
C                 -1.4328530000      0.1819710000      0.2058660000
H                 -2.7945520000      2.3594490000      0.4008480000
H                 -4.3711950000      1.6888800000      0.2238420000
H                 -4.7428830000     -0.6476650000      0.4063280000
H                 -3.8166090000     -2.9036380000      0.0146260000
H                 -1.8933370000     -4.2879760000      0.1418660000
H                 -0.3143170000     -3.6493000000     -0.1146430000
H                  4.3630710000     -1.6823440000     -0.2198380000
H                  2.8030240000     -2.3666620000      0.0337930000
H                  4.7536890000      0.6384650000      0.0860220000
H                  3.8058730000      2.9127790000     -0.0877390000
H                  0.3056670000      3.6566680000      0.0979200000
H                  1.9013070000      4.2814430000      0.2738430000
$end
$rem
MAX_SCF_CYCLES=200
BASIS  =  6-311++G(d,p)
GUI  =  2
JOB_TYPE  =  SP
METHOD  =  B3LYP
SOLVENT_METHOD = PCM
$end
$pcm
theory = CPCM
$end
$solvent
dielectric 37.219
opticaldielectric 1.43
$end

--------------------------------------------------------------

             Standard Nuclear Orientation (Angstroms)
    I     Atom           X                Y                Z
 ----------------------------------------------------------------
    1      N      -3.4375600000     1.5918770000     0.5957780000
    2      C      -2.8493550000     0.3475780000     0.3474420000
    3      C      -3.6699470000    -0.7769370000     0.2891700000
    4      C      -3.1462810000    -2.0510930000     0.0885550000
    5      C      -1.7742750000    -2.2659560000    -0.0239760000
    6      N      -1.3193230000    -3.5656990000    -0.2683530000
    7      C      -0.8862540000    -1.1441600000     0.0600280000
    8      C       0.5563070000    -1.3446670000     0.0392070000
    9      O       1.0466000000    -2.5296860000    -0.0182870000
   10      C       1.4360150000    -0.1846130000     0.0845740000
   11      C       2.8587470000    -0.3555370000     0.1068870000
   12      N       3.4611470000    -1.6119240000     0.2285420000
   13      C       3.6752730000     0.7724370000     0.0593560000
   14      C       3.1410350000     2.0555840000    -0.0181790000
   15      C       1.7649240000     2.2738830000    -0.0119820000
   16      N       1.2958840000     3.5854830000    -0.1366580000
   17      C       0.8831580000     1.1468550000     0.0667900000
   18      C      -0.5563200000     1.3447260000     0.1688710000
   19      O      -1.0466610000     2.5297790000     0.2255100000
   20      C      -1.4328530000     0.1819710000     0.2058660000
   21      H      -2.7945520000     2.3594490000     0.4008480000
   22      H      -4.3711950000     1.6888800000     0.2238420000
   23      H      -4.7428830000    -0.6476650000     0.4063280000
   24      H      -3.8166090000    -2.9036380000     0.0146260000
   25      H      -1.8933370000    -4.2879760000     0.1418660000
   26      H      -0.3143170000    -3.6493000000    -0.1146430000
   27      H       4.3630710000    -1.6823440000    -0.2198380000
   28      H       2.8030240000    -2.3666620000     0.0337930000
   29      H       4.7536890000     0.6384650000     0.0860220000
   30      H       3.8058730000     2.9127790000    -0.0877390000
   31      H       0.3056670000     3.6566680000     0.0979200000
   32      H       1.9013070000     4.2814430000     0.2738430000
 ----------------------------------------------------------------

    8    -910.6137206010      6.24e-06  Convergence criterion met
 Total energy in the final basis set =     -910.6137206010

                    Orbital Energies (a.u.)
 --------------------------------------------------------------

 Alpha MOs
 -- Occupied --
-19.0723 -19.0723 -14.2940 -14.2940 -14.2940 -14.2940 -10.2251 -10.2251
-10.2031 -10.2031 -10.2031 -10.2030 -10.1691 -10.1690 -10.1687 -10.1687
-10.1597 -10.1597 -10.1592 -10.1592  -1.0020  -0.9993  -0.9094  -0.9035
 -0.8985  -0.8928  -0.8291  -0.8085  -0.7736  -0.7352  -0.7185  -0.7019
 -0.6577  -0.6304  -0.6281  -0.5744  -0.5539  -0.5536  -0.5308  -0.5103
 -0.5020  -0.4892  -0.4746  -0.4737  -0.4708  -0.4564  -0.4408  -0.4321
 -0.4286  -0.4227  -0.4040  -0.4033  -0.3864  -0.3850  -0.3798  -0.3786
 -0.3661  -0.3632  -0.3520  -0.3472  -0.3342  -0.3240  -0.2798  -0.2631
 -0.2566  -0.2436  -0.2431  -0.2324  -0.2009  -0.1805  -0.1261

 Beta MOs
 -- Occupied --
-19.0685 -19.0685 -14.2935 -14.2935 -14.2934 -14.2934 -10.2232 -10.2232
-10.2026 -10.2026 -10.2026 -10.2026 -10.1690 -10.1690 -10.1686 -10.1686
-10.1587 -10.1587 -10.1581 -10.1581  -0.9954  -0.9925  -0.9080  -0.9016
 -0.8973  -0.8912  -0.8269  -0.8069  -0.7699  -0.7337  -0.7150  -0.6998
 -0.6519  -0.6281  -0.6260  -0.5732  -0.5521  -0.5513  -0.5303  -0.5096
 -0.5011  -0.4879  -0.4737  -0.4725  -0.4682  -0.4555  -0.4397  -0.4307
 -0.4272  -0.4146  -0.4024  -0.4001  -0.3835  -0.3806  -0.3786  -0.3671
 -0.3636  -0.3619  -0.3460  -0.3398  -0.3305  -0.3147  -0.2712  -0.2579
 -0.2445  -0.2401  -0.2397  -0.2289  -0.1888  -0.1726

          Ground-State Mulliken Net Atomic Charges

     Atom                 Charge (a.u.)    Spin (a.u.)
  --------------------------------------------------------
      1 N                    -0.462872       0.024402
      2 C                    -0.175951       0.045340
      3 C                    -0.374548       0.084932
      4 C                    -0.382732       0.084925
      5 C                    -0.176367       0.045408
      6 N                    -0.463339       0.024423
      7 C                     0.539940      -0.010652
      8 C                    -0.599426       0.093833
      9 O                    -0.503349       0.137192
     10 C                     0.530714      -0.010617
     11 C                    -0.174968       0.045501
     12 N                    -0.463667       0.024433
     13 C                    -0.376051       0.084658
     14 C                    -0.382981       0.084996
     15 C                    -0.172469       0.045466
     16 N                    -0.463252       0.024464
     17 C                     0.535006      -0.010919
     18 C                    -0.602976       0.093945
     19 O                    -0.501932       0.137227
     20 C                     0.529019      -0.010599
     21 H                     0.325681      -0.002409
     22 H                     0.271510      -0.000777
     23 H                     0.188141      -0.006416
     24 H                     0.188339      -0.006416
     25 H                     0.271578      -0.000768
     26 H                     0.325769      -0.002406
     27 H                     0.271444      -0.000771
     28 H                     0.325994      -0.002402
     29 H                     0.188260      -0.006408
     30 H                     0.188180      -0.006399
     31 H                     0.325727      -0.002421
     32 H                     0.271579      -0.000765
  --------------------------------------------------------
  Sum of atomic charges =    -1.000000

                    Cartesian Multipole Moments
 -----------------------------------------------------------------
    Charge (ESU x 10^10)
                -4.8032
    Dipole Moment (Debye)
         X      -0.0002      Y       0.0069      Z      -0.4965
       Tot       0.4966
    Quadrupole Moments (Debye-Ang)
        XX    -112.8599     XY      10.0459     YY    -132.9011
        XZ      -0.3971     YZ      -0.4441     ZZ    -131.2766

 Total job time:  114.56s(wall), 539.16s(cpu)
        *  Thank you very much for using Q-Chem.  Have a nice day.  *
