 Gaussian 16, Revision A.03,
 Gaussian 16:  ES64L-G16RevA.03 25-Dec-2016

 ----------------------------------------------------------------
 #P UB3LYP/6-311++G(d,p) SCRF=(PCM,Solvent=n,n-DiMethylFormamide)
 ----------------------------------------------------------------

 -------
 Reduced
 -------
 Symbolic Z-matrix:
 Charge = -2 Multiplicity = 1

                         Standard orientation:
 ---------------------------------------------------------------------
 Center     Atomic      Atomic             Coordinates (Angstroms)
 Number     Number       Type             X           Y           Z
 ---------------------------------------------------------------------
      1          6           0       -6.459143    0.153740   -0.821189
      2          6           0       -7.101243   -1.062869   -0.797689
      3          6           0       -6.477405   -2.204315   -0.254184
      4          6           0       -5.146524    0.294770   -0.297249
      5          6           0       -4.496756   -0.861375    0.258889
      6          6           0       -5.193994   -2.079931    0.259617
      7          6           0       -4.482195    1.561456   -0.321291
      8          6           0       -3.162304    1.587072    0.233555
      9          6           0       -2.497872    0.497960    0.786244
     10          6           0       -3.137610   -0.792782    0.819580
     11          8           0       -4.969848    2.666990   -0.793960
     12          8           0       -2.568303   -1.818746    1.310147
     13          8           0       -2.584917    2.832601    0.178962
     14          8           0       -8.393316   -1.224835   -1.307533
     15          6           0       -1.111098    0.635366    1.361367
     16          6           0        0.015459    0.283462    0.368522
     17          6           0        1.417482    0.400707    0.979980
     18          6           0        2.557145    0.062820    0.010106
     19          6           0        3.957246    0.196471    0.624069
     20          6           0        5.100779   -0.139833   -0.341553
     21          6           0        6.498664   -0.000256    0.275325
     22          6           0        7.642214   -0.332936   -0.691628
     23          6           0        9.039195   -0.189620   -0.074220
     24          6           0       10.181427   -0.520735   -1.043589
     25          6           0       11.575181   -0.376409   -0.425364
     26          1           0       -6.932621    1.040033   -1.238217
     27          1           0       -7.006511   -3.151499   -0.249005
     28          1           0       -4.681973   -2.937243    0.684383
     29          1           0       -3.313242    3.343875   -0.250094
     30          1           0       -8.670417   -0.365219   -1.639926
     31          1           0       -1.031491   -0.042965    2.218674
     32          1           0       -0.959735    1.661139    1.717172
     33          1           0       -0.059216    0.943582   -0.504403
     34          1           0       -0.148054   -0.739499    0.012537
     35          1           0        1.482883   -0.260175    1.855172
     36          1           0        1.561731    1.422432    1.359304
     37          1           0        2.486371    0.715607   -0.870363
     38          1           0        2.421413   -0.961485   -0.361425
     39          1           0        4.027288   -0.455187    1.505436
     40          1           0        4.090536    1.221481    0.995852
     41          1           0        5.030176    0.509958   -1.224125
     42          1           0        4.970589   -1.165657   -0.711256
     43          1           0        6.571008   -0.651273    1.156755
     44          1           0        6.628235    1.025047    0.646873
     45          1           0        7.569425    0.317465   -1.573515
     46          1           0        7.514870   -1.358964   -1.061797
     47          1           0        9.115645   -0.840534    0.806597
     48          1           0        9.169010    0.835603    0.296573
     49          1           0       10.105925    0.129680   -1.924465
     50          1           0       10.053095   -1.545624   -1.414776
     51          1           0       11.756318    0.647849   -0.079671
     52          1           0       12.364798   -0.620238   -1.144387
     53          1           0       11.703114   -1.042847    0.435394
 ---------------------------------------------------------------------

 SCF Done:  E(UB3LYP) =  -1118.58639504     A.U. after   17 cycles

 The electronic state is 1-A.
 Alpha  occ. eigenvalues --  -19.13791 -19.10870 -19.01995 -19.01526 -10.20765
 Alpha  occ. eigenvalues --  -10.17214 -10.16998 -10.16031 -10.15766 -10.15738
 Alpha  occ. eigenvalues --  -10.15698 -10.15630 -10.15537 -10.15425 -10.15420
 Alpha  occ. eigenvalues --  -10.15363 -10.15034 -10.14726 -10.14400 -10.14225
 Alpha  occ. eigenvalues --  -10.13876 -10.13787 -10.13358 -10.12682 -10.11660
 Alpha  occ. eigenvalues --   -1.04066  -1.02305  -0.93947  -0.92680  -0.82220
 Alpha  occ. eigenvalues --   -0.80818  -0.79409  -0.77676  -0.76021  -0.73964
 Alpha  occ. eigenvalues --   -0.72100  -0.71421  -0.68996  -0.66072  -0.63281
 Alpha  occ. eigenvalues --   -0.61501  -0.60031  -0.58422  -0.57359  -0.56900
 Alpha  occ. eigenvalues --   -0.56500  -0.55688  -0.53515  -0.52071  -0.48609
 Alpha  occ. eigenvalues --   -0.48125  -0.46814  -0.45596  -0.44722  -0.44189
 Alpha  occ. eigenvalues --   -0.43418  -0.43001  -0.42022  -0.41837  -0.40995
 Alpha  occ. eigenvalues --   -0.40215  -0.40033  -0.39400  -0.39289  -0.38478
 Alpha  occ. eigenvalues --   -0.37970  -0.37128  -0.36768  -0.36598  -0.36135
 Alpha  occ. eigenvalues --   -0.35507  -0.35106  -0.34556  -0.33814  -0.33695
 Alpha  occ. eigenvalues --   -0.33143  -0.32970  -0.32350  -0.32110  -0.31767
 Alpha  occ. eigenvalues --   -0.31617  -0.31561  -0.31235  -0.30710  -0.30576
 Alpha  occ. eigenvalues --   -0.30125  -0.28885  -0.28367  -0.22658  -0.21032
 Alpha  occ. eigenvalues --   -0.20939  -0.19256  -0.18480  -0.10126
 Alpha virt. eigenvalues --   -0.00275  -0.00120  -0.00043   0.00503   0.00868
 Alpha virt. eigenvalues --    0.01083   0.01220   0.01560   0.01984   0.02227
 Alpha virt. eigenvalues --    0.02556   0.02922   0.03392   0.03597   0.03907

  Beta  occ. eigenvalues --  -19.13791 -19.10870 -19.01995 -19.01526 -10.20765
  Beta  occ. eigenvalues --  -10.17214 -10.16998 -10.16031 -10.15766 -10.15738
  Beta  occ. eigenvalues --  -10.15698 -10.15630 -10.15537 -10.15425 -10.15420
  Beta  occ. eigenvalues --  -10.15363 -10.15034 -10.14726 -10.14400 -10.14225
  Beta  occ. eigenvalues --  -10.13876 -10.13787 -10.13358 -10.12682 -10.11660
  Beta  occ. eigenvalues --   -1.04066  -1.02305  -0.93947  -0.92680  -0.82220
  Beta  occ. eigenvalues --   -0.80818  -0.79409  -0.77676  -0.76021  -0.73964
  Beta  occ. eigenvalues --   -0.72100  -0.71421  -0.68996  -0.66072  -0.63281
  Beta  occ. eigenvalues --   -0.61501  -0.60031  -0.58422  -0.57359  -0.56900
  Beta  occ. eigenvalues --   -0.56500  -0.55688  -0.53515  -0.52071  -0.48609
  Beta  occ. eigenvalues --   -0.48125  -0.46814  -0.45596  -0.44722  -0.44189
  Beta  occ. eigenvalues --   -0.43418  -0.43001  -0.42022  -0.41837  -0.40995
  Beta  occ. eigenvalues --   -0.40215  -0.40033  -0.39400  -0.39289  -0.38478
  Beta  occ. eigenvalues --   -0.37970  -0.37128  -0.36768  -0.36598  -0.36135
  Beta  occ. eigenvalues --   -0.35507  -0.35106  -0.34556  -0.33814  -0.33695
  Beta  occ. eigenvalues --   -0.33143  -0.32970  -0.32350  -0.32110  -0.31767
  Beta  occ. eigenvalues --   -0.31617  -0.31561  -0.31235  -0.30710  -0.30576
  Beta  occ. eigenvalues --   -0.30125  -0.28885  -0.28367  -0.22658  -0.21032
  Beta  occ. eigenvalues --   -0.20939  -0.19256  -0.18480  -0.10126
  Beta virt. eigenvalues --   -0.00275  -0.00120  -0.00043   0.00503   0.00868
  Beta virt. eigenvalues --    0.01083   0.01220   0.01560   0.01984   0.02227
  Beta virt. eigenvalues --    0.02556   0.02922   0.03392   0.03597   0.03907

 Mulliken charges and spin densities:
               1          2
     1  C    0.166546  -0.000000
     2  C   -0.709108  -0.000000
     3  C   -0.196995  -0.000000
     4  C    0.634025  -0.000000
     5  C   -0.318868   0.000000
     6  C   -0.022547   0.000000
     7  C   -0.982659   0.000000
     8  C   -0.741983   0.000000
     9  C    1.979279  -0.000000
    10  C   -0.717583  -0.000000
    11  O   -0.734939  -0.000000
    12  O   -0.632719   0.000000
    13  O   -0.335505   0.000000
    14  O   -0.322865   0.000000
    15  C   -0.234691   0.000000
    16  C   -0.880474   0.000000
    17  C   -0.331866  -0.000000
    18  C   -0.035741   0.000000
    19  C    0.030661   0.000000
    20  C    0.045170   0.000000
    21  C   -0.051944   0.000000
    22  C   -0.290424  -0.000000
    23  C   -0.490399  -0.000000
    24  C   -0.283226  -0.000000
    25  C   -0.697099  -0.000000
    26  H    0.130395   0.000000
    27  H    0.176512  -0.000000
    28  H    0.148011  -0.000000
    29  H    0.277656  -0.000000
    30  H    0.290007  -0.000000
    31  H    0.174229   0.000000
    32  H    0.199132  -0.000000
    33  H    0.152910  -0.000000
    34  H    0.178531   0.000000
    35  H    0.109255   0.000000
    36  H    0.105064   0.000000
    37  H    0.123213  -0.000000
    38  H    0.122625  -0.000000
    39  H    0.131507  -0.000000
    40  H    0.129947  -0.000000
    41  H    0.129010  -0.000000
    42  H    0.128796   0.000000
    43  H    0.128574   0.000000
    44  H    0.127929   0.000000
    45  H    0.126432   0.000000
    46  H    0.127084   0.000000
    47  H    0.124166   0.000000
    48  H    0.124032   0.000000
    49  H    0.131026  -0.000000
    50  H    0.131124   0.000000
    51  H    0.140314   0.000000
    52  H    0.148203   0.000000
    53  H    0.140273  -0.000000
 Sum of Mulliken charges =  -2.00000  -0.00000

 Dipole moment (field-independent basis, Debye):
    X=             37.8100    Y=             -1.7816    Z=             -2.2768  Tot=             37.9203
 Quadrupole moment (field-independent basis, Debye-Ang):
   XX=           -346.3327   YY=           -206.6045   ZZ=           -174.8705
   XY=              7.2194   XZ=             -2.3931   YZ=              9.0477

 Normal termination of Gaussian 16 at Thu Jan 25 05:59:19 2024.
