 Q-Chem 5.4, Q-Chem, Inc., Pleasanton, CA (2021)
 Q-Chem 5.4.0 for Intel X86 EM64T Linux

User input:
--------------------------------------------------------------
$molecule
-2 1
C                  5.0647390000     -2.2622240000      0.6670290000
C                  5.8839250000     -1.4354870000     -0.0745640000
C                  5.3105280000     -0.5478580000     -1.0264250000
C                  3.6555720000     -2.2612800000      0.5163560000
C                  3.0728350000     -1.3594660000     -0.4521850000
C                  3.9413280000     -0.5239210000     -1.1976490000
C                  2.8557210000     -3.1614880000      1.3287750000
C                  1.4242180000     -3.0818030000      1.0977750000
C                  0.8442840000     -2.1813010000      0.1296080000
C                  1.6418130000     -1.2837170000     -0.6858030000
C                  0.5549950000     -3.9205180000      1.8412220000
C                 -0.5635770000     -2.1950730000     -0.0262120000
C                 -1.3762210000     -3.0319880000      0.7084000000
O                  3.3751220000     -3.9621170000      2.1787600000
O                  1.1262780000     -0.4879410000     -1.5435110000
H                  5.4715010000     -2.9509120000      1.4009840000
H                  6.9626900000     -1.4608810000      0.0672780000
H                  5.9491170000      0.1079140000     -1.6152110000
H                 -2.4529240000     -3.0263890000      0.5461960000
H                  3.4728370000      0.1416220000     -1.9160420000
H                  1.0274020000     -4.5841590000      2.5603010000
H                 -0.9771460000     -1.5176350000     -0.7666190000
C                 -0.8162730000     -3.9234640000      1.6719330000
C                 -1.7221610000     -4.8187950000      2.4944610000
C                 -2.3819780000     -4.0692360000      3.6503280000
O                 -3.3131890000     -4.9400670000      4.3196710000
H                 -1.1544270000     -5.6614440000      2.9020350000
H                 -2.5183760000     -5.2404370000      1.8672260000
H                 -2.9037320000     -3.1843140000      3.2645760000
H                 -1.6109730000     -3.7238620000      4.3517260000
H                 -3.7661580000     -4.4373190000      5.0140040000
$end

$rem
BASIS  =  6-311++G(d,p)
GUI  =  2
JOB_TYPE  =  SP
METHOD  =  B3LYP
SCF_CONVERGENCE  = 8
SOLVENT_METHOD = sm12
$end

$smx
solvent dimethylformamide
charges CM5
$end

--------------------------------------------------------------

             Standard Nuclear Orientation (Angstroms)
    I     Atom           X                Y                Z
 ----------------------------------------------------------------
    1      C       5.0647390000    -2.2622240000     0.6670290000
    2      C       5.8839250000    -1.4354870000    -0.0745640000
    3      C       5.3105280000    -0.5478580000    -1.0264250000
    4      C       3.6555720000    -2.2612800000     0.5163560000
    5      C       3.0728350000    -1.3594660000    -0.4521850000
    6      C       3.9413280000    -0.5239210000    -1.1976490000
    7      C       2.8557210000    -3.1614880000     1.3287750000
    8      C       1.4242180000    -3.0818030000     1.0977750000
    9      C       0.8442840000    -2.1813010000     0.1296080000
   10      C       1.6418130000    -1.2837170000    -0.6858030000
   11      C       0.5549950000    -3.9205180000     1.8412220000
   12      C      -0.5635770000    -2.1950730000    -0.0262120000
   13      C      -1.3762210000    -3.0319880000     0.7084000000
   14      O       3.3751220000    -3.9621170000     2.1787600000
   15      O       1.1262780000    -0.4879410000    -1.5435110000
   16      H       5.4715010000    -2.9509120000     1.4009840000
   17      H       6.9626900000    -1.4608810000     0.0672780000
   18      H       5.9491170000     0.1079140000    -1.6152110000
   19      H      -2.4529240000    -3.0263890000     0.5461960000
   20      H       3.4728370000     0.1416220000    -1.9160420000
   21      H       1.0274020000    -4.5841590000     2.5603010000
   22      H      -0.9771460000    -1.5176350000    -0.7666190000
   23      C      -0.8162730000    -3.9234640000     1.6719330000
   24      C      -1.7221610000    -4.8187950000     2.4944610000
   25      C      -2.3819780000    -4.0692360000     3.6503280000
   26      O      -3.3131890000    -4.9400670000     4.3196710000
   27      H      -1.1544270000    -5.6614440000     2.9020350000
   28      H      -2.5183760000    -5.2404370000     1.8672260000
   29      H      -2.9037320000    -3.1843140000     3.2645760000
   30      H      -1.6109730000    -3.7238620000     4.3517260000
   31      H      -3.7661580000    -4.4373190000     5.0140040000
 ----------------------------------------------------------------

   18    -842.8056487614      4.86e-09  Convergence criterion met
 Total energy in the final basis set =     -843.0954401945

                    Orbital Energies (a.u.)
 --------------------------------------------------------------

 Alpha MOs
 -- Occupied --
-19.1281 -19.0299 -19.0281 -10.2201 -10.1880 -10.1865 -10.1765 -10.1736
-10.1732 -10.1727 -10.1692 -10.1689 -10.1684 -10.1667 -10.1619 -10.1523
-10.1520 -10.1519 -10.1515  -1.0220  -0.9508  -0.9477  -0.8479  -0.8432
 -0.7879  -0.7580  -0.7429  -0.7352  -0.7131  -0.6508  -0.6342  -0.6179
 -0.5910  -0.5790  -0.5442  -0.5264  -0.5206  -0.4991  -0.4783  -0.4556
 -0.4490  -0.4454  -0.4328  -0.4211  -0.4200  -0.4148  -0.3947  -0.3939
 -0.3824  -0.3759  -0.3648  -0.3624  -0.3560  -0.3421  -0.3366  -0.3353
 -0.3307  -0.3142  -0.3125  -0.2817  -0.2538  -0.2407  -0.2363  -0.2309
 -0.2088  -0.2018  -0.1152

          Ground-State Mulliken Net Atomic Charges

     Atom                 Charge (a.u.)
  ----------------------------------------
      1 C                    -0.367347
      2 C                     1.503949
      3 C                     1.547094
      4 C                    -1.338248
      5 C                    -2.141035
      6 C                    -0.372992
      7 C                    -2.485960
      8 C                    -2.572324
      9 C                    -3.201182
     10 C                    -3.570621
     11 C                    -0.917936
     12 C                     0.092238
     13 C                     1.590189
     14 O                    -0.326357
     15 O                    -0.306235
     16 H                     0.102883
     17 H                     0.398091
     18 H                     0.398263
     19 H                     0.263779
     20 H                     0.115533
     21 H                    -0.088869
     22 H                     0.169877
     23 C                     3.594257
     24 C                     4.435943
     25 C                     0.199548
     26 O                    -0.206841
     27 H                     0.376392
     28 H                     0.310420
     29 H                     0.253313
     30 H                     0.197447
     31 H                     0.346730
  ----------------------------------------
  Sum of atomic charges =    -2.000000

                    Cartesian Multipole Moments
 -----------------------------------------------------------------
    Charge (ESU x 10^10)
                -9.6064
    Dipole Moment (Debye)
         X     -22.2627      Y      22.6568      Z      -2.3957
       Tot      31.8543
    Quadrupole Moments (Debye-Ang)
        XX    -210.5531     XY      45.0965     YY    -209.3000
        XZ     -14.2646     YZ      33.7166     ZZ    -144.6374

 Total job time:  932.63s(wall), 7277.56s(cpu)
        *  Thank you very much for using Q-Chem.  Have a nice day.  *
