 Gaussian 16, Revision A.03,
 Gaussian 16:  ES64L-G16RevA.03 25-Dec-2016

 ----------------------------------------------------------------------
 #P UB3LYP/6-311++G(d,p) nosym opt freq SCRF=(PCM,Solvent=n,n-DiMethylF
 ormamide)
 ----------------------------------------------------------------------

 -------
 Reduced
 -------
 Symbolic Z-matrix:
 Charge = -2 Multiplicity = 1

 SCF Done:  E(UB3LYP) =  -3415.01286660     A.U. after   17 cycles
 SCF Done:  E(UB3LYP) =  -3415.01353122     A.U. after   13 cycles
 SCF Done:  E(UB3LYP) =  -3415.01370499     A.U. after   12 cycles
 SCF Done:  E(UB3LYP) =  -3415.01370580     A.U. after   12 cycles
 SCF Done:  E(UB3LYP) =  -3415.01371146     A.U. after   10 cycles
 Optimization completed.
    -- Stationary point found.
 Normal termination of Gaussian 16 at Sat Feb 10 10:14:14 2024.

 ----------------------------------------------------------------------
 #P Geom=AllCheck Guess=TCheck SCRF=Check GenChk UB3LYP/6-311++G(d,p) F
 req
 ----------------------------------------------------------------------

 Structure from the checkpoint file:  "008-an.chk"
 -------
 Reduced
 -------
 Charge = -2 Multiplicity = 1

                          Input orientation:
 ---------------------------------------------------------------------
 Center     Atomic      Atomic             Coordinates (Angstroms)
 Number     Number       Type             X           Y           Z
 ---------------------------------------------------------------------
      1          6           0       -1.297048    2.081888    0.578876
      2          6           0       -2.508325    1.410776    0.229232
      3          6           0       -2.625988    0.130725   -0.307651
      4          6           0       -1.481921   -0.676423   -0.577324
      5          6           0       -0.242918   -0.052445   -0.250708
      6          6           0       -0.186548    1.230744    0.285315
      7          8           0       -1.563282   -1.880885   -1.078297
      8          1           0       -3.607257   -0.273640   -0.531253
      9          8           0       -1.209421    3.270548    1.079582
     10         17           0        1.442403    1.890843    0.649805
     11         35           0       -4.166922    2.399687    0.541518
     12          1           0        0.677539   -0.599449   -0.426426
 ---------------------------------------------------------------------

 SCF Done:  E(UB3LYP) =  -3415.01371146     A.U. after    1 cycles

 Alpha  occ. eigenvalues -- -482.80666-101.52958 -62.45948 -56.27949 -56.27619
 Alpha  occ. eigenvalues --  -56.27600 -19.02516 -19.01965 -10.19343 -10.19253
 Alpha  occ. eigenvalues --  -10.18889 -10.18217 -10.13702 -10.13684  -9.44404
 Alpha  occ. eigenvalues --   -8.66904  -7.20795  -7.19937  -7.19889  -6.49929
 Alpha  occ. eigenvalues --   -6.48830  -6.48774  -2.61042  -2.60736  -2.60694
 Alpha  occ. eigenvalues --   -2.59820  -2.59820  -0.94304  -0.92795  -0.84043
 Alpha  occ. eigenvalues --   -0.80458  -0.75577  -0.68819  -0.66227  -0.55984
 Alpha  occ. eigenvalues --   -0.53851  -0.45415  -0.44376  -0.41369  -0.38413
 Alpha  occ. eigenvalues --   -0.38304  -0.36713  -0.34411  -0.33561  -0.32867
 Alpha  occ. eigenvalues --   -0.32040  -0.29492  -0.28680  -0.27298  -0.23060
 Alpha  occ. eigenvalues --   -0.21608  -0.20829  -0.20101  -0.13137
 Alpha virt. eigenvalues --   -0.00699   0.00612   0.00766   0.02002   0.02561
 Alpha virt. eigenvalues --    0.03290   0.04592   0.04956   0.05957   0.06410
 Alpha virt. eigenvalues --    0.07300   0.07494   0.08022   0.08656   0.09101

  Beta  occ. eigenvalues -- -482.80666-101.52958 -62.45948 -56.27949 -56.27619
  Beta  occ. eigenvalues --  -56.27600 -19.02516 -19.01965 -10.19343 -10.19253
  Beta  occ. eigenvalues --  -10.18889 -10.18217 -10.13702 -10.13684  -9.44404
  Beta  occ. eigenvalues --   -8.66904  -7.20795  -7.19937  -7.19889  -6.49929
  Beta  occ. eigenvalues --   -6.48830  -6.48774  -2.61042  -2.60736  -2.60694
  Beta  occ. eigenvalues --   -2.59820  -2.59820  -0.94304  -0.92795  -0.84043
  Beta  occ. eigenvalues --   -0.80458  -0.75577  -0.68819  -0.66227  -0.55984
  Beta  occ. eigenvalues --   -0.53851  -0.45415  -0.44376  -0.41369  -0.38413
  Beta  occ. eigenvalues --   -0.38304  -0.36713  -0.34411  -0.33561  -0.32867
  Beta  occ. eigenvalues --   -0.32040  -0.29492  -0.28680  -0.27298  -0.23060
  Beta  occ. eigenvalues --   -0.21608  -0.20829  -0.20101  -0.13137
  Beta virt. eigenvalues --   -0.00699   0.00612   0.00766   0.02002   0.02561
  Beta virt. eigenvalues --    0.03290   0.04592   0.04956   0.05957   0.06410
  Beta virt. eigenvalues --    0.07300   0.07494   0.08022   0.08656   0.09101

 Mulliken charges and spin densities:
               1          2
     1  C   -1.385101  -0.000000
     2  C    0.596973   0.000000
     3  C   -0.118413   0.000000
     4  C   -0.661309  -0.000000
     5  C   -0.550346  -0.000000
     6  C    1.259558   0.000000
     7  O   -0.728483   0.000000
     8  H    0.188710   0.000000
     9  O   -0.619405   0.000000
    10  Cl   0.116368  -0.000000
    11  Br  -0.247352   0.000000
    12  H    0.148799   0.000000
 Sum of Mulliken charges =  -2.00000  -0.00000

 Dipole moment (field-independent basis, Debye):
    X=             13.4907    Y=             -9.0935    Z=             -0.9767  Tot=             16.2986
 Quadrupole moment (field-independent basis, Debye-Ang):
   XX=           -120.0048   YY=           -147.7291   ZZ=            -94.9527
   XY=             10.4969   XZ=             -0.4615   YZ=            -23.2961

  Exact polarizability: 233.521  -8.843 212.082   3.738  44.510 122.148
 Approx polarizability: 248.153  -6.467 237.527   5.026  51.731 133.652

                      1                      2                      3
                      A                      A                      A
 Frequencies --     90.2083               156.0972               157.8865
 Red. masses --     17.8791                12.7018                19.4224
 Frc consts  --      0.0857                 0.1823                 0.2853
 IR Inten    --     13.8416                11.6112                 8.8597

                      4                      5                      6
                      A                      A                      A
 Frequencies --    199.9355               226.8426               263.1314
 Red. masses --      5.0058                19.0910                18.1713
 Frc consts  --      0.1179                 0.5788                 0.7413
 IR Inten    --      0.1111                 0.1170                 1.6154

                      7                      8                      9
                      A                      A                      A
 Frequencies --    330.3843               331.8675               436.5952
 Red. masses --     18.9410                 9.2927                 8.7259
 Frc consts  --      1.2181                 0.6030                 0.9800
 IR Inten    --      0.5015                 0.1042                16.7028

                     10                     11                     12
                      A                      A                      A
 Frequencies --    487.2807               487.8766               602.5053
 Red. masses --      6.0138                11.4499                 2.0248
 Frc consts  --      0.8413                 1.6057                 0.4331
 IR Inten    --      0.1792                 0.5452                13.3527

                     13                     14                     15
                      A                      A                      A
 Frequencies --    612.8415               712.7139               727.2453
 Red. masses --      6.1395                10.3224                 9.3423
 Frc consts  --      1.3586                 3.0893                 2.9111
 IR Inten    --     21.3077               176.4121                 7.3435

                     16                     17                     18
                      A                      A                      A
 Frequencies --    808.6877               809.9748               819.5186
 Red. masses --      2.0465                 2.4617                 2.0460
 Frc consts  --      0.7885                 0.9515                 0.8096
 IR Inten    --    137.2165               177.0610                81.1761

                     19                     20                     21
                      A                      A                      A
 Frequencies --    898.2341              1017.3642              1122.8629
 Red. masses --      9.9654                 2.3761                 4.8578
 Frc consts  --      4.7372                 1.4490                 3.6086
 IR Inten    --     92.4085                78.2720               252.3030

                     22                     23                     24
                      A                      A                      A
 Frequencies --   1196.0543              1260.6117              1347.1233
 Red. masses --      1.8682                 2.3540                10.3400
 Frc consts  --      1.5746                 2.2041                11.0557
 IR Inten    --    155.2494               532.8838                39.0243

                     25                     26                     27
                      A                      A                      A
 Frequencies --   1385.4426              1431.7641              1439.5751
 Red. masses --      3.8962                 4.6928                 6.8119
 Frc consts  --      4.4063                 5.6679                 8.3174
 IR Inten    --     36.0479              1860.4013               305.2840

                     28                     29                     30
                      A                      A                      A
 Frequencies --   1596.6377              3156.4113              3161.0913
 Red. masses --      8.3865                 1.0901                 1.0896
 Frc consts  --     12.5963                 6.3989                 6.4149
 IR Inten    --     45.2213                30.4923                30.8699

 - Thermochemistry -
 -------------------
 Temperature   298.150 Kelvin.  Pressure   1.00000 Atm.
 Atom     1 has atomic number  6 and mass  12.00000

 Molecular mass:   219.89267 amu.
 Principal axes and moments of inertia in atomic units:
                           1         2         3
     Eigenvalues --  1593.889863376.844184970.72420
           X            0.95495   0.29205  -0.05264
           Y           -0.28947   0.87766  -0.38200
           Z           -0.06537   0.38003   0.92266
 This molecule is an asymmetric top.
 Rotational symmetry number  1.
 Warning -- assumption of classical behavior for rotation
           may cause significant error
 Rotational temperatures (Kelvin)      0.05434     0.02565     0.01742
 Rotational constants (GHZ):           1.13229     0.53445     0.36307
 Zero-point vibrational energy     163139.3 (Joules/Mol)
                                   38.99123 (Kcal/Mol)
 Warning -- explicit consideration of  13 degrees of freedom as
           vibrations may cause significant error
 Vibrational temperatures:    129.79   224.59   227.16   287.66   326.38
          (Kelvin)            378.59   475.35   477.48   628.16   701.09
                              701.95   866.87   881.74  1025.44  1046.34
                             1163.52  1165.37  1179.10  1292.36  1463.76
                             1615.55  1720.86  1813.74  1938.21  1993.34
                             2059.99  2071.23  2297.21  4541.37  4548.11

 Zero-point correction=                           0.062136 (Hartree/Particle)
 Thermal correction to Energy=                    0.070963
 Thermal correction to Enthalpy=                  0.071907
 Thermal correction to Gibbs Free Energy=         0.026566
 Sum of electronic and zero-point Energies=          -3414.951575
 Sum of electronic and thermal Energies=             -3414.942749
 Sum of electronic and thermal Enthalpies=           -3414.941805
 Sum of electronic and thermal Free Energies=        -3414.987146

                     E (Thermal)             CV                S
                      KCal/Mol        Cal/Mol-Kelvin    Cal/Mol-Kelvin
 Total                   44.530             31.741             95.429
 Electronic               0.000              0.000              0.000
 Translational            0.889              2.981             42.067
 Rotational               0.889              2.981             31.659
 Vibrational             42.752             25.779             21.703
 Vibration     1          0.602              1.956              3.656
 Vibration     2          0.620              1.896              2.597
 Vibration     3          0.621              1.894              2.575
 Vibration     4          0.638              1.840              2.134
 Vibration     5          0.651              1.800              1.904
 Vibration     6          0.670              1.740              1.641
 Vibration     7          0.713              1.615              1.258
 Vibration     8          0.714              1.612              1.251
 Vibration     9          0.797              1.390              0.837
 Vibration    10          0.843              1.278              0.691
 Vibration    11          0.844              1.277              0.689
 Vibration    12          0.961              1.026              0.445
 Vibration    13          0.972              1.005              0.428

 Optimization completed.
    -- Stationary point found.
 Normal termination of Gaussian 16 at Sat Feb 10 10:21:47 2024.
