 Gaussian 16, Revision A.03,
 Gaussian 16:  ES64L-G16RevA.03 25-Dec-2016

 --------------------------------------
 #P UB3LYP/6-311++G(d,p) nosym opt freq
 --------------------------------------

 --------
 Oxidized
 --------
 Symbolic Z-matrix:
 Charge =  0 Multiplicity = 1

 SCF Done:  E(UB3LYP) =  -2019.67012906     A.U. after   19 cycles
 SCF Done:  E(UB3LYP) =  -2019.68353657     A.U. after   16 cycles
 SCF Done:  E(UB3LYP) =  -2019.68581598     A.U. after   16 cycles
 SCF Done:  E(UB3LYP) =  -2019.68581987     A.U. after   17 cycles
 SCF Done:  E(UB3LYP) =  -2019.68655460     A.U. after   16 cycles
 SCF Done:  E(UB3LYP) =  -2019.68677701     A.U. after   17 cycles
 SCF Done:  E(UB3LYP) =  -2019.68695419     A.U. after   16 cycles
 SCF Done:  E(UB3LYP) =  -2019.68703695     A.U. after   16 cycles
 SCF Done:  E(UB3LYP) =  -2019.68722237     A.U. after   18 cycles
 SCF Done:  E(UB3LYP) =  -2019.68727894     A.U. after   17 cycles
 SCF Done:  E(UB3LYP) =  -2019.68765935     A.U. after   16 cycles
 SCF Done:  E(UB3LYP) =  -2019.68770486     A.U. after   17 cycles
 SCF Done:  E(UB3LYP) =  -2019.68773662     A.U. after   17 cycles
 SCF Done:  E(UB3LYP) =  -2019.68774003     A.U. after   15 cycles
 SCF Done:  E(UB3LYP) =  -2019.68774931     A.U. after   16 cycles
 SCF Done:  E(UB3LYP) =  -2019.68775160     A.U. after   13 cycles
 SCF Done:  E(UB3LYP) =  -2019.68775280     A.U. after   14 cycles
 SCF Done:  E(UB3LYP) =  -2019.68775290     A.U. after   11 cycles
 SCF Done:  E(UB3LYP) =  -2019.68775291     A.U. after   12 cycles
 Optimization completed.
    -- Stationary point found.
 Normal termination of Gaussian 16 at Wed Dec 20 07:19:28 2023.

 ----------------------------------------------------------------------
 #P Geom=AllCheck Guess=TCheck SCRF=Check GenChk UB3LYP/6-311++G(d,p) F
 req
 ----------------------------------------------------------------------

 Structure from the checkpoint file:  "073.chk"
 --------
 Oxidized
 --------
 Charge =  0 Multiplicity = 1

                          Input orientation:
 ---------------------------------------------------------------------
 Center     Atomic      Atomic             Coordinates (Angstroms)
 Number     Number       Type             X           Y           Z
 ---------------------------------------------------------------------
      1          6           0        0.895112    1.209477   -1.315375
      2          6           0       -0.537642    1.259061   -1.814830
      3          6           0       -1.470684    0.608514   -1.089318
      4          6           0       -1.105623   -0.251403    0.062859
      5          6           0        0.274246   -0.116336    0.681345
      6          6           0        1.175222    0.646244    0.027989
      7          8           0        1.791906    1.634980   -2.015643
      8          8           0       -1.894224   -1.054569    0.519693
      9         16           0        2.888895    0.867151    0.669545
     10          6           0        3.321678    2.588205    0.358125
     11          6           0        4.160964    2.899286   -0.707830
     12          6           0        2.860836    3.561216    1.243322
     13          6           0        3.236715    4.886519    1.036879
     14          6           0        4.540176    4.225873   -0.893427
     15          6           0        4.074678    5.216190   -0.028135
     16          8           0        3.771225    0.000276   -0.111476
     17          8           0        2.796952    0.718616    2.126665
     18          1           0        4.501312    2.114980   -1.370225
     19          1           0        2.241960    3.282859    2.087114
     20          1           0        5.197889    4.485360   -1.714596
     21          1           0        2.888535    5.656100    1.715782
     22          1           0        4.371022    6.247809   -0.180647
     23         16           0       -3.239180    0.579690   -1.607562
     24          6           0       -4.206545    0.721922   -0.094260
     25          6           0       -4.385886    1.985943    0.465001
     26          6           0       -4.811178   -0.412801    0.438877
     27          6           0       -5.610901   -0.273758    1.569889
     28          6           0       -5.177043    2.107867    1.604975
     29          6           0       -5.787820    0.980663    2.154068
     30          1           0       -3.935517    2.856086    0.004015
     31          1           0       -4.651593   -1.375738   -0.027014
     32          1           0       -6.094223   -1.145518    1.994943
     33          1           0       -5.328214    3.083097    2.052710
     34          1           0       -6.409013    1.081183    3.036867
     35          8           0       -3.500412   -0.720479   -2.225070
     36          8           0       -3.459639    1.820124   -2.360226
     37          6           0       -0.735175    2.024613   -3.088783
     38          6           0        0.471141   -0.879885    1.956623
     39          1           0        0.230615    2.184205   -3.564081
     40          1           0       -1.189974    2.996131   -2.875412
     41          1           0       -1.412295    1.511141   -3.768618
     42          1           0       -0.334565   -1.602531    2.069391
     43          1           0        0.455761   -0.195450    2.809535
     44          1           0        1.436636   -1.381457    1.982825
 ---------------------------------------------------------------------

 SCF Done:  E(UB3LYP) =  -2019.68775291     A.U. after    2 cycles

 Alpha  occ. eigenvalues --  -89.06974 -89.06974 -19.16408 -19.16407 -19.13159
 Alpha  occ. eigenvalues --  -19.13158 -19.12983 -19.12983 -10.31517 -10.31515
 Alpha  occ. eigenvalues --  -10.25878 -10.25877 -10.25295 -10.25294 -10.22933
 Alpha  occ. eigenvalues --  -10.22933 -10.21286 -10.21285 -10.20857 -10.20856
 Alpha  occ. eigenvalues --  -10.20723 -10.20722 -10.20540 -10.20539 -10.20350
 Alpha  occ. eigenvalues --  -10.20350 -10.18952 -10.18952  -8.13319  -8.13318
 Alpha  occ. eigenvalues --   -6.09555  -6.09555  -6.09524  -6.09524  -6.09441
 Alpha  occ. eigenvalues --   -6.09441  -1.12765  -1.12735  -1.10047  -1.09878
 Alpha  occ. eigenvalues --   -1.02256  -1.02252  -0.89988  -0.89432  -0.89413
 Alpha  occ. eigenvalues --   -0.85354  -0.80009  -0.79959  -0.78154  -0.78149
 Alpha  occ. eigenvalues --   -0.76490  -0.76364  -0.71660  -0.68832  -0.68471
 Alpha  occ. eigenvalues --   -0.65266  -0.64074  -0.64068  -0.61625  -0.61085
 Alpha  occ. eigenvalues --   -0.59723  -0.57399  -0.55866  -0.55788  -0.52781
 Alpha  occ. eigenvalues --   -0.52211  -0.50176  -0.49725  -0.49390  -0.49325
 Alpha  occ. eigenvalues --   -0.49031  -0.48407  -0.48005  -0.47306  -0.47196
 Alpha  occ. eigenvalues --   -0.46298  -0.46142  -0.45610  -0.45584  -0.45537
 Alpha  occ. eigenvalues --   -0.44834  -0.43590  -0.43550  -0.42604  -0.41894
 Alpha  occ. eigenvalues --   -0.41053  -0.40242  -0.40120  -0.39679  -0.39673
 Alpha  occ. eigenvalues --   -0.37974  -0.37972  -0.35666  -0.35388  -0.34785
 Alpha  occ. eigenvalues --   -0.34747  -0.33072  -0.32871  -0.32502  -0.31937
 Alpha  occ. eigenvalues --   -0.31843  -0.31761  -0.30876  -0.29291  -0.28852
 Alpha  occ. eigenvalues --   -0.28801  -0.28519  -0.28115
 Alpha virt. eigenvalues --   -0.15667  -0.07896  -0.06232  -0.05534  -0.04110
 Alpha virt. eigenvalues --   -0.04043  -0.03234  -0.02094  -0.01373  -0.00477
 Alpha virt. eigenvalues --   -0.00026   0.00180   0.00868   0.01649   0.01654

  Beta  occ. eigenvalues --  -89.06974 -89.06974 -19.16408 -19.16407 -19.13159
  Beta  occ. eigenvalues --  -19.13158 -19.12983 -19.12983 -10.31517 -10.31515
  Beta  occ. eigenvalues --  -10.25878 -10.25877 -10.25295 -10.25294 -10.22933
  Beta  occ. eigenvalues --  -10.22933 -10.21286 -10.21285 -10.20857 -10.20856
  Beta  occ. eigenvalues --  -10.20723 -10.20722 -10.20540 -10.20539 -10.20350
  Beta  occ. eigenvalues --  -10.20350 -10.18952 -10.18952  -8.13319  -8.13318
  Beta  occ. eigenvalues --   -6.09555  -6.09555  -6.09524  -6.09524  -6.09441
  Beta  occ. eigenvalues --   -6.09441  -1.12765  -1.12735  -1.10047  -1.09878
  Beta  occ. eigenvalues --   -1.02256  -1.02252  -0.89988  -0.89432  -0.89413
  Beta  occ. eigenvalues --   -0.85354  -0.80009  -0.79959  -0.78154  -0.78149
  Beta  occ. eigenvalues --   -0.76490  -0.76364  -0.71660  -0.68832  -0.68471
  Beta  occ. eigenvalues --   -0.65266  -0.64074  -0.64068  -0.61625  -0.61085
  Beta  occ. eigenvalues --   -0.59723  -0.57399  -0.55866  -0.55788  -0.52781
  Beta  occ. eigenvalues --   -0.52211  -0.50176  -0.49725  -0.49390  -0.49325
  Beta  occ. eigenvalues --   -0.49031  -0.48407  -0.48005  -0.47306  -0.47196
  Beta  occ. eigenvalues --   -0.46298  -0.46142  -0.45610  -0.45584  -0.45537
  Beta  occ. eigenvalues --   -0.44834  -0.43590  -0.43550  -0.42604  -0.41894
  Beta  occ. eigenvalues --   -0.41053  -0.40242  -0.40120  -0.39679  -0.39673
  Beta  occ. eigenvalues --   -0.37974  -0.37972  -0.35666  -0.35388  -0.34785
  Beta  occ. eigenvalues --   -0.34747  -0.33072  -0.32871  -0.32502  -0.31937
  Beta  occ. eigenvalues --   -0.31843  -0.31761  -0.30876  -0.29291  -0.28852
  Beta  occ. eigenvalues --   -0.28801  -0.28519  -0.28115
  Beta virt. eigenvalues --   -0.15667  -0.07896  -0.06232  -0.05534  -0.04110
  Beta virt. eigenvalues --   -0.04043  -0.03234  -0.02094  -0.01373  -0.00477
  Beta virt. eigenvalues --   -0.00026   0.00180   0.00868   0.01649   0.01654

 Mulliken charges and spin densities:
               1          2
     1  C   -0.958100   0.000000
     2  C    0.570430  -0.000000
     3  C   -0.023857  -0.000000
     4  C   -0.958661   0.000000
     5  C    0.570190  -0.000000
     6  C   -0.024527   0.000000
     7  O   -0.111155  -0.000000
     8  O   -0.110890  -0.000000
     9  S    0.456407   0.000000
    10  C    0.153630   0.000000
    11  C   -0.237160  -0.000000
    12  C    0.195081  -0.000000
    13  C   -0.486951  -0.000000
    14  C   -0.374144   0.000000
    15  C   -0.239483   0.000000
    16  O   -0.014355  -0.000000
    17  O   -0.059914  -0.000000
    18  H    0.270922  -0.000000
    19  H    0.240732  -0.000000
    20  H    0.195367   0.000000
    21  H    0.189067  -0.000000
    22  H    0.173387  -0.000000
    23  S    0.457857  -0.000000
    24  C    0.152297   0.000000
    25  C    0.195023   0.000000
    26  C   -0.236912  -0.000000
    27  C   -0.373739   0.000000
    28  C   -0.486865   0.000000
    29  C   -0.239672  -0.000000
    30  H    0.240834   0.000000
    31  H    0.270795  -0.000000
    32  H    0.195374   0.000000
    33  H    0.189079  -0.000000
    34  H    0.173374  -0.000000
    35  O   -0.014088  -0.000000
    36  O   -0.059920   0.000000
    37  C   -0.596536   0.000000
    38  C   -0.596342   0.000000
    39  H    0.203420  -0.000000
    40  H    0.221504   0.000000
    41  H    0.231918  -0.000000
    42  H    0.203461   0.000000
    43  H    0.221432  -0.000000
    44  H    0.231691  -0.000000
 Sum of Mulliken charges =  -0.00000   0.00000

 Dipole moment (field-independent basis, Debye):
    X=             -1.4301    Y=              4.9818    Z=              3.2144  Tot=              6.0988
 Quadrupole moment (field-independent basis, Debye-Ang):
   XX=           -182.2786   YY=           -154.3218   ZZ=           -181.5318
   XY=             10.6227   XZ=            -27.5023   YZ=              1.2560

  Exact polarizability: 329.850  53.768 282.357 -49.135 -21.788 264.929
 Approx polarizability: 463.993  82.586 496.502-118.927 -45.448 461.350

                      1                      2                      3
                      A                      A                      A
 Frequencies --     11.5503                18.7910                26.6512
 Red. masses --      6.2319                 6.4137                 4.9890
 Frc consts  --      0.0005                 0.0013                 0.0021
 IR Inten    --      0.7730                 0.2381                 0.7378

                      4                      5                      6
                      A                      A                      A
 Frequencies --     35.4268                46.9328                50.4912
 Red. masses --      5.3128                 4.2863                 3.8248
 Frc consts  --      0.0039                 0.0056                 0.0057
 IR Inten    --      0.6550                 0.2229                 0.2490

                      7                      8                      9
                      A                      A                      A
 Frequencies --     59.0251                82.9852                90.9037
 Red. masses --      3.9853                 6.0719                 4.1877
 Frc consts  --      0.0082                 0.0246                 0.0204
 IR Inten    --      3.5987                 3.3150                 0.1757

                     10                     11                     12
                      A                      A                      A
 Frequencies --    106.6323               108.5803               130.4975
 Red. masses --      1.1445                 1.1688                 7.7822
 Frc consts  --      0.0077                 0.0081                 0.0781
 IR Inten    --      0.8997                 1.3388                 2.1638

                     13                     14                     15
                      A                      A                      A
 Frequencies --    158.3349               168.5655               176.6772
 Red. masses --      7.1071                 8.6473                 6.4620
 Frc consts  --      0.1050                 0.1448                 0.1188
 IR Inten    --      2.0972                 1.0307                 2.9114

                     16                     17                     18
                      A                      A                      A
 Frequencies --    180.1836               191.5411               213.4103
 Red. masses --      6.3299                 7.7099                 6.0331
 Frc consts  --      0.1211                 0.1667                 0.1619
 IR Inten    --      1.6055                 4.8276                 1.6547

                     19                     20                     21
                      A                      A                      A
 Frequencies --    230.1619               234.6865               275.1698
 Red. masses --      7.1090                 5.9244                 9.2279
 Frc consts  --      0.2219                 0.1923                 0.4117
 IR Inten    --      0.1189                 0.0697                 0.0063

                     22                     23                     24
                      A                      A                      A
 Frequencies --    286.7437               307.6353               309.7639
 Red. masses --      8.4414                 8.6146                 8.6039
 Frc consts  --      0.4089                 0.4804                 0.4864
 IR Inten    --      0.1350                 2.0730                 2.8469

                     25                     26                     27
                      A                      A                      A
 Frequencies --    343.8894               373.8440               381.3153
 Red. masses --      6.0627                 3.9591                 4.7217
 Frc consts  --      0.4224                 0.3260                 0.4045
 IR Inten    --      1.5496                 1.4971                 0.7137

                     28                     29                     30
                      A                      A                      A
 Frequencies --    400.1235               401.9148               412.2680
 Red. masses --      4.4114                 5.1460                 2.8928
 Frc consts  --      0.4161                 0.4898                 0.2897
 IR Inten    --     12.5679                 0.6904                 0.3008

                     31                     32                     33
                      A                      A                      A
 Frequencies --    412.7321               416.0715               430.9199
 Red. masses --      2.9483                 6.4222                 8.2049
 Frc consts  --      0.2959                 0.6550                 0.8977
 IR Inten    --      0.1211                 0.2701                40.7697

                     34                     35                     36
                      A                      A                      A
 Frequencies --    457.7529               464.0294               487.7616
 Red. masses --      5.0629                 5.4995                 7.7892
 Frc consts  --      0.6250                 0.6977                 1.0918
 IR Inten    --      0.4327                25.5483                14.3498

                     37                     38                     39
                      A                      A                      A
 Frequencies --    494.7891               517.3517               544.6286
 Red. masses --      8.6351                 8.7737                10.4649
 Frc consts  --      1.2455                 1.3836                 1.8289
 IR Inten    --     14.5145                 6.4721                53.9506

                     40                     41                     42
                      A                      A                      A
 Frequencies --    587.9291               596.3824               596.4505
 Red. masses --      6.7613                 6.3805                 9.2197
 Frc consts  --      1.3770                 1.3371                 1.9325
 IR Inten    --      2.1091                39.6093               403.0938

                     43                     44                     45
                      A                      A                      A
 Frequencies --    626.7939               626.8343               700.0621
 Red. masses --      6.4440                 6.4429                 5.3817
 Frc consts  --      1.4916                 1.4915                 1.5540
 IR Inten    --      0.1077                 0.0196                 0.0077

                     46                     47                     48
                      A                      A                      A
 Frequencies --    702.9096               703.2560               714.6971
 Red. masses --      1.9875                 1.9903                 7.1898
 Frc consts  --      0.5786                 0.5800                 2.1638
 IR Inten    --     91.4332                 1.0915                55.5459

                     49                     50                     51
                      A                      A                      A
 Frequencies --    724.7679               737.9072               754.1604
 Red. masses --      5.8966                 7.0327                 3.0250
 Frc consts  --      1.8250                 2.2562                 1.0137
 IR Inten    --      0.4664                56.7424                43.5030

                     52                     53                     54
                      A                      A                      A
 Frequencies --    764.7551               771.5254               801.1463
 Red. masses --      1.7226                 2.3013                 8.5604
 Frc consts  --      0.5936                 0.8071                 3.2372
 IR Inten    --      1.9070                25.8604                10.7539

                     55                     56                     57
                      A                      A                      A
 Frequencies --    802.2794               853.7170               854.0740
 Red. masses --      5.8928                 1.2449                 1.2446
 Frc consts  --      2.2347                 0.5346                 0.5349
 IR Inten    --     13.9578                 0.3433                 0.0019

                     58                     59                     60
                      A                      A                      A
 Frequencies --    891.2098               944.1845               944.2719
 Red. masses --      3.3187                 1.3511                 1.3514
 Frc consts  --      1.5530                 0.7096                 0.7099
 IR Inten    --     60.7606                 0.7362                 0.8636

                     61                     62                     63
                      A                      A                      A
 Frequencies --    993.2339               993.2506              1013.1112
 Red. masses --      1.3875                 1.3868                 1.3235
 Frc consts  --      0.8065                 0.8061                 0.8003
 IR Inten    --      0.5041                 0.0426                 0.1350

                     64                     65                     66
                      A                      A                      A
 Frequencies --   1013.1392              1014.5784              1014.7150
 Red. masses --      1.3226                 5.9739                 5.9535
 Frc consts  --      0.7999                 3.6231                 3.6117
 IR Inten    --      0.0454                 6.5515                 2.2770

                     67                     68                     69
                      A                      A                      A
 Frequencies --   1033.6498              1037.1958              1038.9881
 Red. masses --      1.6198                 1.9306                 3.6570
 Frc consts  --      1.0197                 1.2236                 2.3259
 IR Inten    --      4.0505                 3.4220                18.9588

                     70                     71                     72
                      A                      A                      A
 Frequencies --   1040.4751              1057.8989              1061.4463
 Red. masses --      2.9011                 2.6971                 1.9914
 Frc consts  --      1.8504                 1.7785                 1.3219
 IR Inten    --      2.4091                52.0307                 0.0073

                     73                     74                     75
                      A                      A                      A
 Frequencies --   1069.1487              1072.4672              1081.6211
 Red. masses --      3.3198                 2.7724                 3.2647
 Frc consts  --      2.2358                 1.8788                 2.2503
 IR Inten    --      3.1834                89.1731                 0.0542

                     76                     77                     78
                      A                      A                      A
 Frequencies --   1101.1356              1101.2123              1112.3783
 Red. masses --      1.5657                 1.5664                 4.9076
 Frc consts  --      1.1185                 1.1192                 3.5778
 IR Inten    --      6.8402                 6.7694               133.7201

                     79                     80                     81
                      A                      A                      A
 Frequencies --   1115.2090              1185.4881              1185.5102
 Red. masses --      5.5387                 1.1215                 1.1215
 Frc consts  --      4.0586                 0.9287                 0.9286
 IR Inten    --     90.9828                 0.3600                 0.3465

                     82                     83                     84
                      A                      A                      A
 Frequencies --   1198.6547              1199.8394              1200.1794
 Red. masses --      3.8830                 1.1861                 1.1539
 Frc consts  --      3.2870                 1.0061                 0.9792
 IR Inten    --    153.3151                15.6560                 0.9213

                     85                     86                     87
                      A                      A                      A
 Frequencies --   1235.4460              1273.3321              1279.2248
 Red. masses --     10.0500                11.1618                16.7931
 Frc consts  --      9.0378                10.6628                16.1910
 IR Inten    --    219.7962               174.4150               101.6066

                     88                     89                     90
                      A                      A                      A
 Frequencies --   1289.3650              1333.2118              1333.2680
 Red. masses --      7.8794                 2.4143                 2.4067
 Frc consts  --      7.7179                 2.5284                 2.5206
 IR Inten    --     40.0304                 0.0155                 0.0328

                     91                     92                     93
                      A                      A                      A
 Frequencies --   1346.4046              1346.4490              1406.4000
 Red. masses --      2.0682                 2.0717                 1.1738
 Frc consts  --      2.2090                 2.2129                 1.3679
 IR Inten    --      3.8741                 1.6128                36.2830

                     94                     95                     96
                      A                      A                      A
 Frequencies --   1406.6687              1464.6942              1466.2639
 Red. masses --      1.1727                 1.0762                 1.0903
 Frc consts  --      1.3672                 1.3603                 1.3811
 IR Inten    --      2.4547                53.0741                 1.1209

                     97                     98                     99
                      A                      A                      A
 Frequencies --   1476.9301              1476.9632              1486.7389
 Red. masses --      2.1433                 2.1414                 1.0613
 Frc consts  --      2.7546                 2.7523                 1.3821
 IR Inten    --     11.1281                19.7505                17.5474

                    100                    101                    102
                      A                      A                      A
 Frequencies --   1487.0619              1506.7218              1506.7314
 Red. masses --      1.0600                 2.0245                 2.0244
 Frc consts  --      1.3810                 2.7079                 2.7078
 IR Inten    --      8.6971                 3.1313                 3.4375

                    103                    104                    105
                      A                      A                      A
 Frequencies --   1621.4698              1621.4970              1625.2393
 Red. masses --      5.3445                 5.3308                 8.4557
 Frc consts  --      8.2790                 8.2581                13.1594
 IR Inten    --      0.4648                 2.3411                78.5537

                    106                    107                    108
                      A                      A                      A
 Frequencies --   1625.9661              1626.1198              1654.5863
 Red. masses --      5.8067                 6.1801                 9.7883
 Frc consts  --      9.0448                 9.6283                15.7883
 IR Inten    --      0.1659                12.6297                 0.4500

                    109                    110                    111
                      A                      A                      A
 Frequencies --   1722.5970              1726.8934              3051.1806
 Red. masses --     12.8722                12.8773                 1.0434
 Frc consts  --     22.5046                22.6259                 5.7230
 IR Inten    --      8.1994               367.5531                 0.1095

                    112                    113                    114
                      A                      A                      A
 Frequencies --   3051.3460              3117.3210              3117.4580
 Red. masses --      1.0433                 1.0887                 1.0887
 Frc consts  --      5.7231                 6.2335                 6.2341
 IR Inten    --      0.0917                 4.9485                 2.2303

                    115                    116                    117
                      A                      A                      A
 Frequencies --   3156.6703              3156.8220              3170.1387
 Red. masses --      1.1044                 1.1044                 1.0864
 Frc consts  --      6.4837                 6.4845                 6.4328
 IR Inten    --      4.9588                 1.7833                 0.7121

                    118                    119                    120
                      A                      A                      A
 Frequencies --   3170.1415              3182.0802              3182.1044
 Red. masses --      1.0864                 1.0898                 1.0898
 Frc consts  --      6.4328                 6.5018                 6.5019
 IR Inten    --      0.2508                 6.4282                10.5258

                    121                    122                    123
                      A                      A                      A
 Frequencies --   3191.0693              3191.1029              3201.2173
 Red. masses --      1.0944                 1.0944                 1.0949
 Frc consts  --      6.5657                 6.5659                 6.6110
 IR Inten    --     16.7435                 4.5311                 4.0795

                    124                    125                    126
                      A                      A                      A
 Frequencies --   3201.3022              3217.3994              3217.5383
 Red. masses --      1.0949                 1.0936                 1.0936
 Frc consts  --      6.6113                 6.6699                 6.6705
 IR Inten    --      4.7711                 3.2965                 3.2236

 - Thermochemistry -
 -------------------
 Temperature   298.150 Kelvin.  Pressure   1.00000 Atm.
 Atom     1 has atomic number  6 and mass  12.00000

 Molecular mass:   416.03883 amu.
 Principal axes and moments of inertia in atomic units:
                           1         2         3
     Eigenvalues --  6023.47002********************
           X            0.96483   0.11912  -0.23432
           Y            0.26187  -0.51289   0.81754
           Z            0.02280   0.85015   0.52605
 This molecule is an asymmetric top.
 Rotational symmetry number  1.
 Warning -- assumption of classical behavior for rotation
           may cause significant error
 Rotational temperatures (Kelvin)      0.01438     0.00435     0.00420
 Rotational constants (GHZ):           0.29962     0.09064     0.08749
 Zero-point vibrational energy     840949.1 (Joules/Mol)
                                  200.99166 (Kcal/Mol)
 Warning -- explicit consideration of  42 degrees of freedom as
           vibrations may cause significant error
 Vibrational temperatures:     16.62    27.04    38.35    50.97    67.53
          (Kelvin)             72.65    84.92   119.40   130.79   153.42
                              156.22   187.76   227.81   242.53   254.20
                              259.24   275.58   307.05   331.15   337.66
                              395.91   412.56   442.62   445.68   494.78
                              537.88   548.63   575.69   578.27   593.16
                              593.83   598.63   620.00   658.60   667.63
                              701.78   711.89   744.35   783.60   845.90
                              858.06   858.16   901.82   901.87  1007.23
                             1011.33  1011.83  1028.29  1042.78  1061.68
                             1085.07  1100.31  1110.05  1152.67  1154.30
                             1228.31  1228.82  1282.25  1358.47  1358.60
                             1429.04  1429.07  1457.64  1457.68  1459.75
                             1459.95  1487.19  1492.29  1494.87  1497.01
                             1522.08  1527.18  1538.27  1543.04  1556.21
                             1584.29  1584.40  1600.46  1604.54  1705.65
                             1705.68  1724.60  1726.30  1726.79  1777.53
                             1832.04  1840.52  1855.11  1918.19  1918.28
                             1937.18  1937.24  2023.50  2023.88  2107.37
                             2109.63  2124.97  2125.02  2139.09  2139.55
                             2167.84  2167.85  2332.93  2332.97  2338.36
                             2339.40  2339.62  2380.58  2478.43  2484.61
                             4389.97  4390.21  4485.13  4485.33  4541.74
                             4541.96  4561.12  4561.13  4578.30  4578.34
                             4591.24  4591.29  4605.84  4605.96  4629.12
                             4629.32

 Zero-point correction=                           0.320301 (Hartree/Particle)
 Thermal correction to Energy=                    0.346262
 Thermal correction to Enthalpy=                  0.347207
 Thermal correction to Gibbs Free Energy=         0.260922
 Sum of electronic and zero-point Energies=          -2019.367452
 Sum of electronic and thermal Energies=             -2019.341491
 Sum of electronic and thermal Enthalpies=           -2019.340546
 Sum of electronic and thermal Free Energies=        -2019.426831

                     E (Thermal)             CV                S
                      KCal/Mol        Cal/Mol-Kelvin    Cal/Mol-Kelvin
 Total                  217.283             97.402            181.602
 Electronic               0.000              0.000              0.000
 Translational            0.889              2.981             43.967
 Rotational               0.889              2.981             36.157
 Vibrational            215.505             91.441            101.477
 Vibration     1          0.593              1.987              7.725
 Vibration     2          0.593              1.986              6.758
 Vibration     3          0.593              1.984              6.064
 Vibration     4          0.594              1.982              5.500
 Vibration     5          0.595              1.979              4.943
 Vibration     6          0.595              1.977              4.798
 Vibration     7          0.596              1.974              4.490
 Vibration     8          0.600              1.961              3.819
 Vibration     9          0.602              1.956              3.641
 Vibration    10          0.606              1.944              3.329
 Vibration    11          0.606              1.942              3.294
 Vibration    12          0.612              1.923              2.939
 Vibration    13          0.621              1.893              2.570
 Vibration    14          0.625              1.881              2.451
 Vibration    15          0.628              1.871              2.363
 Vibration    16          0.629              1.867              2.327
 Vibration    17          0.634              1.852              2.213
 Vibration    18          0.644              1.821              2.014
 Vibration    19          0.652              1.795              1.878
 Vibration    20          0.654              1.788              1.843
 Vibration    21          0.677              1.719              1.564
 Vibration    22          0.684              1.698              1.493
 Vibration    23          0.698              1.659              1.375
 Vibration    24          0.699              1.655              1.364
 Vibration    25          0.723              1.588              1.194
 Vibration    26          0.745              1.526              1.064
 Vibration    27          0.751              1.510              1.034
 Vibration    28          0.766              1.470              0.962
 Vibration    29          0.768              1.466              0.956
 Vibration    30          0.776              1.444              0.919
 Vibration    31          0.777              1.443              0.917
 Vibration    32          0.779              1.435              0.905
 Vibration    33          0.792              1.403              0.856
 Vibration    34          0.816              1.344              0.773
 Vibration    35          0.822              1.330              0.754
 Vibration    36          0.844              1.277              0.689
 Vibration    37          0.850              1.262              0.671
 Vibration    38          0.872              1.212              0.616
 Vibration    39          0.900              1.151              0.555
 Vibration    40          0.945              1.058              0.471
 Vibration    41          0.954              1.039              0.456
 Vibration    42          0.954              1.039              0.456

                           ! Non-Optimized Parameters !
 Normal termination of Gaussian 16 at Wed Dec 20 11:34:39 2023.
