 Q-Chem 5.4, Q-Chem, Inc., Pleasanton, CA (2021)
 Q-Chem 5.4.0 for Intel X86 EM64T Linux

User input:
--------------------------------------------------------------
$molecule
-2 1
C                  1.0905590000      1.7416310000     -0.6813450000
C                 -0.1103610000      1.2619340000     -0.0227480000
C                 -0.4025380000     -0.0905740000      0.1219400000
C                  0.4671600000     -1.1533540000     -0.3717130000
C                  1.6351970000     -0.6941620000     -1.0229820000
C                  1.9220710000      0.6820980000     -1.1819890000
O                  1.3695430000      2.9946250000     -0.7696050000
O                  0.1659640000     -2.4048160000     -0.2242270000
S                  3.4217860000      1.1147450000     -2.0133990000
C                  4.4509350000      1.9912830000     -0.7974130000
C                  4.2001190000      3.3344740000     -0.4844660000
C                  5.4924000000      1.2979130000     -0.1732980000
C                  6.2972220000      1.9480910000      0.7594430000
C                  5.0098360000      3.9713980000      0.4549840000
C                  6.0614170000      3.2916240000      1.0766960000
O                  3.2283080000      2.0543390000     -3.1421860000
O                  4.1857890000     -0.1262640000     -2.3191080000
H                  3.3489900000      3.8194810000     -0.9445440000
H                  5.6565960000      0.2605020000     -0.4391150000
H                  4.8132620000      5.0098190000      0.7084150000
H                  2.3181410000     -1.4283330000     -1.4322510000
H                  7.1097420000      1.4085650000      1.2389840000
C                 -1.6662970000     -0.5318080000      0.8230480000
C                 -1.0402720000      2.3204500000      0.5254730000
H                  6.6866560000      3.7991590000      1.8065930000
H                 -1.7069020000     -0.1826490000      1.8659970000
H                 -1.6928070000     -1.6242550000      0.8116320000
H                 -2.5708660000     -0.1440360000      0.3306400000
H                 -0.6287280000      3.3027490000      0.2834370000
H                 -1.1553210000      2.2491070000      1.6182260000
H                 -2.0528520000      2.2439530000      0.1016420000
$end
$rem
MAX_SCF_CYCLES=200
BASIS  =  6-311++G(d,p)
GUI  =  2
JOB_TYPE  =  SP
METHOD  =  B3LYP
SOLVENT_METHOD = COSMO
$end
$solvent
dielectric 37.219
opticaldielectric 1.43
$end

--------------------------------------------------------------

             Standard Nuclear Orientation (Angstroms)
    I     Atom           X                Y                Z
 ----------------------------------------------------------------
    1      C      -0.9571281352    -0.8423220070     0.6445685707
    2      C      -2.2839231136    -1.1909456861     0.1711293640
    3      C      -3.1293738104    -0.2749952493    -0.4467928182
    4      C      -2.7649731453     1.1189517878    -0.6785103990
    5      C      -1.4770133055     1.4691368131    -0.2117674979
    6      C      -0.6254688896     0.5391959398     0.4299127851
    7      O      -0.1690142595    -1.7101755519     1.1749671073
    8      O      -3.5759302080     1.9492156734    -1.2543912988
    9      S       0.9614596615     1.1126333619     0.9594393592
   10      C       2.1930780919     0.1752250603     0.0052537380
   11      C       2.5173502401    -1.1425903238     0.3562761595
   12      C       2.8048462425     0.7904347124    -1.0911894435
   13      C       3.7540990504     0.0945352414    -1.8362523196
   14      C       3.4650264664    -1.8293931225    -0.4014122924
   15      C       4.0918377902    -1.2204492954    -1.4926208340
   16      O       1.2496578687     0.8371216211     2.3861368698
   17      O       1.1439766841     2.5222749192     0.5157501312
   18      H       1.9799195023    -1.6039444426     1.1745943800
   19      H       2.5290977316     1.8097142843    -1.3338260028
   20      H       3.7126471156    -2.8546831936    -0.1393988067
   21      H      -1.1470845484     2.4935355068    -0.3329079546
   22      H       4.2324091697     0.5769326970    -2.6846323938
   23      C      -4.4991295506    -0.6968459587    -0.9254762958
   24      C      -2.7077066313    -2.6287090830     0.3685649218
   25      H       4.8300068678    -1.7655836848    -2.0750297319
   26      H      -4.4480127353    -1.4965162707    -1.6799415720
   27      H      -4.9852498840     0.1775398877    -1.3652602951
   28      H      -5.1242001393    -1.0828748843    -0.1061190685
   29      H      -1.9055780973    -3.1587010506     0.8867922309
   30      H      -2.9049013905    -3.1402697967    -0.5863461098
   31      H      -3.6310566587    -2.7121491120     0.9612412689
 ----------------------------------------------------------------

   12   -1239.9875299781      4.87e-06  Convergence criterion met
 Total energy in the final basis set =    -1239.9875299781
    5   -1240.2644081762      9.61e-06  Convergence criterion met
 Total energy in the final basis set =    -1240.2644081762

                    Orbital Energies (a.u.)
 --------------------------------------------------------------

 Alpha MOs
 -- Occupied --
-89.0343 -19.1036 -19.1017 -19.0319 -19.0238 -10.1987 -10.1941 -10.1813
-10.1788 -10.1785 -10.1772 -10.1760 -10.1754 -10.1638 -10.1449 -10.1417
-10.1397 -10.1388 -10.1327  -8.0980  -6.0612  -6.0598  -6.0585  -1.0908
 -0.9862  -0.9529  -0.9386  -0.8623  -0.8046  -0.7731  -0.7533  -0.7501
 -0.7042  -0.6867  -0.6433  -0.6304  -0.6091  -0.5875  -0.5432  -0.5366
 -0.5179  -0.4760  -0.4708  -0.4667  -0.4566  -0.4427  -0.4384  -0.4262
 -0.4177  -0.4125  -0.3848  -0.3788  -0.3769  -0.3748  -0.3697  -0.3681
 -0.3648  -0.3536  -0.3445  -0.3356  -0.3249  -0.3209  -0.3190  -0.3119
 -0.2957  -0.2861  -0.2652  -0.2594  -0.2410  -0.2146  -0.2120  -0.2032
 -0.1332

          Ground-State Mulliken Net Atomic Charges

     Atom                 Charge (a.u.)
  ----------------------------------------
      1 C                    -0.838710
      2 C                     0.094943
      3 C                     0.871457
      4 C                    -0.944807
      5 C                     0.363681
      6 C                    -0.160166
      7 O                    -0.591733
      8 O                    -0.747331
      9 S                     0.283336
     10 C                     0.111508
     11 C                    -0.301656
     12 C                     0.216616
     13 C                    -0.452721
     14 C                    -0.398375
     15 C                    -0.356366
     16 O                    -0.263721
     17 O                    -0.331562
     18 H                     0.291679
     19 H                     0.255358
     20 H                     0.223123
     21 H                     0.212765
     22 H                     0.222306
     23 C                    -0.444262
     24 C                    -0.463642
     25 H                     0.202801
     26 H                     0.149862
     27 H                     0.175587
     28 H                     0.150289
     29 H                     0.177371
     30 H                     0.146881
     31 H                     0.145487
  ----------------------------------------
  Sum of atomic charges =    -2.000000

                    Cartesian Multipole Moments
 -----------------------------------------------------------------
    Charge (ESU x 10^10)
                -9.6064
    Dipole Moment (Debye)
         X      12.4029      Y      -8.8959      Z      -4.6150
       Tot      15.9458
    Quadrupole Moments (Debye-Ang)
        XX    -175.4928     XY      17.1463     YY    -161.3097
        XZ     -28.6942     YZ       8.5415     ZZ    -148.0242

 Total job time:  92.35s(wall), 714.35s(cpu)
        *  Thank you very much for using Q-Chem.  Have a nice day.  *
