 Gaussian 16, Revision A.03,
 Gaussian 16:  ES64L-G16RevA.03 25-Dec-2016

 ----------------------------------------------------------------------
 #P UB3LYP/6-311++G(d,p) nosym opt freq SCRF=(PCM,Solvent=n,n-DiMethylF
 ormamide)
 ----------------------------------------------------------------------

 --------
 Oxidized
 --------
 Symbolic Z-matrix:
 Charge =  0 Multiplicity = 1

 SCF Done:  E(UB3LYP) =  -1608.18583967     A.U. after   15 cycles
 SCF Done:  E(UB3LYP) =  -1608.18599305     A.U. after   13 cycles
 SCF Done:  E(UB3LYP) =  -1608.18603299     A.U. after   13 cycles
 SCF Done:  E(UB3LYP) =  -1608.18604560     A.U. after   11 cycles
 SCF Done:  E(UB3LYP) =  -1608.18605493     A.U. after   11 cycles
 SCF Done:  E(UB3LYP) =  -1608.18606025     A.U. after   11 cycles
 SCF Done:  E(UB3LYP) =  -1608.18606289     A.U. after   11 cycles
 SCF Done:  E(UB3LYP) =  -1608.18606353     A.U. after   11 cycles
 Optimization completed.
    -- Stationary point found.
 Normal termination of Gaussian 16 at Sat Feb 10 16:43:23 2024.

 ----------------------------------------------------------------------
 #P Geom=AllCheck Guess=TCheck SCRF=Check GenChk UB3LYP/6-311++G(d,p) F
 req
 ----------------------------------------------------------------------

 Structure from the checkpoint file:  "121.chk"
 --------
 Oxidized
 --------
 Charge =  0 Multiplicity = 1

                          Input orientation:
 ---------------------------------------------------------------------
 Center     Atomic      Atomic             Coordinates (Angstroms)
 Number     Number       Type             X           Y           Z
 ---------------------------------------------------------------------
      1         17           0        2.574979    3.133736   -0.720571
      2          6           0        2.467524    1.435178   -0.292611
      3          6           0        3.668780    0.729532   -0.302214
      4          6           0        3.684884   -0.626402    0.005609
      5          6           0        2.499304   -1.284299    0.308065
      6          6           0        1.291595   -0.588024    0.294327
      7          6           0        0.048175   -1.366406    0.602576
      8          8           0        0.133994   -2.462649    1.130262
      9          6           0       -1.256617   -0.751058    0.231790
     10          6           0       -2.463446   -1.465780    0.123715
     11         17           0       -2.564822   -3.207661    0.310565
     12          6           0       -3.657998   -0.817570   -0.182696
     13          6           0       -3.677129    0.560279   -0.369042
     14          6           0       -2.500371    1.291443   -0.266789
     15          6           0       -1.298301    0.643845    0.014691
     16          6           0       -0.063029    1.490455    0.080777
     17          8           0       -0.162669    2.701716    0.182694
     18          6           0        1.251604    0.794178    0.006776
     19          1           0        4.585515    1.248191   -0.550444
     20          1           0        4.624590   -1.165066    0.000978
     21          1           0        2.492475   -2.339379    0.546254
     22          1           0       -4.567157   -1.397517   -0.272756
     23          1           0       -4.611786    1.056116   -0.600958
     24          1           0       -2.495689    2.363148   -0.413005
 ---------------------------------------------------------------------

 SCF Done:  E(UB3LYP) =  -1608.18606353     A.U. after    1 cycles

 Alpha  occ. eigenvalues -- -101.56834-101.56832 -19.13873 -19.13866 -10.29462
 Alpha  occ. eigenvalues --  -10.29457 -10.26882 -10.26882 -10.22786 -10.22785
 Alpha  occ. eigenvalues --  -10.22180 -10.22178 -10.21073 -10.21072 -10.20856
 Alpha  occ. eigenvalues --  -10.20855 -10.20484 -10.20481  -9.48309  -9.48307
 Alpha  occ. eigenvalues --   -7.24784  -7.24782  -7.23816  -7.23814  -7.23711
 Alpha  occ. eigenvalues --   -7.23708  -1.07570  -1.07368  -0.92200  -0.91742
 Alpha  occ. eigenvalues --   -0.87259  -0.86079  -0.82363  -0.78565  -0.77221
 Alpha  occ. eigenvalues --   -0.76499  -0.69902  -0.67917  -0.65953  -0.61695
 Alpha  occ. eigenvalues --   -0.58649  -0.57926  -0.56329  -0.51825  -0.50544
 Alpha  occ. eigenvalues --   -0.50196  -0.50142  -0.46990  -0.46919  -0.46419
 Alpha  occ. eigenvalues --   -0.46098  -0.45911  -0.45060  -0.43018  -0.41849
 Alpha  occ. eigenvalues --   -0.40954  -0.39939  -0.39527  -0.39159  -0.38529
 Alpha  occ. eigenvalues --   -0.35512  -0.35318  -0.33959  -0.33424  -0.30039
 Alpha  occ. eigenvalues --   -0.29264  -0.28588  -0.27586  -0.27360  -0.27163
 Alpha virt. eigenvalues --   -0.12370  -0.08438  -0.04719  -0.03874  -0.00659
 Alpha virt. eigenvalues --   -0.00199  -0.00188   0.00380   0.01474   0.01705
 Alpha virt. eigenvalues --    0.01993   0.02218   0.02719   0.03940   0.04221

  Beta  occ. eigenvalues -- -101.56834-101.56832 -19.13873 -19.13866 -10.29462
  Beta  occ. eigenvalues --  -10.29457 -10.26882 -10.26882 -10.22786 -10.22785
  Beta  occ. eigenvalues --  -10.22180 -10.22178 -10.21073 -10.21072 -10.20856
  Beta  occ. eigenvalues --  -10.20855 -10.20484 -10.20481  -9.48309  -9.48307
  Beta  occ. eigenvalues --   -7.24784  -7.24782  -7.23816  -7.23814  -7.23711
  Beta  occ. eigenvalues --   -7.23708  -1.07570  -1.07368  -0.92200  -0.91742
  Beta  occ. eigenvalues --   -0.87259  -0.86079  -0.82363  -0.78565  -0.77221
  Beta  occ. eigenvalues --   -0.76499  -0.69902  -0.67917  -0.65953  -0.61695
  Beta  occ. eigenvalues --   -0.58649  -0.57926  -0.56329  -0.51825  -0.50544
  Beta  occ. eigenvalues --   -0.50196  -0.50142  -0.46990  -0.46919  -0.46419
  Beta  occ. eigenvalues --   -0.46098  -0.45911  -0.45060  -0.43018  -0.41849
  Beta  occ. eigenvalues --   -0.40954  -0.39939  -0.39527  -0.39159  -0.38529
  Beta  occ. eigenvalues --   -0.35512  -0.35318  -0.33959  -0.33424  -0.30039
  Beta  occ. eigenvalues --   -0.29264  -0.28588  -0.27586  -0.27360  -0.27163
  Beta virt. eigenvalues --   -0.12370  -0.08438  -0.04719  -0.03874  -0.00659
  Beta virt. eigenvalues --   -0.00199  -0.00188   0.00380   0.01474   0.01705
  Beta virt. eigenvalues --    0.01993   0.02218   0.02719   0.03940   0.04221

 Mulliken charges and spin densities:
               1          2
     1  Cl   0.458847   0.000000
     2  C    0.881102  -0.000000
     3  C   -0.352666  -0.000000
     4  C   -0.872216  -0.000000
     5  C    0.582722   0.000000
     6  C    0.372475   0.000000
     7  C   -1.848753  -0.000000
     8  O   -0.189419   0.000000
     9  C    0.320012   0.000000
    10  C    0.873426  -0.000000
    11  Cl   0.459897  -0.000000
    12  C   -0.355666  -0.000000
    13  C   -0.871761   0.000000
    14  C    0.584910  -0.000000
    15  C    0.365916  -0.000000
    16  C   -1.846917   0.000000
    17  O   -0.188470  -0.000000
    18  C    0.319038  -0.000000
    19  H    0.231955   0.000000
    20  H    0.214765   0.000000
    21  H    0.207017  -0.000000
    22  H    0.232048   0.000000
    23  H    0.214775   0.000000
    24  H    0.206964   0.000000
 Sum of Mulliken charges =  -0.00000  -0.00000

 Dipole moment (field-independent basis, Debye):
    X=              0.0431    Y=             -0.3682    Z=             -2.0269  Tot=              2.0606
 Quadrupole moment (field-independent basis, Debye-Ang):
   XX=            -82.9138   YY=           -135.8495   ZZ=           -119.6574
   XY=             -8.4919   XZ=              2.3232   YZ=              2.8631

  Exact polarizability: 354.828  17.383 340.369   1.741 -37.204 139.395
 Approx polarizability: 384.314   5.106 421.797   3.993 -47.400 167.998

                      1                      2                      3
                      A                      A                      A
 Frequencies --     35.0875                44.7432                60.0475
 Red. masses --     13.9784                 7.3353                13.0829
 Frc consts  --      0.0101                 0.0087                 0.0278
 IR Inten    --      3.1537                 8.9011                 0.4788

                      4                      5                      6
                      A                      A                      A
 Frequencies --    148.0823               164.2581               183.8791
 Red. masses --      6.9942                11.6719                 4.6432
 Frc consts  --      0.0904                 0.1855                 0.0925
 IR Inten    --      1.4993                 1.9254                 0.1782

                      7                      8                      9
                      A                      A                      A
 Frequencies --    192.5004               206.7164               243.8805
 Red. masses --      9.1939                 7.5620                 6.7659
 Frc consts  --      0.2007                 0.1904                 0.2371
 IR Inten    --      0.1274                 0.4839                 0.0821

                     10                     11                     12
                      A                      A                      A
 Frequencies --    328.2128               331.2397               346.7363
 Red. masses --     14.1943                10.3919                 6.5223
 Frc consts  --      0.9009                 0.6718                 0.4620
 IR Inten    --      0.0416                 1.6325                 0.1910

                     13                     14                     15
                      A                      A                      A
 Frequencies --    393.9838               404.0730               411.5257
 Red. masses --      9.7144                 7.8261                 8.7264
 Frc consts  --      0.8884                 0.7529                 0.8707
 IR Inten    --     44.4145                 0.0863                10.6407

                     16                     17                     18
                      A                      A                      A
 Frequencies --    432.6807               470.2742               476.2991
 Red. masses --      6.0196                 6.5057                 5.8668
 Frc consts  --      0.6640                 0.8477                 0.7842
 IR Inten    --     11.5672                 1.8655                 2.4314

                     19                     20                     21
                      A                      A                      A
 Frequencies --    504.4875               519.7346               530.8042
 Red. masses --      5.7571                 7.6937                 4.8745
 Frc consts  --      0.8633                 1.2245                 0.8092
 IR Inten    --      1.2524                 3.4646                 4.3435

                     22                     23                     24
                      A                      A                      A
 Frequencies --    618.7704               674.0064               691.0705
 Red. masses --      5.7444                 5.3465                 6.1160
 Frc consts  --      1.2959                 1.4310                 1.7209
 IR Inten    --      1.7896                 4.7474                 5.8951

                     25                     26                     27
                      A                      A                      A
 Frequencies --    717.6626               722.8233               767.2633
 Red. masses --      8.1820                 3.1249                 6.2176
 Frc consts  --      2.4829                 0.9620                 2.1566
 IR Inten    --    173.4457                64.1356                38.4352

                     28                     29                     30
                      A                      A                      A
 Frequencies --    788.9931               804.4311               819.6594
 Red. masses --      1.4653                 7.3943                 6.2928
 Frc consts  --      0.5374                 2.8192                 2.4909
 IR Inten    --      4.2400                 1.3680                67.9036

                     31                     32                     33
                      A                      A                      A
 Frequencies --    824.8002               848.7378               925.6414
 Red. masses --      1.7507                 4.6825                 6.6055
 Frc consts  --      0.7017                 1.9874                 3.3346
 IR Inten    --     63.6380                 4.2489                 0.0535

                     34                     35                     36
                      A                      A                      A
 Frequencies --    950.4767               950.5828               990.3019
 Red. masses --      1.3964                 1.3988                 8.3356
 Frc consts  --      0.7433                 0.7447                 4.8164
 IR Inten    --      0.5213                 1.4196               167.0633

                     37                     38                     39
                      A                      A                      A
 Frequencies --   1015.7248              1016.1269              1089.0716
 Red. masses --      1.3465                 1.3460                 2.4978
 Frc consts  --      0.8185                 0.8188                 1.7455
 IR Inten    --      1.9871                 1.5805                 0.1760

                     40                     41                     42
                      A                      A                      A
 Frequencies --   1103.4641              1142.3618              1142.4463
 Red. masses --      2.0052                 3.7931                 3.4171
 Frc consts  --      1.4385                 2.9164                 2.6277
 IR Inten    --     21.5262               151.6504                71.7296

                     43                     44                     45
                      A                      A                      A
 Frequencies --   1182.0744              1194.9465              1199.9654
 Red. masses --      1.3971                 1.4900                 1.7416
 Frc consts  --      1.1502                 1.2535                 1.4775
 IR Inten    --     23.7536                 3.0020                 0.4023

                     46                     47                     48
                      A                      A                      A
 Frequencies --   1226.4029              1269.8468              1296.0345
 Red. masses --      1.8871                 3.9281                 3.0689
 Frc consts  --      1.6723                 3.7319                 3.0372
 IR Inten    --    131.4326               905.3690                 0.0811

                     49                     50                     51
                      A                      A                      A
 Frequencies --   1335.9209              1342.6489              1446.7912
 Red. masses --      8.8410                 8.5622                 3.4420
 Frc consts  --      9.2963                 9.0941                 4.2450
 IR Inten    --    238.3414                 0.0770                91.7302

                     52                     53                     54
                      A                      A                      A
 Frequencies --   1456.6734              1467.7803              1477.4722
 Red. masses --      3.5559                 2.2732                 2.4218
 Frc consts  --      4.4455                 2.8854                 3.1148
 IR Inten    --      0.5835                24.0712                 0.8564

                     55                     56                     57
                      A                      A                      A
 Frequencies --   1590.5592              1601.1303              1606.5391
 Red. masses --      6.1617                 6.7328                 6.0275
 Frc consts  --      9.1844                10.1695                 9.1658
 IR Inten    --     26.6108                 3.3334               380.9841

                     58                     59                     60
                      A                      A                      A
 Frequencies --   1612.8516              1708.5678              1714.6782
 Red. masses --      6.0694                12.7088                12.4657
 Frc consts  --      9.3022                21.8584                21.5940
 IR Inten    --      0.2953                74.6445               761.3903

                     61                     62                     63
                      A                      A                      A
 Frequencies --   3191.0398              3191.2047              3207.7380
 Red. masses --      1.0888                 1.0888                 1.0932
 Frc consts  --      6.5324                 6.5332                 6.6274
 IR Inten    --      4.2144                 4.3517                 0.7790

                     64                     65                     66
                      A                      A                      A
 Frequencies --   3207.8333              3214.8378              3215.0164
 Red. masses --      1.0932                 1.0949                 1.0949
 Frc consts  --      6.6276                 6.6669                 6.6678
 IR Inten    --      1.0655                11.3988                 0.9314

 - Thermochemistry -
 -------------------
 Temperature   298.150 Kelvin.  Pressure   1.00000 Atm.
 Atom     1 has atomic number 17 and mass  34.96885

 Molecular mass:   275.97448 amu.
 Principal axes and moments of inertia in atomic units:
                           1         2         3
     Eigenvalues --  2765.379017166.454879761.31043
           X            0.82134  -0.57002  -0.02169
           Y            0.56422   0.80622   0.17796
           Z           -0.08395  -0.15840   0.98380
 This molecule is an asymmetric top.
 Rotational symmetry number  1.
 Warning -- assumption of classical behavior for rotation
           may cause significant error
 Rotational temperatures (Kelvin)      0.03132     0.01209     0.00887
 Rotational constants (GHZ):           0.65262     0.25183     0.18489
 Zero-point vibrational energy     418646.4 (Joules/Mol)
                                  100.05890 (Kcal/Mol)
 Warning -- explicit consideration of  22 degrees of freedom as
           vibrations may cause significant error
 Vibrational temperatures:     50.48    64.38    86.39   213.06   236.33
          (Kelvin)            264.56   276.97   297.42   350.89   472.23
                              476.58   498.88   566.85   581.37   592.09
                              622.53   676.62   685.29   725.84   747.78
                              763.71   890.27   969.74   994.30  1032.56
                             1039.98  1103.92  1135.19  1157.40  1179.31
                             1186.70  1221.14  1331.79  1367.52  1367.68
                             1424.82  1461.40  1461.98  1566.93  1587.64
                             1643.60  1643.73  1700.74  1719.26  1726.48
                             1764.52  1827.03  1864.70  1922.09  1931.77
                             2081.61  2095.83  2111.81  2125.75  2288.46
                             2303.67  2311.45  2320.53  2458.25  2467.04
                             4591.19  4591.43  4615.22  4615.36  4625.43
                             4625.69

 Zero-point correction=                           0.159454 (Hartree/Particle)
 Thermal correction to Energy=                    0.173281
 Thermal correction to Enthalpy=                  0.174226
 Thermal correction to Gibbs Free Energy=         0.117355
 Sum of electronic and zero-point Energies=          -1608.026610
 Sum of electronic and thermal Energies=             -1608.012782
 Sum of electronic and thermal Enthalpies=           -1608.011838
 Sum of electronic and thermal Free Energies=        -1608.068709

                     E (Thermal)             CV                S
                      KCal/Mol        Cal/Mol-Kelvin    Cal/Mol-Kelvin
 Total                  108.736             53.489            119.695
 Electronic               0.000              0.000              0.000
 Translational            0.889              2.981             42.744
 Rotational               0.889              2.981             33.625
 Vibrational            106.958             47.527             43.326
 Vibration     1          0.594              1.982              5.519
 Vibration     2          0.595              1.980              5.037
 Vibration     3          0.597              1.973              4.456
 Vibration     4          0.617              1.905              2.697
 Vibration     5          0.623              1.886              2.500
 Vibration     6          0.631              1.862              2.289
 Vibration     7          0.634              1.850              2.204
 Vibration     8          0.641              1.830              2.072
 Vibration     9          0.659              1.773              1.774
 Vibration    10          0.711              1.619              1.269
 Vibration    11          0.714              1.613              1.254
 Vibration    12          0.725              1.582              1.181
 Vibration    13          0.761              1.483              0.985
 Vibration    14          0.769              1.461              0.948
 Vibration    15          0.775              1.445              0.921
 Vibration    16          0.794              1.399              0.850
 Vibration    17          0.827              1.316              0.737
 Vibration    18          0.833              1.303              0.720
 Vibration    19          0.860              1.240              0.647
 Vibration    20          0.875              1.206              0.611
 Vibration    21          0.886              1.182              0.585
 Vibration    22          0.979              0.992              0.418

                           ! Non-Optimized Parameters !
 Normal termination of Gaussian 16 at Sat Feb 10 17:58:39 2024.
