 Q-Chem 5.4, Q-Chem, Inc., Pleasanton, CA (2021)
 Q-Chem 5.4.0 for Intel X86 EM64T Linux

User input:
--------------------------------------------------------------
$molecule
-1 2
C                 -1.5179100000      0.3291200000      0.9024090000
C                 -1.9966420000      1.4667350000      0.3019080000
C                 -1.0703610000      2.3865020000     -0.3508830000
O                 -1.4721230000      3.4468800000     -0.9164170000
C                  0.3288690000      2.0213510000     -0.3166990000
C                  0.8076000000      0.8837410000      0.2838120000
C                 -0.1186830000     -0.0360510000      0.9365590000
O                  0.2830700000     -1.0964560000      1.5020510000
H                  0.9955770000      2.7228420000     -0.8094420000
C                  2.2695410000      0.4975960000      0.3223030000
C                  3.2523750000      1.4552170000     -0.3549850000
C                  4.7072370000      0.9794510000     -0.2619240000
C                  5.7102460000      1.9269050000     -0.9319660000
C                  7.1627160000      1.4433880000     -0.8346790000
C                  8.2242660000      2.4069670000     -1.3989620000
C                  9.6388600000      1.9141340000     -1.0610440000
C                  8.0789410000      2.6218600000     -2.9125490000
C                 -3.4585930000      1.8528500000      0.2633470000
C                 -4.4411200000      0.8967590000      0.9432400000
C                 -5.8959250000      1.3727790000      0.8505590000
C                 -6.8986620000      0.4267570000      1.5230250000
C                 -8.3510610000      0.9105770000      1.4261650000
C                 -9.4124540000     -0.0517750000      1.9928330000
C                -10.8271680000      0.4409830000      1.6553140000
C                 -9.2659430000     -0.2643520000      3.5066330000
H                 -2.1846080000     -0.3723470000      1.3951950000
H                  2.3710940000     -0.5038870000     -0.1167930000
H                  2.5587430000      0.3564880000      1.3722670000
H                  3.1713450000      2.4516540000      0.0970440000
H                  2.9822220000      1.5793180000     -1.4110960000
H                  4.7925530000     -0.0166090000     -0.7165220000
H                  4.9803270000      0.8527020000      0.7941630000
H                  5.6300930000      2.9204720000     -0.4706390000
H                  5.4258650000      2.0562620000     -1.9826540000
H                  7.2590150000      0.4735450000     -1.3432630000
H                  7.3955950000      1.2530400000      0.2210430000
H                  8.0828230000      3.3794690000     -0.9067910000
H                  9.7732410000      1.8004340000      0.0190640000
H                 10.4022030000      2.6104540000     -1.4235270000
H                  9.8323350000      0.9394240000     -1.5236250000
H                  8.8477630000      3.3050780000     -3.2879870000
H                  7.1057400000      3.0430890000     -3.1740870000
H                  8.1866900000      1.6723920000     -3.4499670000
H                 -3.7484570000      1.9916560000     -0.7867640000
H                 -3.5597700000      2.8552970000      0.7002700000
H                 -4.1700400000      0.7745430000      1.9993350000
H                 -4.3608200000     -0.1005440000      0.4929990000
H                 -6.1698440000      1.4978080000     -0.2055200000
H                 -5.9805790000      2.3696350000      1.3035290000
H                 -6.6134320000      0.2990540000      2.5736840000
H                 -6.8192190000     -0.5676010000      1.0632820000
H                 -8.5847480000      1.0993330000      0.3703350000
H                 -8.4466370000      1.8812510000      1.9332980000
H                 -9.2717320000     -1.0250920000      1.5020660000
H                -11.5904340000     -0.2545280000      2.0195090000
H                -10.9624020000      0.5530410000      0.5751400000
H                -11.0199520000      1.4164730000      2.1165330000
H                -10.0346790000     -0.9467270000      3.8837770000
H                 -9.3729290000      0.6859890000      4.0426590000
H                 -8.2926640000     -0.6854970000      3.7680180000
$end

$rem
MAX_SCF_CYCLES=200
BASIS  =  6-311++G(d,p)
GUI  =  2
JOB_TYPE  =  SP
METHOD  =  B3LYP
THRESH      14
SCF_CONVERGENCE  = 5
SOLVENT_METHOD = sm12
$end

$smx
solvent dimethylformamide
charges CM5
$end

--------------------------------------------------------------

             Standard Nuclear Orientation (Angstroms)
    I     Atom           X                Y                Z
 ----------------------------------------------------------------
    1      C      -1.5179100000     0.3291200000     0.9024090000
    2      C      -1.9966420000     1.4667350000     0.3019080000
    3      C      -1.0703610000     2.3865020000    -0.3508830000
    4      O      -1.4721230000     3.4468800000    -0.9164170000
    5      C       0.3288690000     2.0213510000    -0.3166990000
    6      C       0.8076000000     0.8837410000     0.2838120000
    7      C      -0.1186830000    -0.0360510000     0.9365590000
    8      O       0.2830700000    -1.0964560000     1.5020510000
    9      H       0.9955770000     2.7228420000    -0.8094420000
   10      C       2.2695410000     0.4975960000     0.3223030000
   11      C       3.2523750000     1.4552170000    -0.3549850000
   12      C       4.7072370000     0.9794510000    -0.2619240000
   13      C       5.7102460000     1.9269050000    -0.9319660000
   14      C       7.1627160000     1.4433880000    -0.8346790000
   15      C       8.2242660000     2.4069670000    -1.3989620000
   16      C       9.6388600000     1.9141340000    -1.0610440000
   17      C       8.0789410000     2.6218600000    -2.9125490000
   18      C      -3.4585930000     1.8528500000     0.2633470000
   19      C      -4.4411200000     0.8967590000     0.9432400000
   20      C      -5.8959250000     1.3727790000     0.8505590000
   21      C      -6.8986620000     0.4267570000     1.5230250000
   22      C      -8.3510610000     0.9105770000     1.4261650000
   23      C      -9.4124540000    -0.0517750000     1.9928330000
   24      C     -10.8271680000     0.4409830000     1.6553140000
   25      C      -9.2659430000    -0.2643520000     3.5066330000
   26      H      -2.1846080000    -0.3723470000     1.3951950000
   27      H       2.3710940000    -0.5038870000    -0.1167930000
   28      H       2.5587430000     0.3564880000     1.3722670000
   29      H       3.1713450000     2.4516540000     0.0970440000
   30      H       2.9822220000     1.5793180000    -1.4110960000
   31      H       4.7925530000    -0.0166090000    -0.7165220000
   32      H       4.9803270000     0.8527020000     0.7941630000
   33      H       5.6300930000     2.9204720000    -0.4706390000
   34      H       5.4258650000     2.0562620000    -1.9826540000
   35      H       7.2590150000     0.4735450000    -1.3432630000
   36      H       7.3955950000     1.2530400000     0.2210430000
   37      H       8.0828230000     3.3794690000    -0.9067910000
   38      H       9.7732410000     1.8004340000     0.0190640000
   39      H      10.4022030000     2.6104540000    -1.4235270000
   40      H       9.8323350000     0.9394240000    -1.5236250000
   41      H       8.8477630000     3.3050780000    -3.2879870000
   42      H       7.1057400000     3.0430890000    -3.1740870000
   43      H       8.1866900000     1.6723920000    -3.4499670000
   44      H      -3.7484570000     1.9916560000    -0.7867640000
   45      H      -3.5597700000     2.8552970000     0.7002700000
   46      H      -4.1700400000     0.7745430000     1.9993350000
   47      H      -4.3608200000    -0.1005440000     0.4929990000
   48      H      -6.1698440000     1.4978080000    -0.2055200000
   49      H      -5.9805790000     2.3696350000     1.3035290000
   50      H      -6.6134320000     0.2990540000     2.5736840000
   51      H      -6.8192190000    -0.5676010000     1.0632820000
   52      H      -8.5847480000     1.0993330000     0.3703350000
   53      H      -8.4466370000     1.8812510000     1.9332980000
   54      H      -9.2717320000    -1.0250920000     1.5020660000
   55      H     -11.5904340000    -0.2545280000     2.0195090000
   56      H     -10.9624020000     0.5530410000     0.5751400000
   57      H     -11.0199520000     1.4164730000     2.1165330000
   58      H     -10.0346790000    -0.9467270000     3.8837770000
   59      H      -9.3729290000     0.6859890000     4.0426590000
   60      H      -8.2926640000    -0.6854970000     3.7680180000
 ----------------------------------------------------------------

    8   -1010.8313267922      3.50e-06  Convergence criterion met
 Total energy in the final basis set =    -1010.9226885990

                    Orbital Energies (a.u.)
 --------------------------------------------------------------

 Alpha MOs
 -- Occupied --
-19.0694 -19.0694 -10.2125 -10.2125 -10.1742 -10.1742 -10.1705 -10.1705
-10.1681 -10.1681 -10.1658 -10.1658 -10.1649 -10.1649 -10.1639 -10.1639
-10.1634 -10.1634 -10.1585 -10.1585 -10.1567 -10.1567 -10.1567 -10.1567
 -0.9903  -0.9879  -0.8308  -0.8210  -0.8172  -0.8046  -0.7896  -0.7689
 -0.7432  -0.7201  -0.6882  -0.6849  -0.6839  -0.6838  -0.6519  -0.6286
 -0.6012  -0.5917  -0.5823  -0.5672  -0.5592  -0.5576  -0.5397  -0.4847
 -0.4841  -0.4767  -0.4632  -0.4628  -0.4612  -0.4440  -0.4403  -0.4392
 -0.4371  -0.4333  -0.4216  -0.4200  -0.4163  -0.4016  -0.3974  -0.3936
 -0.3874  -0.3870  -0.3851  -0.3834  -0.3807  -0.3690  -0.3684  -0.3634
 -0.3623  -0.3535  -0.3531  -0.3472  -0.3435  -0.3431  -0.3361  -0.3310
 -0.3280  -0.3279  -0.3226  -0.3226  -0.3199  -0.3198  -0.3080  -0.3073
 -0.2730  -0.2482  -0.2351  -0.2287  -0.1549

 Beta MOs
 -- Occupied --
-19.0624 -19.0624 -10.2111 -10.2111 -10.1742 -10.1742 -10.1691 -10.1691
-10.1682 -10.1682 -10.1658 -10.1658 -10.1649 -10.1649 -10.1639 -10.1639
-10.1634 -10.1634 -10.1577 -10.1577 -10.1567 -10.1567 -10.1567 -10.1567
 -0.9782  -0.9754  -0.8270  -0.8209  -0.8162  -0.8040  -0.7886  -0.7679
 -0.7426  -0.7191  -0.6844  -0.6839  -0.6836  -0.6819  -0.6486  -0.6275
 -0.5995  -0.5906  -0.5820  -0.5657  -0.5592  -0.5570  -0.5360  -0.4844
 -0.4840  -0.4748  -0.4626  -0.4626  -0.4577  -0.4439  -0.4390  -0.4387
 -0.4365  -0.4306  -0.4207  -0.4194  -0.4148  -0.3963  -0.3949  -0.3872
 -0.3864  -0.3863  -0.3842  -0.3816  -0.3785  -0.3662  -0.3632  -0.3631
 -0.3529  -0.3524  -0.3496  -0.3454  -0.3413  -0.3358  -0.3335  -0.3298
 -0.3276  -0.3246  -0.3226  -0.3226  -0.3199  -0.3198  -0.3079  -0.3069
 -0.2404  -0.2399  -0.2286  -0.2224

          Ground-State Mulliken Net Atomic Charges

     Atom                 Charge (a.u.)    Spin (a.u.)
  --------------------------------------------------------
      1 C                    -1.915067       0.048489
      2 C                     0.737999       0.118660
      3 C                    -2.280511       0.075968
      4 O                    -0.358205       0.260546
      5 C                    -1.912080       0.048479
      6 C                     0.735387       0.118639
      7 C                    -2.282522       0.075964
      8 O                    -0.358234       0.260546
      9 H                     0.087637      -0.007427
     10 C                    -3.009894      -0.005448
     11 C                     1.614204       0.000153
     12 C                    -0.092871      -0.003389
     13 C                     1.320321      -0.000644
     14 C                     0.856237      -0.000144
     15 C                     0.974713      -0.000038
     16 C                    -0.094106      -0.000004
     17 C                    -0.656803       0.000003
     18 C                    -3.009088      -0.005432
     19 C                     1.611297       0.000154
     20 C                    -0.090782      -0.003388
     21 C                     1.318060      -0.000644
     22 C                     0.855742      -0.000145
     23 C                     0.974853      -0.000039
     24 C                    -0.094193      -0.000004
     25 C                    -0.656971       0.000003
     26 H                     0.087524      -0.007427
     27 H                     0.184662       0.007838
     28 H                     0.167893       0.007845
     29 H                     0.078045      -0.001187
     30 H                     0.064730      -0.001255
     31 H                     0.122367      -0.000065
     32 H                     0.161106      -0.000095
     33 H                     0.115019       0.000109
     34 H                     0.105550       0.000122
     35 H                     0.123253      -0.000014
     36 H                     0.100924      -0.000010
     37 H                     0.113564      -0.000000
     38 H                     0.143623      -0.000001
     39 H                     0.220010      -0.000000
     40 H                     0.145057      -0.000000
     41 H                     0.198608      -0.000001
     42 H                     0.149547      -0.000002
     43 H                     0.124594      -0.000001
     44 H                     0.167773       0.007877
     45 H                     0.184937       0.007807
     46 H                     0.065427      -0.001245
     47 H                     0.077500      -0.001195
     48 H                     0.161669      -0.000095
     49 H                     0.121684      -0.000066
     50 H                     0.105488       0.000120
     51 H                     0.115119       0.000110
     52 H                     0.100754      -0.000010
     53 H                     0.123435      -0.000014
     54 H                     0.113598      -0.000000
     55 H                     0.219999      -0.000000
     56 H                     0.143637      -0.000001
     57 H                     0.145044      -0.000000
     58 H                     0.198620      -0.000001
     59 H                     0.124593      -0.000001
     60 H                     0.149525      -0.000002
  --------------------------------------------------------
  Sum of atomic charges =    -1.000000

                    Cartesian Multipole Moments
 -----------------------------------------------------------------
    Charge (ESU x 10^10)
                -4.8032
    Dipole Moment (Debye)
         X       2.8555      Y      -5.6450      Z      -1.4065
       Tot       6.4806
    Quadrupole Moments (Debye-Ang)
        XX    -172.3918     XY      14.0960     YY    -192.4986
        XZ      -1.6592     YZ      13.7980     ZZ    -167.8128

 Total job time:  2279.21s(wall), 14396.03s(cpu)
        *  Thank you very much for using Q-Chem.  Have a nice day.  *
