 Gaussian 16, Revision A.03,
 Gaussian 16:  ES64L-G16RevA.03 25-Dec-2016

 ----------------------------------------------------------------------
 #P UB3LYP/6-311++G(d,p) nosym opt freq SCRF=(PCM,Solvent=n,n-DiMethylF
 ormamide)
 ----------------------------------------------------------------------

 -------
 Radical
 -------
 Symbolic Z-matrix:
 Charge = -1 Multiplicity = 2

 SCF Done:  E(UB3LYP) =  -728.414340926     A.U. after   19 cycles
 SCF Done:  E(UB3LYP) =  -728.414540265     A.U. after   15 cycles
 SCF Done:  E(UB3LYP) =  -728.414587468     A.U. after   15 cycles
 SCF Done:  E(UB3LYP) =  -728.414592958     A.U. after   11 cycles
 SCF Done:  E(UB3LYP) =  -728.414592890     A.U. after   10 cycles
 SCF Done:  E(UB3LYP) =  -728.414593844     A.U. after    9 cycles
 Optimization completed.
    -- Stationary point found.
 Normal termination of Gaussian 16 at Sat Feb 10 16:23:27 2024.

 ----------------------------------------------------------------------
 #P Geom=AllCheck Guess=TCheck SCRF=Check GenChk UB3LYP/6-311++G(d,p) F
 req
 ----------------------------------------------------------------------

 Structure from the checkpoint file:  "123-rad.chk"
 -------
 Radical
 -------
 Charge = -1 Multiplicity = 2

                          Input orientation:
 ---------------------------------------------------------------------
 Center     Atomic      Atomic             Coordinates (Angstroms)
 Number     Number       Type             X           Y           Z
 ---------------------------------------------------------------------
      1          6           0       -2.904264   -1.923726   -0.139823
      2          6           0       -2.401017   -0.500083   -0.050572
      3          6           0       -3.355532    0.503615    0.051608
      4          6           0       -3.005028    1.862853    0.138798
      5          6           0       -1.677100    2.223622    0.123555
      6          6           0       -0.661157    1.247301    0.022713
      7          6           0        0.724914    1.715716    0.014357
      8          8           0        1.008118    2.947017    0.093159
      9          6           0        1.764241    0.702402   -0.088126
     10          6           0        3.126004    1.086198   -0.100682
     11          6           0        4.132423    0.147023   -0.197026
     12          6           0        3.807046   -1.224238   -0.284158
     13          6           0        2.484224   -1.620159   -0.273225
     14          6           0        1.434475   -0.677757   -0.176365
     15          6           0        0.046414   -1.152573   -0.170409
     16          8           0       -0.194164   -2.388871   -0.253028
     17          6           0       -1.011311   -0.142377   -0.066435
     18          1           0       -3.996835   -1.927895   -0.107045
     19          1           0       -2.525541   -2.539718    0.677552
     20          1           0       -2.578243   -2.412175   -1.059740
     21          1           0       -4.404737    0.226400    0.063792
     22          1           0       -3.780941    2.617079    0.217215
     23          1           0       -1.376457    3.261677    0.188037
     24          1           0        3.356440    2.142561   -0.032614
     25          1           0        5.171345    0.458987   -0.205780
     26          1           0        4.596457   -1.964394   -0.359654
     27          1           0        2.220224   -2.668484   -0.338723
 ---------------------------------------------------------------------

 SCF Done:  E(UB3LYP) =  -728.414593844     A.U. after    1 cycles

 Alpha  occ. eigenvalues --  -19.07178 -19.07127 -10.22376 -10.22011 -10.18350
 Alpha  occ. eigenvalues --  -10.17526 -10.17179 -10.17154 -10.17123 -10.17112
 Alpha  occ. eigenvalues --  -10.17043 -10.16912 -10.16899 -10.16859 -10.16540
 Alpha  occ. eigenvalues --  -10.16433 -10.15364  -0.99807  -0.99431  -0.85946
 Alpha  occ. eigenvalues --   -0.85011  -0.78430  -0.76795  -0.74863  -0.73644
 Alpha  occ. eigenvalues --   -0.68679  -0.65878  -0.63082  -0.61474  -0.57677
 Alpha  occ. eigenvalues --   -0.54575  -0.53169  -0.51799  -0.47040  -0.46269
 Alpha  occ. eigenvalues --   -0.45766  -0.45417  -0.42588  -0.42266  -0.41484
 Alpha  occ. eigenvalues --   -0.40872  -0.40319  -0.40175  -0.39931  -0.37545
 Alpha  occ. eigenvalues --   -0.37490  -0.36560  -0.35688  -0.34366  -0.34196
 Alpha  occ. eigenvalues --   -0.33561  -0.33036  -0.26554  -0.25542  -0.24722
 Alpha  occ. eigenvalues --   -0.24672  -0.24156  -0.23223  -0.13972
 Alpha virt. eigenvalues --   -0.05140  -0.02072  -0.00321  -0.00249   0.00464
 Alpha virt. eigenvalues --    0.01044   0.02016   0.02265   0.03693   0.04024
 Alpha virt. eigenvalues --    0.04215   0.04475   0.05052   0.05284   0.06238

  Beta  occ. eigenvalues --  -19.06619 -19.06562 -10.22221 -10.21818 -10.18352
  Beta  occ. eigenvalues --  -10.17455 -10.17142 -10.17077 -10.17070 -10.17026
  Beta  occ. eigenvalues --  -10.16976 -10.16885 -10.16870 -10.16868 -10.16475
  Beta  occ. eigenvalues --  -10.16419 -10.15364  -0.98826  -0.98428  -0.85680
  Beta  occ. eigenvalues --   -0.84896  -0.78039  -0.76648  -0.74661  -0.73460
  Beta  occ. eigenvalues --   -0.68416  -0.65281  -0.62910  -0.61216  -0.57587
  Beta  occ. eigenvalues --   -0.54355  -0.52930  -0.51654  -0.46734  -0.46192
  Beta  occ. eigenvalues --   -0.45591  -0.45347  -0.42227  -0.41821  -0.41263
  Beta  occ. eigenvalues --   -0.40539  -0.40033  -0.39779  -0.39478  -0.37398
  Beta  occ. eigenvalues --   -0.36480  -0.35761  -0.34781  -0.34297  -0.34084
  Beta  occ. eigenvalues --   -0.32884  -0.32400  -0.25013  -0.24460  -0.24182
  Beta  occ. eigenvalues --   -0.23806  -0.23642  -0.22712
  Beta virt. eigenvalues --   -0.08078  -0.04180  -0.01053  -0.00307  -0.00011
  Beta virt. eigenvalues --    0.00463   0.01051   0.02027   0.02264   0.03744
  Beta virt. eigenvalues --    0.04034   0.04220   0.04485   0.05396   0.05766

 Mulliken charges and spin densities:
               1          2
     1  C   -0.517455   0.005502
     2  C    0.763409   0.015167
     3  C   -0.438605   0.053927
     4  C   -0.347794   0.033558
     5  C   -0.045395   0.037124
     6  C    0.415759   0.035741
     7  C   -0.590126   0.108828
     8  O   -0.469205   0.208254
     9  C    0.074144   0.011082
    10  C    0.020768   0.034557
    11  C   -0.454127   0.025498
    12  C   -0.471265   0.043803
    13  C    0.117878   0.017654
    14  C    0.058702   0.042394
    15  C   -0.758555   0.082626
    16  O   -0.423570   0.207476
    17  C    0.440729   0.055373
    18  H    0.144553  -0.000357
    19  H    0.160508  -0.000142
    20  H    0.160512  -0.000135
    21  H    0.120917  -0.004282
    22  H    0.193374  -0.002700
    23  H    0.155553  -0.002202
    24  H    0.163007  -0.001998
    25  H    0.178679  -0.002282
    26  H    0.179980  -0.003616
    27  H    0.167626  -0.000850
 Sum of Mulliken charges =  -1.00000   1.00000

 Dipole moment (field-independent basis, Debye):
    X=             -2.2066    Y=             -2.2024    Z=              0.3297  Tot=              3.1350
 Quadrupole moment (field-independent basis, Debye-Ang):
   XX=            -99.6981   YY=           -133.8922   ZZ=           -106.4696
   XY=             -8.0857   XZ=             -0.5810   YZ=             -1.5436

  Exact polarizability: 459.491 -18.241 365.206 -10.845  16.729 140.111
 Approx polarizability: 471.812 -10.859 432.612 -10.080  19.878 160.931

                      1                      2                      3
                      A                      A                      A
 Frequencies --     46.9279                68.6121               125.7971
 Red. masses --      6.0167                 4.1149                 4.4226
 Frc consts  --      0.0078                 0.0114                 0.0412
 IR Inten    --     15.5924                 0.6528                 0.0115

                      4                      5                      6
                      A                      A                      A
 Frequencies --    164.3389               205.8458               218.1603
 Red. masses --      7.2366                 2.8731                 4.3461
 Frc consts  --      0.1152                 0.0717                 0.1219
 IR Inten    --      3.4066                 2.3497                11.9977

                      7                      8                      9
                      A                      A                      A
 Frequencies --    241.9469               255.4145               311.5778
 Red. masses --      1.1582                 4.3002                 5.6707
 Frc consts  --      0.0399                 0.1653                 0.3244
 IR Inten    --      0.2498                 1.4462                 0.1452

                     10                     11                     12
                      A                      A                      A
 Frequencies --    346.2642               384.1016               392.1868
 Red. masses --      5.3885                 6.3375                11.9955
 Frc consts  --      0.3807                 0.5509                 1.0871
 IR Inten    --      1.6755                 0.2303                25.6334

                     13                     14                     15
                      A                      A                      A
 Frequencies --    419.1029               435.6709               447.0255
 Red. masses --      6.0100                 3.2716                 4.4452
 Frc consts  --      0.6220                 0.3659                 0.5234
 IR Inten    --      0.0023                 0.5058                 0.9580

                     16                     17                     18
                      A                      A                      A
 Frequencies --    492.0256               503.1668               528.4785
 Red. masses --     10.4940                 3.8977                 3.5658
 Frc consts  --      1.4968                 0.5814                 0.5868
 IR Inten    --      0.1501                 0.3733                 9.4670

                     19                     20                     21
                      A                      A                      A
 Frequencies --    550.5128               611.5594               644.2687
 Red. masses --      5.2898                 6.4120                 4.3243
 Frc consts  --      0.9445                 1.4129                 1.0576
 IR Inten    --      4.0072                35.0355                 1.4399

                     22                     23                     24
                      A                      A                      A
 Frequencies --    661.3777               694.0209               706.4902
 Red. masses --      6.4239                 7.0146                 2.2168
 Frc consts  --      1.6556                 1.9907                 0.6519
 IR Inten    --      8.1994                 0.5249               137.2103

                     25                     26                     27
                      A                      A                      A
 Frequencies --    738.6897               777.4497               792.3094
 Red. masses --      3.8628                 1.4113                 5.9386
 Frc consts  --      1.2419                 0.5026                 2.1965
 IR Inten    --      0.6366                 0.0168                 7.3028

                     28                     29                     30
                      A                      A                      A
 Frequencies --    800.3712               816.1705               859.6538
 Red. masses --      2.3251                 2.9972                 6.3177
 Frc consts  --      0.8775                 1.1763                 2.7508
 IR Inten    --     58.8204                21.5031                38.6269

                     31                     32                     33
                      A                      A                      A
 Frequencies --    884.8056               913.7582               929.6392
 Red. masses --      1.4925                 1.3626                 5.7662
 Frc consts  --      0.6884                 0.6703                 2.9361
 IR Inten    --      0.0195                 0.1243                 9.1532

                     34                     35                     36
                      A                      A                      A
 Frequencies --    978.2882               989.4736               995.4053
 Red. masses --      2.7911                 1.3616                 1.3194
 Frc consts  --      1.5738                 0.7855                 0.7702
 IR Inten    --     25.0502                 2.2817                 1.7755

                     37                     38                     39
                      A                      A                      A
 Frequencies --   1001.2977              1032.2923              1042.5577
 Red. masses --      1.2889                 2.0743                 2.0973
 Frc consts  --      0.7614                 1.3024                 1.3431
 IR Inten    --      0.0523                38.8714                10.5901

                     40                     41                     42
                      A                      A                      A
 Frequencies --   1055.8755              1101.9152              1112.1876
 Red. masses --      1.5458                 1.9532                 2.1327
 Frc consts  --      1.0154                 1.3973                 1.5543
 IR Inten    --      4.6426                31.3526                33.5938

                     43                     44                     45
                      A                      A                      A
 Frequencies --   1144.3807              1168.4119              1184.7319
 Red. masses --      1.4209                 1.4015                 2.0650
 Frc consts  --      1.0964                 1.1273                 1.7077
 IR Inten    --     32.8468                 5.8528                 4.6403

                     46                     47                     48
                      A                      A                      A
 Frequencies --   1201.3419              1230.2342              1242.0719
 Red. masses --      2.0592                 3.0039                 2.7655
 Frc consts  --      1.7510                 2.6786                 2.5137
 IR Inten    --      1.4390                33.4000               102.5058

                     49                     50                     51
                      A                      A                      A
 Frequencies --   1254.8136              1330.6504              1357.5521
 Red. masses --      2.0580                 5.7158                 2.9791
 Frc consts  --      1.9092                 5.9628                 3.2348
 IR Inten    --    195.6900                26.6549                16.8251

                     52                     53                     54
                      A                      A                      A
 Frequencies --   1363.9392              1397.3657              1411.3893
 Red. masses --     10.6937                 3.2168                 1.2358
 Frc consts  --     11.7211                 3.7008                 1.4504
 IR Inten    --      8.1464               959.2943                 1.0586

                     55                     56                     57
                      A                      A                      A
 Frequencies --   1426.2298              1461.4652              1471.8208
 Red. masses --      2.3836                 1.0477                 1.9994
 Frc consts  --      2.8567                 1.3184                 2.5519
 IR Inten    --    595.3082                 8.5495                86.5567

                     58                     59                     60
                      A                      A                      A
 Frequencies --   1484.1242              1487.7879              1507.4289
 Red. masses --      1.7265                 2.2728                 3.9255
 Frc consts  --      2.2406                 2.9640                 5.2555
 IR Inten    --      6.8140                13.2166              1007.3913

                     61                     62                     63
                      A                      A                      A
 Frequencies --   1522.9343              1564.4018              1608.2621
 Red. masses --      6.2621                 5.7174                 7.6274
 Frc consts  --      8.5572                 8.2442                11.6236
 IR Inten    --     19.0490               141.5782                 2.3727

                     64                     65                     66
                      A                      A                      A
 Frequencies --   1615.1781              1626.9205              3032.6455
 Red. masses --      5.3216                 5.9353                 1.0373
 Frc consts  --      8.1796                 9.2560                 5.6209
 IR Inten    --      4.3796                 3.2599                70.2988

                     67                     68                     69
                      A                      A                      A
 Frequencies --   3097.5113              3097.9847              3152.3405
 Red. masses --      1.0995                 1.1003                 1.0866
 Frc consts  --      6.2156                 6.2218                 6.3621
 IR Inten    --     26.0613                41.5376                30.9758

                     70                     71                     72
                      A                      A                      A
 Frequencies --   3157.8290              3169.2596              3171.9989
 Red. masses --      1.0859                 1.0921                 1.0903
 Frc consts  --      6.3802                 6.4626                 6.4635
 IR Inten    --     13.3311                46.2188                22.0390

                     73                     74                     75
                      A                      A                      A
 Frequencies --   3188.2539              3192.7668              3195.5120
 Red. masses --      1.0924                 1.0937                 1.0926
 Frc consts  --      6.5423                 6.5688                 6.5735
 IR Inten    --     22.7138                47.3872                21.4683

 - Thermochemistry -
 -------------------
 Temperature   298.150 Kelvin.  Pressure   1.00000 Atm.
 Atom     1 has atomic number  6 and mass  12.00000

 Molecular mass:   222.06808 amu.
 Principal axes and moments of inertia in atomic units:
                           1         2         3
     Eigenvalues --  2044.729174462.746586496.54109
           X            0.99662   0.07670   0.02945
           Y           -0.07444   0.99467  -0.07141
           Z           -0.03478   0.06898   0.99701
 This molecule is an asymmetric top.
 Rotational symmetry number  1.
 Warning -- assumption of classical behavior for rotation
           may cause significant error
 Rotational temperatures (Kelvin)      0.04236     0.01941     0.01333
 Rotational constants (GHZ):           0.88263     0.40440     0.27780
 Zero-point vibrational energy     537102.7 (Joules/Mol)
                                  128.37062 (Kcal/Mol)
 Warning -- explicit consideration of  20 degrees of freedom as
           vibrations may cause significant error
 Vibrational temperatures:     67.52    98.72   180.99   236.45   296.17
          (Kelvin)            313.88   348.11   367.48   448.29   498.20
                              552.64   564.27   603.00   626.83   643.17
                              707.92   723.94   760.36   792.07   879.90
                              926.96   951.58   998.54  1016.48  1062.81
                             1118.58  1139.96  1151.56  1174.29  1236.85
                             1273.04  1314.69  1337.54  1407.54  1423.63
                             1432.17  1440.64  1485.24  1500.01  1519.17
                             1585.41  1600.19  1646.51  1681.08  1704.56
                             1728.46  1770.03  1787.06  1805.40  1914.51
                             1953.21  1962.40  2010.50  2030.67  2052.03
                             2102.72  2117.62  2135.32  2140.60  2168.85
                             2191.16  2250.83  2313.93  2323.88  2340.78
                             4363.30  4456.63  4457.31  4535.51  4543.41
                             4559.86  4563.80  4587.19  4593.68  4597.63

 Zero-point correction=                           0.204572 (Hartree/Particle)
 Thermal correction to Energy=                    0.217285
 Thermal correction to Enthalpy=                  0.218229
 Thermal correction to Gibbs Free Energy=         0.164842
 Sum of electronic and zero-point Energies=           -728.210022
 Sum of electronic and thermal Energies=              -728.197309
 Sum of electronic and thermal Enthalpies=            -728.196364
 Sum of electronic and thermal Free Energies=         -728.249752

                     E (Thermal)             CV                S
                      KCal/Mol        Cal/Mol-Kelvin    Cal/Mol-Kelvin
 Total                  136.349             51.939            112.364
 Electronic               0.000              0.000              1.377
 Translational            0.889              2.981             42.096
 Rotational               0.889              2.981             32.450
 Vibrational            134.571             45.977             36.440
 Vibration     1          0.595              1.979              4.943
 Vibration     2          0.598              1.969              4.193
 Vibration     3          0.611              1.927              3.009
 Vibration     4          0.623              1.886              2.499
 Vibration     5          0.640              1.832              2.080
 Vibration     6          0.646              1.813              1.974
 Vibration     7          0.658              1.776              1.789
 Vibration     8          0.666              1.754              1.693
 Vibration     9          0.700              1.652              1.354
 Vibration    10          0.724              1.583              1.183
 Vibration    11          0.753              1.504              1.023
 Vibration    12          0.760              1.487              0.992
 Vibration    13          0.782              1.429              0.895
 Vibration    14          0.796              1.392              0.840
 Vibration    15          0.806              1.367              0.805
 Vibration    16          0.848              1.268              0.678
 Vibration    17          0.858              1.243              0.650
 Vibration    18          0.883              1.187              0.591
 Vibration    19          0.906              1.139              0.543
 Vibration    20          0.971              1.007              0.430

                           ! Non-Optimized Parameters !
 Normal termination of Gaussian 16 at Sat Feb 10 17:18:50 2024.
