 Gaussian 16, Revision A.03,
 Gaussian 16:  ES64L-G16RevA.03 25-Dec-2016

 ----------------------------------------------------------------------
 #P UB3LYP/6-311++G(d,p) nosym opt freq SCRF=(PCM,Solvent=n,n-DiMethylF
 ormamide)
 ----------------------------------------------------------------------

 -------
 Reduced
 -------
 Symbolic Z-matrix:
 Charge = -2 Multiplicity = 1

 SCF Done:  E(UB3LYP) =  -655.863142871     A.U. after   17 cycles
 SCF Done:  E(UB3LYP) =  -655.865701355     A.U. after   14 cycles
 SCF Done:  E(UB3LYP) =  -655.866174525     A.U. after   14 cycles
 SCF Done:  E(UB3LYP) =  -655.866239454     A.U. after   14 cycles
 SCF Done:  E(UB3LYP) =  -655.866291188     A.U. after   13 cycles
 SCF Done:  E(UB3LYP) =  -655.866305102     A.U. after   11 cycles
 SCF Done:  E(UB3LYP) =  -655.866307675     A.U. after   11 cycles
 SCF Done:  E(UB3LYP) =  -655.866308633     A.U. after   10 cycles
 SCF Done:  E(UB3LYP) =  -655.866308959     A.U. after   10 cycles
 SCF Done:  E(UB3LYP) =  -655.866309013     A.U. after   10 cycles
 Optimization completed.
    -- Stationary point found.
 Normal termination of Gaussian 16 at Sat Feb 10 11:07:13 2024.

 ----------------------------------------------------------------------
 #P Geom=AllCheck Guess=TCheck SCRF=Check GenChk UB3LYP/6-311++G(d,p) F
 req
 ----------------------------------------------------------------------

 Structure from the checkpoint file:  "040-an.chk"
 -------
 Reduced
 -------
 Charge = -2 Multiplicity = 1

                          Input orientation:
 ---------------------------------------------------------------------
 Center     Atomic      Atomic             Coordinates (Angstroms)
 Number     Number       Type             X           Y           Z
 ---------------------------------------------------------------------
      1          6           0        0.882174    1.159980    1.344855
      2          6           0       -0.208095    0.253042    1.328905
      3          6           0       -0.279402   -0.879587    0.505453
      4          6           0        0.776179   -1.202035   -0.399129
      5          6           0        1.888502   -0.295240   -0.398145
      6          6           0        1.942622    0.842241    0.435108
      7          6           0        3.144544    1.760700    0.381550
      8          6           0        3.041371   -0.589623   -1.334226
      9          8           0        0.908588    2.213242    2.146320
     10          8           0        0.731401   -2.270991   -1.175718
     11          6           0       -1.499925   -1.785088    0.583002
     12          6           0       -2.538055   -1.471365   -0.467163
     13          6           0       -3.828344   -1.137419   -0.308649
     14          6           0       -4.537466   -1.021407    1.019026
     15          6           0       -4.704574   -0.838293   -1.503703
     16          1           0       -1.034715    0.458298    2.011213
     17          1           0        3.298951    2.190547   -0.617447
     18          1           0        4.080035    1.244763    0.637428
     19          1           0        3.006146    2.581067    1.086973
     20          1           0        2.827090   -1.499706   -1.895650
     21          1           0        3.989783   -0.731307   -0.798461
     22          1           0        3.216258    0.223539   -2.051597
     23          1           0       -1.937010   -1.725962    1.583592
     24          1           0       -1.166581   -2.819880    0.431666
     25          1           0       -2.158918   -1.514213   -1.487075
     26          1           0       -3.888793   -1.220326    1.871768
     27          1           0       -5.382668   -1.719117    1.067742
     28          1           0       -4.960108   -0.016709    1.142769
     29          1           0       -4.156469   -0.939443   -2.443226
     30          1           0       -5.108815    0.180553   -1.451949
     31          1           0       -5.569368   -1.512732   -1.538482
 ---------------------------------------------------------------------

 SCF Done:  E(UB3LYP) =  -655.866309013     A.U. after    1 cycles

 Alpha  occ. eigenvalues --  -19.00198 -19.00080 -10.16237 -10.15358 -10.15346
 Alpha  occ. eigenvalues --  -10.15342 -10.15218 -10.14638 -10.14246 -10.13060
 Alpha  occ. eigenvalues --  -10.13000 -10.11861 -10.11850 -10.11742 -10.10743
 Alpha  occ. eigenvalues --   -0.90613  -0.90168  -0.80246  -0.77777  -0.74726
 Alpha  occ. eigenvalues --   -0.69971  -0.68947  -0.68330  -0.63969  -0.62026
 Alpha  occ. eigenvalues --   -0.59305  -0.52032  -0.50657  -0.49190  -0.45454
 Alpha  occ. eigenvalues --   -0.43801  -0.42530  -0.42217  -0.40430  -0.40034
 Alpha  occ. eigenvalues --   -0.37963  -0.37700  -0.37276  -0.36688  -0.36106
 Alpha  occ. eigenvalues --   -0.35841  -0.35492  -0.34690  -0.33845  -0.33492
 Alpha  occ. eigenvalues --   -0.32351  -0.31332  -0.29709  -0.29284  -0.28811
 Alpha  occ. eigenvalues --   -0.22649  -0.20558  -0.18764  -0.18435  -0.17881
 Alpha  occ. eigenvalues --   -0.10784
 Alpha virt. eigenvalues --   -0.00301   0.00369   0.01384   0.01774   0.01958
 Alpha virt. eigenvalues --    0.02744   0.02967   0.03594   0.03755   0.04361
 Alpha virt. eigenvalues --    0.04578   0.05024   0.05399   0.05825   0.06205

  Beta  occ. eigenvalues --  -19.00198 -19.00080 -10.16237 -10.15358 -10.15346
  Beta  occ. eigenvalues --  -10.15342 -10.15218 -10.14638 -10.14246 -10.13060
  Beta  occ. eigenvalues --  -10.13000 -10.11861 -10.11850 -10.11742 -10.10743
  Beta  occ. eigenvalues --   -0.90613  -0.90168  -0.80246  -0.77777  -0.74726
  Beta  occ. eigenvalues --   -0.69971  -0.68947  -0.68330  -0.63969  -0.62026
  Beta  occ. eigenvalues --   -0.59305  -0.52032  -0.50657  -0.49190  -0.45454
  Beta  occ. eigenvalues --   -0.43801  -0.42530  -0.42217  -0.40430  -0.40034
  Beta  occ. eigenvalues --   -0.37963  -0.37700  -0.37276  -0.36688  -0.36106
  Beta  occ. eigenvalues --   -0.35841  -0.35492  -0.34690  -0.33845  -0.33492
  Beta  occ. eigenvalues --   -0.32351  -0.31332  -0.29709  -0.29284  -0.28811
  Beta  occ. eigenvalues --   -0.22649  -0.20558  -0.18764  -0.18435  -0.17881
  Beta  occ. eigenvalues --   -0.10784
  Beta virt. eigenvalues --   -0.00301   0.00369   0.01384   0.01774   0.01958
  Beta virt. eigenvalues --    0.02744   0.02967   0.03594   0.03755   0.04361
  Beta virt. eigenvalues --    0.04578   0.05024   0.05399   0.05825   0.06205

 Mulliken charges and spin densities:
               1          2
     1  C   -1.063253  -0.000000
     2  C   -0.050742   0.000000
     3  C    0.898164  -0.000000
     4  C   -1.332178  -0.000000
     5  C    0.214386   0.000000
     6  C    0.738860   0.000000
     7  C   -0.527474  -0.000000
     8  C   -0.548589  -0.000000
     9  O   -0.763350  -0.000000
    10  O   -0.742294   0.000000
    11  C    0.331380  -0.000000
    12  C   -0.627220   0.000000
    13  C    0.494031  -0.000000
    14  C   -0.643227   0.000000
    15  C   -0.649357  -0.000000
    16  H    0.133739  -0.000000
    17  H    0.124415   0.000000
    18  H    0.125042   0.000000
    19  H    0.167753  -0.000000
    20  H    0.172156   0.000000
    21  H    0.123360  -0.000000
    22  H    0.124852  -0.000000
    23  H    0.133823  -0.000000
    24  H    0.158921   0.000000
    25  H    0.169945   0.000000
    26  H    0.123990   0.000000
    27  H    0.140500   0.000000
    28  H    0.140589  -0.000000
    29  H    0.152747  -0.000000
    30  H    0.141891   0.000000
    31  H    0.137139   0.000000
 Sum of Mulliken charges =  -2.00000   0.00000

 Dipole moment (field-independent basis, Debye):
    X=             -7.2898    Y=              0.0652    Z=             -4.6745  Tot=              8.6601
 Quadrupole moment (field-independent basis, Debye-Ang):
   XX=           -111.8231   YY=           -145.2316   ZZ=           -127.2542
   XY=             -3.7033   XZ=             -4.9811   YZ=            -31.3294

  Exact polarizability: 318.124  23.076 254.745 -27.559  42.855 235.713
 Approx polarizability: 320.881  19.039 278.068 -32.267  47.905 252.549

                      1                      2                      3
                      A                      A                      A
 Frequencies --     34.1064                45.6446                58.3524
 Red. masses --      3.3688                 3.3880                 3.0503
 Frc consts  --      0.0023                 0.0042                 0.0061
 IR Inten    --      4.2094                 3.4578                 3.8505

                      4                      5                      6
                      A                      A                      A
 Frequencies --    121.0161               124.4565               146.4025
 Red. masses --      2.6510                 1.2645                 1.1368
 Frc consts  --      0.0229                 0.0115                 0.0144
 IR Inten    --     24.0544                 0.2464                 3.0653

                      7                      8                      9
                      A                      A                      A
 Frequencies --    169.7276               170.8142               184.6425
 Red. masses --      1.8976                 2.3059                 1.3834
 Frc consts  --      0.0322                 0.0396                 0.0278
 IR Inten    --      0.4537                 7.2615                 1.6731

                     10                     11                     12
                      A                      A                      A
 Frequencies --    202.3724               212.8219               272.9299
 Red. masses --      2.8670                 1.8637                 2.6901
 Frc consts  --      0.0692                 0.0497                 0.1181
 IR Inten    --      7.5460                 2.7249                 2.2871

                     13                     14                     15
                      A                      A                      A
 Frequencies --    291.7746               316.4099               329.4288
 Red. masses --      3.4496                 2.5880                 2.1686
 Frc consts  --      0.1730                 0.1527                 0.1387
 IR Inten    --      0.8833                 7.6879                11.6131

                     16                     17                     18
                      A                      A                      A
 Frequencies --    339.9700               375.7892               386.4649
 Red. masses --      3.3616                 4.4681                 4.7889
 Frc consts  --      0.2289                 0.3718                 0.4214
 IR Inten    --      1.4091                 6.0805                18.3021

                     19                     20                     21
                      A                      A                      A
 Frequencies --    413.3415               443.5090               483.1975
 Red. masses --      3.4402                 2.7619                 3.4907
 Frc consts  --      0.3463                 0.3201                 0.4802
 IR Inten    --      2.4793                 5.8668                 5.7548

                     22                     23                     24
                      A                      A                      A
 Frequencies --    493.4184               505.9035               549.6454
 Red. masses --      7.1936                 3.7799                 3.1253
 Frc consts  --      1.0319                 0.5700                 0.5563
 IR Inten    --      4.6781                11.6845                12.1659

                     25                     26                     27
                      A                      A                      A
 Frequencies --    612.9115               632.8174               679.3388
 Red. masses --      4.0938                 3.4335                 3.6110
 Frc consts  --      0.9061                 0.8101                 0.9819
 IR Inten    --      6.1977                 0.8559                 3.9896

                     28                     29                     30
                      A                      A                      A
 Frequencies --    715.2668               758.0266               784.3818
 Red. masses --      4.8914                 4.4024                 2.4692
 Frc consts  --      1.4744                 1.4904                 0.8951
 IR Inten    --     84.6415                19.3230                 7.7360

                     31                     32                     33
                      A                      A                      A
 Frequencies --    833.5040               844.6378               867.5336
 Red. masses --      1.7799                 2.5287                 1.7025
 Frc consts  --      0.7285                 1.0629                 0.7549
 IR Inten    --     38.2853                77.2190                50.7803

                     34                     35                     36
                      A                      A                      A
 Frequencies --    928.1264               952.7957               957.9873
 Red. masses --      2.1962                 1.8980                 1.4025
 Frc consts  --      1.1146                 1.0152                 0.7583
 IR Inten    --      8.1452                 3.4340                 1.7074

                     37                     38                     39
                      A                      A                      A
 Frequencies --    996.5841              1015.2172              1025.1577
 Red. masses --      2.2220                 1.2743                 2.1301
 Frc consts  --      1.3003                 0.7738                 1.3189
 IR Inten    --      1.6217                 2.5646                 9.9878

                     40                     41                     42
                      A                      A                      A
 Frequencies --   1027.4886              1053.5922              1085.8749
 Red. masses --      1.4191                 1.5121                 2.4025
 Frc consts  --      0.8827                 0.9890                 1.6691
 IR Inten    --      1.1340                 0.3944               282.6565

                     43                     44                     45
                      A                      A                      A
 Frequencies --   1097.1601              1111.1796              1120.4657
 Red. masses --      1.6527                 2.4500                 3.2383
 Frc consts  --      1.1722                 1.7823                 2.3953
 IR Inten    --      0.0729                53.3660                38.7378

                     46                     47                     48
                      A                      A                      A
 Frequencies --   1161.1152              1197.5739              1208.1250
 Red. masses --      1.6499                 1.6592                 4.8839
 Frc consts  --      1.3106                 1.4020                 4.1999
 IR Inten    --     77.1729               129.6081               194.1765

                     49                     50                     51
                      A                      A                      A
 Frequencies --   1242.1349              1279.1283              1306.0364
 Red. masses --      2.1934                 2.4953                 1.5461
 Frc consts  --      1.9940                 2.4055                 1.5538
 IR Inten    --     37.8196               628.4898                28.7465

                     52                     53                     54
                      A                      A                      A
 Frequencies --   1318.2891              1367.7625              1373.1213
 Red. masses --      7.7983                 1.5300                 1.3377
 Frc consts  --      7.9850                 1.6864                 1.4860
 IR Inten    --     42.3441                95.9423                 3.6018

                     55                     56                     57
                      A                      A                      A
 Frequencies --   1380.7112              1394.1877              1401.5180
 Red. masses --      1.3264                 2.7053                 1.3706
 Frc consts  --      1.4898                 3.0982                 1.5862
 IR Inten    --     29.4187               854.0993                36.7297

                     58                     59                     60
                      A                      A                      A
 Frequencies --   1408.7526              1431.9531              1457.9291
 Red. masses --      1.2692                 3.8090                 1.1005
 Frc consts  --      1.4841                 4.6017                 1.3782
 IR Inten    --      9.0147               114.3152                17.9972

                     61                     62                     63
                      A                      A                      A
 Frequencies --   1464.3091              1466.4139              1474.2288
 Red. masses --      1.0462                 1.2232                 1.1338
 Frc consts  --      1.3217                 1.5497                 1.4519
 IR Inten    --      0.2874               126.7021                70.9460

                     64                     65                     66
                      A                      A                      A
 Frequencies --   1480.1869              1480.6241              1484.7127
 Red. masses --      1.0428                 1.0506                 1.0790
 Frc consts  --      1.3462                 1.3570                 1.4014
 IR Inten    --     24.3276                13.3420                 3.0520

                     67                     68                     69
                      A                      A                      A
 Frequencies --   1490.8318              1502.0571              1517.9514
 Red. masses --      1.0484                 1.0481                 4.0995
 Frc consts  --      1.3729                 1.3933                 5.5654
 IR Inten    --      0.3786                16.7378                 0.5896

                     70                     71                     72
                      A                      A                      A
 Frequencies --   1594.5354              1709.5402              2975.1045
 Red. masses --      6.9580                 6.3136                 1.0425
 Frc consts  --     10.4233                10.8714                 5.4365
 IR Inten    --     15.1012                 1.1741                38.7418

                     73                     74                     75
                      A                      A                      A
 Frequencies --   2976.7787              2991.8636              2993.3242
 Red. masses --      1.0416                 1.0649                 1.0388
 Frc consts  --      5.4380                 5.6160                 5.4839
 IR Inten    --    357.6964                79.7503                68.4703

                     76                     77                     78
                      A                      A                      A
 Frequencies --   3000.8066              3001.2987              3002.5596
 Red. masses --      1.0989                 1.0421                 1.0989
 Frc consts  --      5.8303                 5.5306                 5.8370
 IR Inten    --    143.8588               121.6868                29.4611

                     79                     80                     81
                      A                      A                      A
 Frequencies --   3030.8157              3034.5734              3054.0791
 Red. masses --      1.0993                 1.0990                 1.0932
 Frc consts  --      5.9496                 5.9625                 6.0079
 IR Inten    --     43.9252                51.3346                37.4608

                     82                     83                     84
                      A                      A                      A
 Frequencies --   3086.3539              3087.1528              3096.6875
 Red. masses --      1.0864                 1.0983                 1.0928
 Frc consts  --      6.0974                 6.1670                 6.1745
 IR Inten    --    121.0367                48.5592                25.3495

                     85                     86                     87
                      A                      A                      A
 Frequencies --   3099.3273              3114.1940              3116.3983
 Red. masses --      1.0927                 1.0929                 1.0881
 Frc consts  --      6.1842                 6.2447                 6.2263
 IR Inten    --     25.6373                24.8732                69.5045

 - Thermochemistry -
 -------------------
 Temperature   298.150 Kelvin.  Pressure   1.00000 Atm.
 Atom     1 has atomic number  6 and mass  12.00000

 Molecular mass:   204.11503 amu.
 Principal axes and moments of inertia in atomic units:
                           1         2         3
     Eigenvalues --  1837.975695566.133766731.03548
           X            0.95197  -0.26743   0.14910
           Y            0.29689   0.68716  -0.66308
           Z            0.07488   0.67549   0.73355
 This molecule is an asymmetric top.
 Rotational symmetry number  1.
 Warning -- assumption of classical behavior for rotation
           may cause significant error
 Rotational temperatures (Kelvin)      0.04712     0.01556     0.01287
 Rotational constants (GHZ):           0.98192     0.32424     0.26812
 Zero-point vibrational energy     664090.3 (Joules/Mol)
                                  158.72140 (Kcal/Mol)
 Warning -- explicit consideration of  25 degrees of freedom as
           vibrations may cause significant error
 Vibrational temperatures:     49.07    65.67    83.96   174.12   179.07
          (Kelvin)            210.64   244.20   245.76   265.66   291.17
                              306.20   392.69   419.80   455.24   473.97
                              489.14   540.68   556.04   594.71   638.11
                              695.21   709.92   727.88   790.82   881.84
                              910.48   977.42  1029.11  1090.63  1128.55
                             1199.23  1215.25  1248.19  1335.37  1370.86
                             1378.33  1433.86  1460.67  1474.97  1478.33
                             1515.88  1562.33  1578.57  1598.74  1612.10
                             1670.59  1723.04  1738.22  1787.16  1840.38
                             1879.10  1896.72  1967.91  1975.62  1986.54
                             2005.93  2016.47  2026.88  2060.26  2097.63
                             2106.81  2109.84  2121.09  2129.66  2130.29
                             2136.17  2144.97  2161.13  2183.99  2294.18
                             2459.65  4280.51  4282.92  4304.62  4306.73
                             4317.49  4318.20  4320.01  4360.67  4366.07
                             4394.14  4440.57  4441.72  4455.44  4459.24
                             4480.63  4483.80

 Zero-point correction=                           0.252939 (Hartree/Particle)
 Thermal correction to Energy=                    0.268887
 Thermal correction to Enthalpy=                  0.269831
 Thermal correction to Gibbs Free Energy=         0.209580
 Sum of electronic and zero-point Energies=           -655.613370
 Sum of electronic and thermal Energies=              -655.597422
 Sum of electronic and thermal Enthalpies=            -655.596478
 Sum of electronic and thermal Free Energies=         -655.656729

                     E (Thermal)             CV                S
                      KCal/Mol        Cal/Mol-Kelvin    Cal/Mol-Kelvin
 Total                  168.729             59.833            126.809
 Electronic               0.000              0.000              0.000
 Translational            0.889              2.981             41.845
 Rotational               0.889              2.981             32.599
 Vibrational            166.952             53.872             52.365
 Vibration     1          0.594              1.983              5.575
 Vibration     2          0.595              1.979              4.998
 Vibration     3          0.596              1.974              4.512
 Vibration     4          0.609              1.932              3.084
 Vibration     5          0.610              1.929              3.030
 Vibration     6          0.617              1.907              2.718
 Vibration     7          0.625              1.880              2.438
 Vibration     8          0.626              1.878              2.427
 Vibration     9          0.631              1.861              2.281
 Vibration    10          0.639              1.837              2.111
 Vibration    11          0.644              1.821              2.019
 Vibration    12          0.676              1.723              1.578
 Vibration    13          0.687              1.689              1.464
 Vibration    14          0.703              1.642              1.329
 Vibration    15          0.712              1.617              1.263
 Vibration    16          0.720              1.596              1.212
 Vibration    17          0.747              1.522              1.056
 Vibration    18          0.755              1.499              1.014
 Vibration    19          0.777              1.441              0.915
 Vibration    20          0.803              1.375              0.816
 Vibration    21          0.839              1.287              0.701
 Vibration    22          0.849              1.265              0.675
 Vibration    23          0.861              1.237              0.644
 Vibration    24          0.905              1.140              0.545
 Vibration    25          0.972              1.005              0.428

                           ! Non-Optimized Parameters !
 Normal termination of Gaussian 16 at Sat Feb 10 12:31:53 2024.
