 Gaussian 16, Revision A.03,
 Gaussian 16:  ES64L-G16RevA.03 25-Dec-2016

 ----------------------------------------------------------------------
 #P UB3LYP/6-311++G(d,p) nosym opt freq SCRF=(PCM,Solvent=n,n-DiMethylF
 ormamide)
 ----------------------------------------------------------------------

 -------
 Reduced
 -------
 Symbolic Z-matrix:
 Charge = -2 Multiplicity = 1

 SCF Done:  E(UB3LYP) =  -650.112014858     A.U. after   16 cycles
 SCF Done:  E(UB3LYP) =  -650.112438257     A.U. after   12 cycles
 SCF Done:  E(UB3LYP) =  -650.112439368     A.U. after   12 cycles
 SCF Done:  E(UB3LYP) =  -650.112551563     A.U. after   12 cycles
 SCF Done:  E(UB3LYP) =  -650.112548196     A.U. after   11 cycles
 SCF Done:  E(UB3LYP) =  -650.112553549     A.U. after   10 cycles
 SCF Done:  E(UB3LYP) =  -650.112556347     A.U. after   10 cycles
 SCF Done:  E(UB3LYP) =  -650.112556811     A.U. after    9 cycles
 SCF Done:  E(UB3LYP) =  -650.112556958     A.U. after    8 cycles
 SCF Done:  E(UB3LYP) =  -650.112556982     A.U. after    7 cycles
 SCF Done:  E(UB3LYP) =  -650.112556988     A.U. after    7 cycles
 Optimization completed.
    -- Stationary point found.
 Normal termination of Gaussian 16 at Sun Feb 11 15:34:57 2024.

 ----------------------------------------------------------------------
 #P Geom=AllCheck Guess=TCheck SCRF=Check GenChk UB3LYP/6-311++G(d,p) F
 req
 ----------------------------------------------------------------------

 Structure from the checkpoint file:  "307-an.chk"
 -------
 Reduced
 -------
 Charge = -2 Multiplicity = 1

                          Input orientation:
 ---------------------------------------------------------------------
 Center     Atomic      Atomic             Coordinates (Angstroms)
 Number     Number       Type             X           Y           Z
 ---------------------------------------------------------------------
      1          6           0       -3.371188   -0.696739   -0.353776
      2          6           0       -1.939837   -0.293711   -0.098775
      3          6           0       -1.650256    0.719877    0.846345
      4          6           0       -0.359864    1.129545    1.117102
      5          8           0       -0.124034    2.124500    2.049326
      6          6           0        0.731128    0.521034    0.431677
      7          6           0        2.100952    0.941067    0.704917
      8          8           0        2.334447    1.885721    1.589097
      9          6           0        3.129942    0.301070   -0.005610
     10          6           0        2.849808   -0.710357   -0.947891
     11          6           0        1.554438   -1.112268   -1.210389
     12          6           0        0.460331   -0.508685   -0.530035
     13          6           0       -0.905418   -0.941171   -0.816559
     14          8           0       -1.144614   -1.875752   -1.692850
     15          1           0       -4.059947   -0.135819    0.284943
     16          1           0       -3.533209   -1.766020   -0.169417
     17          1           0       -3.666297   -0.526231   -1.397217
     18          1           0       -2.467600    1.198082    1.382258
     19          1           0        0.887314    2.211748    2.038435
     20          1           0        4.155163    0.604370    0.187400
     21          1           0        3.676763   -1.180426   -1.475431
     22          1           0        1.341980   -1.889836   -1.933551
 ---------------------------------------------------------------------

 SCF Done:  E(UB3LYP) =  -650.112556988     A.U. after    1 cycles

 Alpha  occ. eigenvalues --  -19.09185 -19.04435 -19.01644 -10.19393 -10.18360
 Alpha  occ. eigenvalues --  -10.17118 -10.14430 -10.14118 -10.14009 -10.13792
 Alpha  occ. eigenvalues --  -10.13084 -10.12992 -10.12737 -10.12552  -1.00523
 Alpha  occ. eigenvalues --   -0.94806  -0.92680  -0.81409  -0.77776  -0.72471
 Alpha  occ. eigenvalues --   -0.69767  -0.67496  -0.63453  -0.58475  -0.56161
 Alpha  occ. eigenvalues --   -0.52829  -0.48671  -0.46635  -0.45028  -0.43693
 Alpha  occ. eigenvalues --   -0.41252  -0.39824  -0.39141  -0.38048  -0.37886
 Alpha  occ. eigenvalues --   -0.36569  -0.35955  -0.34948  -0.33718  -0.33572
 Alpha  occ. eigenvalues --   -0.32520  -0.31636  -0.30504  -0.27854  -0.24710
 Alpha  occ. eigenvalues --   -0.22049  -0.21261  -0.19288  -0.17912  -0.12582
 Alpha virt. eigenvalues --    0.00148   0.00911   0.01048   0.01564   0.01691
 Alpha virt. eigenvalues --    0.02938   0.03203   0.04177   0.05158   0.05484
 Alpha virt. eigenvalues --    0.06038   0.06047   0.06797   0.08143   0.08670

  Beta  occ. eigenvalues --  -19.09185 -19.04435 -19.01644 -10.19393 -10.18360
  Beta  occ. eigenvalues --  -10.17118 -10.14430 -10.14118 -10.14009 -10.13792
  Beta  occ. eigenvalues --  -10.13084 -10.12992 -10.12737 -10.12552  -1.00523
  Beta  occ. eigenvalues --   -0.94806  -0.92680  -0.81409  -0.77776  -0.72471
  Beta  occ. eigenvalues --   -0.69767  -0.67496  -0.63453  -0.58475  -0.56161
  Beta  occ. eigenvalues --   -0.52829  -0.48671  -0.46635  -0.45028  -0.43693
  Beta  occ. eigenvalues --   -0.41252  -0.39824  -0.39141  -0.38048  -0.37886
  Beta  occ. eigenvalues --   -0.36569  -0.35955  -0.34948  -0.33718  -0.33572
  Beta  occ. eigenvalues --   -0.32520  -0.31636  -0.30504  -0.27854  -0.24710
  Beta  occ. eigenvalues --   -0.22049  -0.21261  -0.19288  -0.17912  -0.12582
  Beta virt. eigenvalues --    0.00148   0.00911   0.01048   0.01564   0.01691
  Beta virt. eigenvalues --    0.02938   0.03203   0.04177   0.05158   0.05484
  Beta virt. eigenvalues --    0.06038   0.06047   0.06797   0.08143   0.08670

 Mulliken charges and spin densities:
               1          2
     1  C   -0.361660  -0.000000
     2  C    0.667584   0.000000
     3  C   -0.630077  -0.000000
     4  C   -0.370629   0.000000
     5  O   -0.503650   0.000000
     6  C    0.503791  -0.000000
     7  C   -0.370949   0.000000
     8  O   -0.664853  -0.000000
     9  C   -0.252716  -0.000000
    10  C   -0.399338  -0.000000
    11  C   -0.220260  -0.000000
    12  C    0.448959  -0.000000
    13  C   -0.489431   0.000000
    14  O   -0.689104  -0.000000
    15  H    0.135555  -0.000000
    16  H    0.142138  -0.000000
    17  H    0.142223  -0.000000
    18  H    0.124881  -0.000000
    19  H    0.362907   0.000000
    20  H    0.138986   0.000000
    21  H    0.152579  -0.000000
    22  H    0.133064   0.000000
 Sum of Mulliken charges =  -2.00000   0.00000

 Dipole moment (field-independent basis, Debye):
    X=             -3.2344    Y=             -0.8074    Z=             -0.4658  Tot=              3.3661
 Quadrupole moment (field-independent basis, Debye-Ang):
   XX=           -118.4978   YY=           -121.4331   ZZ=           -116.2282
   XY=            -17.6213   XZ=            -14.4904   YZ=            -25.8421

  Exact polarizability: 332.761  15.272 212.655  -3.976  75.644 205.309
 Approx polarizability: 358.315  14.216 244.722  -6.300  95.078 235.975

                      1                      2                      3
                      A                      A                      A
 Frequencies --     95.4060               104.3161               155.4544
 Red. masses --      7.9957                 3.7638                 1.7118
 Frc consts  --      0.0429                 0.0241                 0.0244
 IR Inten    --      1.5203                16.5643                 0.4324

                      4                      5                      6
                      A                      A                      A
 Frequencies --    177.5085               226.3104               268.5181
 Red. masses --      2.0971                 4.0867                 4.2770
 Frc consts  --      0.0389                 0.1233                 0.1817
 IR Inten    --      2.0037                 1.5777                 4.5560

                      7                      8                      9
                      A                      A                      A
 Frequencies --    272.6309               323.3410               371.3756
 Red. masses --      3.8856                 4.7701                 7.8645
 Frc consts  --      0.1702                 0.2938                 0.6391
 IR Inten    --     17.4796                44.4347                32.8134

                     10                     11                     12
                      A                      A                      A
 Frequencies --    375.5629               392.4375               453.7977
 Red. masses --      7.2246                 7.1046                 8.5542
 Frc consts  --      0.6004                 0.6447                 1.0379
 IR Inten    --      0.4110                 3.6581                 0.7390

                     13                     14                     15
                      A                      A                      A
 Frequencies --    476.1648               494.9418               526.3297
 Red. masses --      3.5529                 8.2187                 7.1639
 Frc consts  --      0.4746                 1.1862                 1.1693
 IR Inten    --      0.0069                 3.4426                11.3456

                     16                     17                     18
                      A                      A                      A
 Frequencies --    576.1675               599.4694               617.8564
 Red. masses --      4.5162                 6.7405                 3.8072
 Frc consts  --      0.8833                 1.4272                 0.8563
 IR Inten    --      4.8018                57.0643                 2.0376

                     19                     20                     21
                      A                      A                      A
 Frequencies --    656.0547               696.6688               731.9679
 Red. masses --      4.4160                 6.3136                 2.1658
 Frc consts  --      1.1198                 1.8054                 0.6837
 IR Inten    --     37.2317                20.7833                39.9684

                     22                     23                     24
                      A                      A                      A
 Frequencies --    734.9699               795.5138               800.0486
 Red. masses --      1.9888                 5.0094                 4.8186
 Frc consts  --      0.6330                 1.8678                 1.8172
 IR Inten    --     92.5596                25.8311                13.6403

                     25                     26                     27
                      A                      A                      A
 Frequencies --    828.1462               844.4579               911.3024
 Red. masses --      1.5827                 1.4911                 6.2609
 Frc consts  --      0.6395                 0.6265                 3.0634
 IR Inten    --      2.5050                49.8250               255.5657

                     28                     29                     30
                      A                      A                      A
 Frequencies --    932.2224               942.9754               993.8618
 Red. masses --      1.0504                 1.2435                 1.8378
 Frc consts  --      0.5378                 0.6515                 1.0695
 IR Inten    --    128.1699                 2.4803                27.3303

                     31                     32                     33
                      A                      A                      A
 Frequencies --   1037.7965              1042.0866              1050.3702
 Red. masses --      3.2335                 1.4698                 3.4717
 Frc consts  --      2.0519                 0.9404                 2.2567
 IR Inten    --     83.6959                 3.5295               190.4876

                     34                     35                     36
                      A                      A                      A
 Frequencies --   1084.1405              1154.8351              1184.1331
 Red. masses --      2.1190                 1.2092                 1.7503
 Frc consts  --      1.4674                 0.9502                 1.4460
 IR Inten    --    121.8971                26.0879                14.1808

                     37                     38                     39
                      A                      A                      A
 Frequencies --   1219.6375              1269.8869              1300.4670
 Red. masses --      4.4096                 2.1644                 5.1957
 Frc consts  --      3.8646                 2.0565                 5.1772
 IR Inten    --    117.9690               502.3801                24.2762

                     40                     41                     42
                      A                      A                      A
 Frequencies --   1330.2278              1331.8334              1372.8999
 Red. masses --      5.4028                 4.7140                 4.9706
 Frc consts  --      5.6327                 4.9265                 5.5199
 IR Inten    --     69.5944                 4.5527               327.8241

                     43                     44                     45
                      A                      A                      A
 Frequencies --   1385.7573              1408.7526              1429.3179
 Red. masses --      2.5528                 1.9887                 2.4530
 Frc consts  --      2.8883                 2.3254                 2.9526
 IR Inten    --    711.0956               622.7415               533.5180

                     46                     47                     48
                      A                      A                      A
 Frequencies --   1460.9129              1468.1795              1489.9078
 Red. masses --      1.0474                 2.1917                 1.2286
 Frc consts  --      1.3170                 2.7835                 1.6069
 IR Inten    --      6.6451               125.5201               253.5421

                     49                     50                     51
                      A                      A                      A
 Frequencies --   1544.3112              1581.4393              1588.5141
 Red. masses --      3.3630                 4.8613                 4.4519
 Frc consts  --      4.7255                 7.1632                 6.6187
 IR Inten    --    111.3753               111.8608                22.3682

                     52                     53                     54
                      A                      A                      A
 Frequencies --   1651.4295              2788.9273              2986.7734
 Red. masses --      2.4269                 1.0766                 1.0381
 Frc consts  --      3.8997                 4.9336                 5.4564
 IR Inten    --    106.1851              1368.7803               187.2064

                     55                     56                     57
                      A                      A                      A
 Frequencies --   3015.5187              3066.8069              3120.9488
 Red. masses --      1.0984                 1.0984                 1.0855
 Frc consts  --      5.8846                 6.0867                 6.2297
 IR Inten    --     83.9272                55.7946                54.6748

                     58                     59                     60
                      A                      A                      A
 Frequencies --   3124.8635              3145.5232              3183.4783
 Red. masses --      1.0886                 1.0916                 1.0907
 Frc consts  --      6.2628                 6.3637                 6.5124
 IR Inten    --     82.1657                83.4607                32.7699

 - Thermochemistry -
 -------------------
 Temperature   298.150 Kelvin.  Pressure   1.00000 Atm.
 Atom     1 has atomic number  6 and mass  12.00000

 Molecular mass:   188.04734 amu.
 Principal axes and moments of inertia in atomic units:
                           1         2         3
     Eigenvalues --  1640.644462742.190304371.81290
           X            0.91110  -0.40663   0.06746
           Y            0.33679   0.64007  -0.69056
           Z            0.23763   0.65189   0.72012
 This molecule is an asymmetric top.
 Rotational symmetry number  1.
 Warning -- assumption of classical behavior for rotation
           may cause significant error
 Rotational temperatures (Kelvin)      0.05279     0.03159     0.01981
 Rotational constants (GHZ):           1.10002     0.65814     0.41281
 Zero-point vibrational energy     419862.1 (Joules/Mol)
                                  100.34944 (Kcal/Mol)
 Warning -- explicit consideration of  18 degrees of freedom as
           vibrations may cause significant error
 Vibrational temperatures:    137.27   150.09   223.66   255.40   325.61
          (Kelvin)            386.34   392.25   465.22   534.33   540.35
                              564.63   652.91   685.09   712.11   757.27
                              828.98   862.50   888.96   943.92  1002.35
                             1053.14  1057.46  1144.57  1151.09  1191.52
                             1214.99  1311.16  1341.26  1356.73  1429.95
                             1493.16  1499.33  1511.25  1559.84  1661.55
                             1703.70  1754.79  1827.08  1871.08  1913.90
                             1916.21  1975.30  1993.80  2026.88  2056.47
                             2101.93  2112.38  2143.64  2221.92  2275.34
                             2285.52  2376.04  4012.64  4297.30  4338.66
                             4412.45  4490.35  4495.98  4525.71  4580.32

 Zero-point correction=                           0.159917 (Hartree/Particle)
 Thermal correction to Energy=                    0.170889
 Thermal correction to Enthalpy=                  0.171833
 Thermal correction to Gibbs Free Energy=         0.123552
 Sum of electronic and zero-point Energies=           -649.952640
 Sum of electronic and thermal Energies=              -649.941668
 Sum of electronic and thermal Enthalpies=            -649.940724
 Sum of electronic and thermal Free Energies=         -649.989005

                     E (Thermal)             CV                S
                      KCal/Mol        Cal/Mol-Kelvin    Cal/Mol-Kelvin
 Total                  107.235             44.223            101.616
 Electronic               0.000              0.000              0.000
 Translational            0.889              2.981             41.600
 Rotational               0.889              2.981             31.354
 Vibrational            105.457             38.262             28.662
 Vibration     1          0.603              1.952              3.546
 Vibration     2          0.605              1.946              3.372
 Vibration     3          0.620              1.897              2.604
 Vibration     4          0.628              1.870              2.354
 Vibration     5          0.650              1.801              1.908
 Vibration     6          0.673              1.731              1.606
 Vibration     7          0.676              1.724              1.579
 Vibration     8          0.708              1.629              1.293
 Vibration     9          0.743              1.531              1.074
 Vibration    10          0.746              1.522              1.057
 Vibration    11          0.760              1.486              0.991
 Vibration    12          0.812              1.352              0.784
 Vibration    13          0.833              1.303              0.720
 Vibration    14          0.851              1.261              0.671
 Vibration    15          0.881              1.192              0.595
 Vibration    16          0.933              1.083              0.493
 Vibration    17          0.958              1.033              0.451
 Vibration    18          0.978              0.994              0.420

 Optimization completed.
    -- Stationary point found.
 Normal termination of Gaussian 16 at Sun Feb 11 16:08:54 2024.
