 Gaussian 16, Revision A.03,
 Gaussian 16:  ES64L-G16RevA.03 25-Dec-2016

 --------------------------------------
 #P UB3LYP/6-311++G(d,p) nosym opt freq
 --------------------------------------

 -------
 Radical
 -------
 Symbolic Z-matrix:
 Charge = -1 Multiplicity = 2

 SCF Done:  E(UB3LYP) =  -5761.06665337     A.U. after   20 cycles
 SCF Done:  E(UB3LYP) =  -5761.07504139     A.U. after   15 cycles
 SCF Done:  E(UB3LYP) =  -5761.07577361     A.U. after   15 cycles
 SCF Done:  E(UB3LYP) =  -5761.07583458     A.U. after   14 cycles
 SCF Done:  E(UB3LYP) =  -5761.07584080     A.U. after   12 cycles
 SCF Done:  E(UB3LYP) =  -5761.07584157     A.U. after   11 cycles
 SCF Done:  E(UB3LYP) =  -5761.07584155     A.U. after   11 cycles
 Optimization completed.
    -- Stationary point found.
 Normal termination of Gaussian 16 at Tue Dec 26 20:40:52 2023.

 ----------------------------------------------------------------------
 #P Geom=AllCheck Guess=TCheck SCRF=Check GenChk UB3LYP/6-311++G(d,p) F
 req
 ----------------------------------------------------------------------

 Structure from the checkpoint file:  "235-rad.chk"
 -------
 Radical
 -------
 Charge = -1 Multiplicity = 2

                          Input orientation:
 ---------------------------------------------------------------------
 Center     Atomic      Atomic             Coordinates (Angstroms)
 Number     Number       Type             X           Y           Z
 ---------------------------------------------------------------------
      1          6           0        5.775980   -5.279717    1.121844
      2          6           0        6.711679   -5.150554    0.116072
      3          6           0        6.584820   -4.113686   -0.835029
      4          6           0        4.690648   -4.390267    1.216685
      5          6           0        4.563635   -3.351176    0.263724
      6          6           0        5.525618   -3.233045   -0.755421
      7          6           0        3.711481   -4.550670    2.295339
      8          6           0        2.613526   -3.598762    2.336997
      9          6           0        2.488603   -2.579324    1.401473
     10          6           0        3.448718   -2.401823    0.324423
     11          8           0        3.820827   -5.475093    3.144632
     12          8           0        3.332056   -1.476278   -0.522677
     13          1           0        5.852047   -6.066089    1.861914
     14          1           0        5.407212   -2.430750   -1.472470
     15         35           0        8.166804   -6.412639    0.061095
     16         35           0        7.856498   -3.878642   -2.263604
     17          6           0        1.649878   -3.831403    3.475374
     18          6           0        1.371338   -1.564234    1.393743
     19          1           0        2.181231   -3.802010    4.432252
     20          1           0        1.221618   -4.837127    3.409680
     21          1           0        0.836416   -3.107998    3.505895
     22          1           0        0.654520   -1.706557    2.201121
     23          1           0        0.835556   -1.598873    0.439445
     24          1           0        1.780098   -0.550714    1.462742
 ---------------------------------------------------------------------

 SCF Done:  E(UB3LYP) =  -5761.07584155     A.U. after    1 cycles

 Alpha  occ. eigenvalues -- -482.73116-482.73115 -62.38400 -62.38400 -56.20428
 Alpha  occ. eigenvalues --  -56.20428 -56.20055 -56.20055 -56.20037 -56.20037
 Alpha  occ. eigenvalues --  -18.95300 -18.95299 -10.13089 -10.13042 -10.10030
 Alpha  occ. eigenvalues --  -10.10029 -10.07400 -10.07398 -10.06435 -10.06388
 Alpha  occ. eigenvalues --  -10.05803 -10.05748 -10.05008 -10.05007  -8.59368
 Alpha  occ. eigenvalues --   -8.59368  -6.42486  -6.42486  -6.41239  -6.41239
 Alpha  occ. eigenvalues --   -6.41195  -6.41195  -2.53584  -2.53583  -2.53231
 Alpha  occ. eigenvalues --   -2.53230  -2.53200  -2.53200  -2.52207  -2.52207
 Alpha  occ. eigenvalues --   -2.52206  -2.52206  -0.87952  -0.87652  -0.77833
 Alpha  occ. eigenvalues --   -0.71747  -0.70413  -0.69129  -0.63659  -0.63018
 Alpha  occ. eigenvalues --   -0.61802  -0.56253  -0.53862  -0.50360  -0.47138
 Alpha  occ. eigenvalues --   -0.44227  -0.40070  -0.37110  -0.36728  -0.34016
 Alpha  occ. eigenvalues --   -0.32690  -0.32318  -0.30991  -0.29687  -0.29518
 Alpha  occ. eigenvalues --   -0.29166  -0.28207  -0.27634  -0.27088  -0.26437
 Alpha  occ. eigenvalues --   -0.25887  -0.24697  -0.23302  -0.23240  -0.21621
 Alpha  occ. eigenvalues --   -0.20873  -0.19892  -0.18071  -0.14888  -0.14610
 Alpha  occ. eigenvalues --   -0.12853  -0.12292  -0.11378  -0.03119
 Alpha virt. eigenvalues --    0.05939   0.06967   0.08219   0.08970   0.09073
 Alpha virt. eigenvalues --    0.09683   0.10182   0.11935   0.11940   0.12126
 Alpha virt. eigenvalues --    0.13198   0.13282   0.13622   0.13686   0.14446

  Beta  occ. eigenvalues -- -482.73115-482.73115 -62.38399 -62.38399 -56.20428
  Beta  occ. eigenvalues --  -56.20428 -56.20053 -56.20053 -56.20037 -56.20037
  Beta  occ. eigenvalues --  -18.94652 -18.94651 -10.13032 -10.12985 -10.09900
  Beta  occ. eigenvalues --  -10.09899 -10.07416 -10.07414 -10.06342 -10.06295
  Beta  occ. eigenvalues --  -10.05682 -10.05625 -10.05018 -10.05017  -8.59367
  Beta  occ. eigenvalues --   -8.59367  -6.42487  -6.42487  -6.41234  -6.41234
  Beta  occ. eigenvalues --   -6.41195  -6.41195  -2.53584  -2.53583  -2.53229
  Beta  occ. eigenvalues --   -2.53228  -2.53201  -2.53201  -2.52205  -2.52204
  Beta  occ. eigenvalues --   -2.52204  -2.52203  -0.86853  -0.86515  -0.77698
  Beta  occ. eigenvalues --   -0.71356  -0.70355  -0.68941  -0.63513  -0.62820
  Beta  occ. eigenvalues --   -0.61540  -0.56104  -0.53167  -0.50299  -0.46785
  Beta  occ. eigenvalues --   -0.43921  -0.39936  -0.36886  -0.36533  -0.33891
  Beta  occ. eigenvalues --   -0.32654  -0.31614  -0.30669  -0.29418  -0.29161
  Beta  occ. eigenvalues --   -0.28797  -0.28091  -0.27398  -0.26832  -0.26362
  Beta  occ. eigenvalues --   -0.24772  -0.23141  -0.22939  -0.22629  -0.21222
  Beta  occ. eigenvalues --   -0.20865  -0.19106  -0.18060  -0.14021  -0.12724
  Beta  occ. eigenvalues --   -0.11824  -0.11686  -0.10777
  Beta virt. eigenvalues --    0.03393   0.05987   0.07537   0.08220   0.09103
  Beta virt. eigenvalues --    0.09688   0.10121   0.10185   0.11947   0.11951
  Beta virt. eigenvalues --    0.12151   0.13194   0.13308   0.13632   0.13808

 Mulliken charges and spin densities:
               1          2
     1  C   -0.162372   0.014264
     2  C    0.074931   0.034857
     3  C    0.074753   0.034863
     4  C    0.577346   0.061758
     5  C    0.577595   0.061749
     6  C   -0.162255   0.014263
     7  C   -1.115555   0.058669
     8  C    0.601434   0.080832
     9  C    0.601235   0.080815
    10  C   -1.115236   0.058670
    11  O   -0.357918   0.242178
    12  O   -0.357927   0.242177
    13  H    0.222958  -0.001774
    14  H    0.222961  -0.001775
    15  Br  -0.224610   0.001015
    16  Br  -0.224582   0.001016
    17  C   -0.530038  -0.000643
    18  C   -0.529874  -0.000642
    19  H    0.166367   0.004414
    20  H    0.165927   0.004601
    21  H    0.081299  -0.000160
    22  H    0.081268  -0.000160
    23  H    0.166213   0.004483
    24  H    0.166081   0.004530
 Sum of Mulliken charges =  -1.00000   1.00000

 Dipole moment (field-independent basis, Debye):
    X=            -22.5611    Y=             18.7208    Z=             -3.3696  Tot=             29.5098
 Quadrupole moment (field-independent basis, Debye-Ang):
   XX=           -248.7128   YY=           -216.9287   ZZ=           -146.4209
   XY=             97.3015   XZ=             -7.4493   YZ=             25.6057

  Exact polarizability: 259.312 -64.347 199.414 -73.129 -32.559 211.370
 Approx polarizability: 358.220 -84.156 336.465 -82.720 -86.602 342.754

 ******    2 imaginary frequencies (negative Signs) ******

                      1                      2                      3
                      A                      A                      A
 Frequencies --    -97.4626               -60.8575                40.8483
 Red. masses --      1.0593                 1.0207                11.4250
 Frc consts  --      0.0059                 0.0022                 0.0112
 IR Inten    --      0.0002                 0.0005                 0.0000

                      4                      5                      6
                      A                      A                      A
 Frequencies --     55.2908               120.0603               123.4345
 Red. masses --      5.3243                 3.0117                51.5566
 Frc consts  --      0.0096                 0.0256                 0.4628
 IR Inten    --      3.9276                 0.0001                 0.6959

                      7                      8                      9
                      A                      A                      A
 Frequencies --    124.1251               126.7221               202.4254
 Red. masses --     11.6422                 9.5667                 5.8858
 Frc consts  --      0.1057                 0.0905                 0.1421
 IR Inten    --      6.4317                 0.5652                 0.0000

                     10                     11                     12
                      A                      A                      A
 Frequencies --    220.1255               228.3457               230.2090
 Red. masses --     14.2428                 5.2622                13.6662
 Frc consts  --      0.4066                 0.1617                 0.4267
 IR Inten    --      1.4204                 0.5234                 0.0068

                     13                     14                     15
                      A                      A                      A
 Frequencies --    321.7427               341.2947               370.3808
 Red. masses --      3.7455                 6.4805                 2.8025
 Frc consts  --      0.2284                 0.4448                 0.2265
 IR Inten    --      1.3971                 3.7976                 1.9674

                     16                     17                     18
                      A                      A                      A
 Frequencies --    407.3552               408.4869               416.3242
 Red. masses --      7.6631                 9.0335                 6.1052
 Frc consts  --      0.7492                 0.8881                 0.6235
 IR Inten    --      3.0324                17.9276                 0.0035

                     19                     20                     21
                      A                      A                      A
 Frequencies --    443.9335               457.5107               479.0082
 Red. masses --      3.2833                 5.8035                10.6600
 Frc consts  --      0.3812                 0.7157                 1.4411
 IR Inten    --      2.2867                 0.4533                 5.7444

                     22                     23                     24
                      A                      A                      A
 Frequencies --    549.6073               553.0396               641.3294
 Red. masses --      7.6764                 6.9517                 5.0404
 Frc consts  --      1.3662                 1.2527                 1.2214
 IR Inten    --      0.0016                25.9790                 0.0007

                     25                     26                     27
                      A                      A                      A
 Frequencies --    653.2285               683.6131               697.0014
 Red. masses --      5.7281                 7.0360                 4.3839
 Frc consts  --      1.4401                 1.9373                 1.2548
 IR Inten    --     30.0571                 6.6621                13.4782

                     28                     29                     30
                      A                      A                      A
 Frequencies --    716.8824               781.7887               845.5483
 Red. masses --      5.7328                 5.7254                 4.3488
 Frc consts  --      1.7358                 2.0617                 1.8319
 IR Inten    --     12.2199                 0.0009                36.7170

                     31                     32                     33
                      A                      A                      A
 Frequencies --    898.1210               910.7755               934.7438
 Red. masses --      2.7523                 1.3582                 1.3981
 Frc consts  --      1.3080                 0.6638                 0.7197
 IR Inten    --     11.2845                 0.0000                19.0592

                     34                     35                     36
                      A                      A                      A
 Frequencies --    988.6296              1021.3414              1032.5387
 Red. masses --      4.4001                 1.8507                 1.4443
 Frc consts  --      2.5339                 1.1374                 0.9072
 IR Inten    --     30.7151                11.0918                 0.2836

                     37                     38                     39
                      A                      A                      A
 Frequencies --   1050.8055              1094.2435              1107.5041
 Red. masses --      1.5317                 1.8365                 2.7665
 Frc consts  --      0.9965                 1.2956                 1.9993
 IR Inten    --      0.0031                12.5784                25.6167

                     40                     41                     42
                      A                      A                      A
 Frequencies --   1173.9169              1174.0193              1212.1783
 Red. masses --      5.3507                 4.9890                 6.9636
 Frc consts  --      4.3444                 4.0515                 6.0286
 IR Inten    --     12.8651                10.7673                27.1013

                     43                     44                     45
                      A                      A                      A
 Frequencies --   1231.7903              1335.8350              1346.2667
 Red. masses --      1.2908                 6.1615                11.1942
 Frc consts  --      1.1539                 6.4780                11.9538
 IR Inten    --      7.5590                35.1231                 7.5925

                     46                     47                     48
                      A                      A                      A
 Frequencies --   1386.7242              1411.7126              1437.9968
 Red. masses --      1.3976                 1.2462                 2.7388
 Frc consts  --      1.5835                 1.4633                 3.3368
 IR Inten    --     41.9934                 0.6561               112.1296

                     49                     50                     51
                      A                      A                      A
 Frequencies --   1442.7610              1465.3492              1472.5366
 Red. masses --      7.9197                 1.0442                 1.1180
 Frc consts  --      9.7129                 1.3211                 1.4283
 IR Inten    --     14.4910                 0.0177                27.2020

                     52                     53                     54
                      A                      A                      A
 Frequencies --   1473.9187              1475.9260              1508.0593
 Red. masses --      1.0537                 1.4226                 5.3954
 Frc consts  --      1.3487                 1.8258                 7.2296
 IR Inten    --     10.4397                 5.4314               513.6335

                     55                     56                     57
                      A                      A                      A
 Frequencies --   1514.6484              1538.9731              1586.0190
 Red. masses --      9.6489                 3.4458                 7.7660
 Frc consts  --     13.0423                 4.8084                11.5097
 IR Inten    --     60.3919                 3.7748                22.9244

                     58                     59                     60
                      A                      A                      A
 Frequencies --   1610.8726              3018.9921              3022.6299
 Red. masses --      6.7985                 1.0386                 1.0415
 Frc consts  --     10.3941                 5.5773                 5.6062
 IR Inten    --      0.0386                41.5108               100.7566

                     61                     62                     63
                      A                      A                      A
 Frequencies --   3053.5481              3054.4578              3109.9911
 Red. masses --      1.0984                 1.0982                 1.0994
 Frc consts  --      6.0339                 6.0369                 6.2652
 IR Inten    --      0.0432                54.1934                12.6725

                     64                     65                     66
                      A                      A                      A
 Frequencies --   3131.2272              3199.0371              3200.7479
 Red. masses --      1.0925                 1.0899                 1.0903
 Frc consts  --      6.3111                 6.5715                 6.5811
 IR Inten    --     63.7303                 1.1859                 9.7592

 - Thermochemistry -
 -------------------
 Temperature   298.150 Kelvin.  Pressure   1.00000 Atm.
 Atom     1 has atomic number  6 and mass  12.00000

 Molecular mass:   341.88910 amu.
 Principal axes and moments of inertia in atomic units:
                           1         2         3
     Eigenvalues --  3341.374619868.68795**********
           X            0.83401  -0.08984   0.54439
           Y           -0.31407   0.73392   0.60227
           Z           -0.45365  -0.67327   0.58388
 This molecule is an asymmetric top.
 Rotational symmetry number  1.
 Warning -- assumption of classical behavior for rotation
           may cause significant error
 Rotational temperatures (Kelvin)      0.02592     0.00878     0.00657
 Rotational constants (GHZ):           0.54012     0.18288     0.13685
    2 imaginary frequencies ignored.
 Zero-point vibrational energy     429869.1 (Joules/Mol)
                                  102.74118 (Kcal/Mol)
 Warning -- explicit consideration of  21 degrees of freedom as
           vibrations may cause significant error
 Vibrational temperatures:     58.77    79.55   172.74   177.59   178.59
          (Kelvin)            182.32   291.25   316.71   328.54   331.22
                              462.92   491.05   532.90   586.09   587.72
                              599.00   638.72   658.26   689.19   790.76
                              795.70   922.73   939.85   983.57  1002.83
                             1031.43  1124.82  1216.56  1292.20  1310.40
                             1344.89  1422.42  1469.48  1485.59  1511.87
                             1574.37  1593.45  1689.00  1689.15  1744.05
                             1772.27  1921.97  1936.98  1995.19  2031.14
                             2068.96  2075.81  2108.31  2118.65  2120.64
                             2123.53  2169.76  2179.24  2214.24  2281.93
                             2317.69  4343.66  4348.89  4393.37  4394.68
                             4474.58  4505.14  4602.70  4605.16

 Zero-point correction=                           0.163728 (Hartree/Particle)
 Thermal correction to Energy=                    0.177522
 Thermal correction to Enthalpy=                  0.178466
 Thermal correction to Gibbs Free Energy=         0.120456
 Sum of electronic and zero-point Energies=          -5760.912113
 Sum of electronic and thermal Energies=             -5760.898320
 Sum of electronic and thermal Enthalpies=           -5760.897376
 Sum of electronic and thermal Free Energies=        -5760.955386

                     E (Thermal)             CV                S
                      KCal/Mol        Cal/Mol-Kelvin    Cal/Mol-Kelvin
 Total                  111.397             51.424            122.093
 Electronic               0.000              0.000              1.377
 Translational            0.889              2.981             43.382
 Rotational               0.889              2.981             34.430
 Vibrational            109.619             45.462             42.903
 Vibration     1          0.594              1.981              5.218
 Vibration     2          0.596              1.975              4.619
 Vibration     3          0.609              1.933              3.099
 Vibration     4          0.610              1.929              3.046
 Vibration     5          0.610              1.929              3.035
 Vibration     6          0.611              1.926              2.995
 Vibration     7          0.639              1.836              2.111
 Vibration     8          0.647              1.810              1.958
 Vibration     9          0.651              1.798              1.892
 Vibration    10          0.652              1.795              1.877
 Vibration    11          0.707              1.632              1.301
 Vibration    12          0.721              1.593              1.206
 Vibration    13          0.742              1.533              1.078
 Vibration    14          0.772              1.454              0.936
 Vibration    15          0.773              1.452              0.932
 Vibration    16          0.780              1.435              0.905
 Vibration    17          0.803              1.374              0.814
 Vibration    18          0.816              1.344              0.773
 Vibration    19          0.835              1.297              0.713
 Vibration    20          0.905              1.141              0.545
 Vibration    21          0.908              1.133              0.538

                           ! Non-Optimized Parameters !
 Normal termination of Gaussian 16 at Tue Dec 26 21:29:48 2023.
