 Gaussian 16, Revision A.03,
 Gaussian 16:  ES64L-G16RevA.03 25-Dec-2016

 ----------------------------------------------------------------------
 #P UB3LYP/6-311++G(d,p) nosym opt freq SCRF=(PCM,Solvent=n,n-DiMethylF
 ormamide)
 ----------------------------------------------------------------------

 -------
 Radical
 -------
 Symbolic Z-matrix:
 Charge = -1 Multiplicity = 2

 SCF Done:  E(UB3LYP) =  -992.301354368     A.U. after   19 cycles
 SCF Done:  E(UB3LYP) =  -992.301673904     A.U. after   16 cycles
 SCF Done:  E(UB3LYP) =  -992.301897817     A.U. after   15 cycles
 SCF Done:  E(UB3LYP) =  -992.302081143     A.U. after   13 cycles
 SCF Done:  E(UB3LYP) =  -992.302098524     A.U. after   13 cycles
 SCF Done:  E(UB3LYP) =  -992.302121248     A.U. after   12 cycles
 SCF Done:  E(UB3LYP) =  -992.302125697     A.U. after   11 cycles
 SCF Done:  E(UB3LYP) =  -992.302126230     A.U. after   11 cycles
 SCF Done:  E(UB3LYP) =  -992.302127599     A.U. after   10 cycles
 SCF Done:  E(UB3LYP) =  -992.302127823     A.U. after    9 cycles
 SCF Done:  E(UB3LYP) =  -992.302128010     A.U. after   10 cycles
 SCF Done:  E(UB3LYP) =  -992.302128221     A.U. after    9 cycles
 SCF Done:  E(UB3LYP) =  -992.302128422     A.U. after    9 cycles
 SCF Done:  E(UB3LYP) =  -992.302128550     A.U. after    8 cycles
 Optimization completed.
    -- Stationary point found.
 Normal termination of Gaussian 16 at Sat Feb 10 19:14:02 2024.

 ----------------------------------------------------------------------
 #P Geom=AllCheck Guess=TCheck SCRF=Check GenChk UB3LYP/6-311++G(d,p) F
 req
 ----------------------------------------------------------------------

 Structure from the checkpoint file:  "180-rad.chk"
 -------
 Radical
 -------
 Charge = -1 Multiplicity = 2

                          Input orientation:
 ---------------------------------------------------------------------
 Center     Atomic      Atomic             Coordinates (Angstroms)
 Number     Number       Type             X           Y           Z
 ---------------------------------------------------------------------
      1          6           0       -1.541581    1.923628   -4.785273
      2          6           0       -1.497455    0.566599   -5.032608
      3          6           0       -1.246913   -0.333568   -3.975664
      4          6           0       -1.338944    2.431540   -3.481046
      5          6           0       -1.086641    1.527384   -2.415601
      6          6           0       -1.045833    0.143593   -2.695255
      7          6           0       -1.390199    3.859120   -3.242103
      8          6           0       -0.861806    1.986852   -1.041166
      9          6           0       -1.187194    4.335810   -1.891478
     10          6           0       -0.927147    3.431798   -0.803287
     11          6           0       -1.258185    5.743841   -1.641276
     12          6           0       -1.085713    6.242546   -0.358834
     13          6           0       -0.834069    5.362273    0.698943
     14          6           0       -0.752902    4.002717    0.481285
     15          8           0       -1.615501    4.676629   -4.209117
     16          8           0       -0.623085    1.155352   -0.126886
     17          1           0       -1.732755    2.627497   -5.585611
     18          1           0       -1.654585    0.191092   -6.037774
     19          1           0       -1.211863   -1.399854   -4.170374
     20          1           0       -0.851287   -0.535590   -1.874723
     21          1           0       -0.702582    5.738020    1.706762
     22          8           0       -1.499370    6.607273   -2.650580
     23          8           0       -0.578833    3.206307    1.623806
     24          6           0        0.638558    2.654431    1.860677
     25          6           0        0.570213    1.691463    3.009978
     26          8           0        1.631879    2.934723    1.231442
     27          1           0       -1.148729    7.310973   -0.191849
     28          1           0       -1.592690    6.022141   -3.472992
     29          1           0        0.064926    0.785666    2.666209
     30          1           0       -0.013153    2.110153    3.831403
     31          1           0        1.574301    1.442489    3.347331
 ---------------------------------------------------------------------

 SCF Done:  E(UB3LYP) =  -992.302128550     A.U. after    2 cycles

 Alpha  occ. eigenvalues --  -19.17223 -19.13134 -19.11778 -19.09392 -19.08014
 Alpha  occ. eigenvalues --  -10.31121 -10.23948 -10.23691 -10.23489 -10.23459
 Alpha  occ. eigenvalues --  -10.18941 -10.18493 -10.18055 -10.17971 -10.17884
 Alpha  occ. eigenvalues --  -10.17681 -10.17633 -10.17566 -10.17514 -10.17387
 Alpha  occ. eigenvalues --  -10.17189  -1.11539  -1.05689  -1.03157  -1.00789
 Alpha  occ. eigenvalues --   -1.00584  -0.86857  -0.85527  -0.79572  -0.77328
 Alpha  occ. eigenvalues --   -0.75585  -0.74902  -0.73259  -0.68114  -0.64914
 Alpha  occ. eigenvalues --   -0.63559  -0.62661  -0.58002  -0.56295  -0.54588
 Alpha  occ. eigenvalues --   -0.52846  -0.51099  -0.49843  -0.48877  -0.48164
 Alpha  occ. eigenvalues --   -0.47110  -0.46296  -0.46126  -0.43842  -0.43376
 Alpha  occ. eigenvalues --   -0.42841  -0.42546  -0.41743  -0.41370  -0.41050
 Alpha  occ. eigenvalues --   -0.40182  -0.40146  -0.38940  -0.38186  -0.37788
 Alpha  occ. eigenvalues --   -0.36349  -0.35850  -0.35438  -0.34230  -0.33153
 Alpha  occ. eigenvalues --   -0.32142  -0.28938  -0.27633  -0.26128  -0.26102
 Alpha  occ. eigenvalues --   -0.25605  -0.24226  -0.23204  -0.14963
 Alpha virt. eigenvalues --   -0.05632  -0.02873  -0.00660  -0.00305   0.00234
 Alpha virt. eigenvalues --    0.00364   0.00828   0.01835   0.02236   0.03200
 Alpha virt. eigenvalues --    0.03625   0.04102   0.04329   0.04622   0.04928

  Beta  occ. eigenvalues --  -19.17216 -19.13105 -19.11778 -19.08902 -19.07456
  Beta  occ. eigenvalues --  -10.31116 -10.23931 -10.23455 -10.23442 -10.23321
  Beta  occ. eigenvalues --  -10.18846 -10.18488 -10.17991 -10.17929 -10.17801
  Beta  occ. eigenvalues --  -10.17650 -10.17582 -10.17566 -10.17490 -10.17395
  Beta  occ. eigenvalues --  -10.17092  -1.11520  -1.05535  -1.03139  -0.99955
  Beta  occ. eigenvalues --   -0.99651  -0.86591  -0.85400  -0.79191  -0.77213
  Beta  occ. eigenvalues --   -0.75376  -0.74730  -0.73101  -0.67435  -0.64766
  Beta  occ. eigenvalues --   -0.63306  -0.62542  -0.57864  -0.56158  -0.54330
  Beta  occ. eigenvalues --   -0.52736  -0.50954  -0.49803  -0.48793  -0.47963
  Beta  occ. eigenvalues --   -0.46989  -0.46131  -0.46070  -0.43431  -0.42869
  Beta  occ. eigenvalues --   -0.42709  -0.42282  -0.41562  -0.41270  -0.40657
  Beta  occ. eigenvalues --   -0.40061  -0.39390  -0.38616  -0.37964  -0.36472
  Beta  occ. eigenvalues --   -0.36032  -0.35699  -0.34629  -0.34092  -0.32405
  Beta  occ. eigenvalues --   -0.31975  -0.28913  -0.25773  -0.25698  -0.25410
  Beta  occ. eigenvalues --   -0.25085  -0.23722  -0.22341
  Beta virt. eigenvalues --   -0.09271  -0.04537  -0.01863  -0.00550  -0.00257
  Beta virt. eigenvalues --    0.00364   0.00476   0.00841   0.01847   0.02242
  Beta virt. eigenvalues --    0.03219   0.03657   0.04109   0.04348   0.04923

 Mulliken charges and spin densities:
               1          2
     1  C   -0.071151   0.045702
     2  C   -0.509042   0.017629
     3  C   -0.430301   0.047168
     4  C    0.128877  -0.010893
     5  C   -0.101173   0.033280
     6  C    0.011116   0.021927
     7  C   -0.319727   0.144045
     8  C   -0.232911   0.063831
     9  C    0.769232  -0.010020
    10  C    0.606419   0.064237
    11  C   -0.363169   0.031331
    12  C   -0.189528   0.069033
    13  C    0.109164   0.048575
    14  C   -0.364421   0.055373
    15  O   -0.485143   0.177510
    16  O   -0.423042   0.211118
    17  H    0.171938  -0.001651
    18  H    0.183661  -0.001800
    19  H    0.187450  -0.003601
    20  H    0.163422  -0.000815
    21  H    0.205321  -0.004079
    22  O   -0.404117   0.010132
    23  O   -0.002169  -0.000535
    24  C    0.035088   0.001094
    25  C   -0.483315   0.001681
    26  O   -0.302800  -0.000776
    27  H    0.201462  -0.005627
    28  H    0.369083  -0.003716
    29  H    0.195052  -0.000356
    30  H    0.177251   0.000368
    31  H    0.167471  -0.000164
 Sum of Mulliken charges =  -1.00000   1.00000

 Dipole moment (field-independent basis, Debye):
    X=              2.9659    Y=            -17.6198    Z=              9.6236  Tot=             20.2945
 Quadrupole moment (field-independent basis, Debye-Ang):
   XX=           -139.6293   YY=           -202.6754   ZZ=           -146.1129
   XY=             15.0341   XZ=            -12.9557   YZ=             49.2149

  Exact polarizability: 176.562 -15.103 446.020  47.562  46.271 422.111
 Approx polarizability: 204.772 -19.416 490.333  45.711  21.912 472.110

                      1                      2                      3
                      A                      A                      A
 Frequencies --     44.0939                51.8576                61.3626
 Red. masses --      7.5755                 5.1248                 3.7687
 Frc consts  --      0.0087                 0.0081                 0.0084
 IR Inten    --      9.4849                 0.8150                 4.4576

                      4                      5                      6
                      A                      A                      A
 Frequencies --     78.3377                91.2502               103.3583
 Red. masses --      1.2195                 4.3538                 4.9717
 Frc consts  --      0.0044                 0.0214                 0.0313
 IR Inten    --      3.2603                 2.2185                 2.2611

                      7                      8                      9
                      A                      A                      A
 Frequencies --    132.7837               159.7852               181.2896
 Red. masses --      6.6335                 7.1542                 7.6572
 Frc consts  --      0.0689                 0.1076                 0.1483
 IR Inten    --      0.8645                 0.6756                 4.1958

                     10                     11                     12
                      A                      A                      A
 Frequencies --    216.2347               256.0328               293.3659
 Red. masses --      5.9553                 6.7079                 4.1370
 Frc consts  --      0.1641                 0.2591                 0.2098
 IR Inten    --      6.3082                 1.0903                10.2652

                     13                     14                     15
                      A                      A                      A
 Frequencies --    316.1109               347.1047               379.5806
 Red. masses --      8.2215                 6.8907                 6.1973
 Frc consts  --      0.4840                 0.4891                 0.5261
 IR Inten    --      0.0630                 4.1191                 1.6030

                     16                     17                     18
                      A                      A                      A
 Frequencies --    392.7622               418.7370               428.9111
 Red. masses --      8.6602                 6.2526                 7.4453
 Frc consts  --      0.7871                 0.6459                 0.8070
 IR Inten    --      8.0836                 0.0932                34.2438

                     19                     20                     21
                      A                      A                      A
 Frequencies --    433.5741               440.3158               485.3944
 Red. masses --      3.3994                10.9551                 6.8711
 Frc consts  --      0.3765                 1.2514                 0.9538
 IR Inten    --      4.8936                35.5081                18.5099

                     22                     23                     24
                      A                      A                      A
 Frequencies --    499.2190               510.1338               529.3567
 Red. masses --      4.5055                 5.8007                 7.2560
 Frc consts  --      0.6616                 0.8894                 1.1980
 IR Inten    --      1.5722                 2.7683                40.3438

                     25                     26                     27
                      A                      A                      A
 Frequencies --    580.7687               585.2310               605.2124
 Red. masses --      3.6747                 3.6237                 4.9041
 Frc consts  --      0.7303                 0.7312                 1.0583
 IR Inten    --     19.4333                27.8729                21.5083

                     28                     29                     30
                      A                      A                      A
 Frequencies --    638.6462               654.4308               670.9211
 Red. masses --      4.7114                 5.9033                 5.9514
 Frc consts  --      1.1322                 1.4896                 1.5784
 IR Inten    --      4.9923                 5.9131                28.0784

                     31                     32                     33
                      A                      A                      A
 Frequencies --    711.1678               719.2008               733.0093
 Red. masses --      5.3273                 2.7236                 6.1193
 Frc consts  --      1.5875                 0.8300                 1.9372
 IR Inten    --     27.9837                29.7591                 1.4701

                     34                     35                     36
                      A                      A                      A
 Frequencies --    770.4168               783.7756               794.1267
 Red. masses --      5.1800                 2.8093                 2.6774
 Frc consts  --      1.8115                 1.0168                 0.9948
 IR Inten    --     20.7578                29.8302                46.0060

                     37                     38                     39
                      A                      A                      A
 Frequencies --    825.2225               865.3847               883.9151
 Red. masses --      1.8559                 5.5971                 1.4425
 Frc consts  --      0.7447                 2.4696                 0.6640
 IR Inten    --     48.3832                80.4221                 0.1521

                     40                     41                     42
                      A                      A                      A
 Frequencies --    895.4690               921.1645               931.2257
 Red. masses --      5.8755                 2.9342                 1.0685
 Frc consts  --      2.7758                 1.4669                 0.5459
 IR Inten    --     49.4078                45.4227               110.3926

                     43                     44                     45
                      A                      A                      A
 Frequencies --    940.8897               965.8479               988.2452
 Red. masses --      2.0097                 5.4225                 1.3670
 Frc consts  --      1.0482                 2.9803                 0.7866
 IR Inten    --     19.8287               117.1243                 1.2914

                     46                     47                     48
                      A                      A                      A
 Frequencies --   1002.0385              1019.3779              1036.6278
 Red. masses --      1.2933                 1.9818                 2.3480
 Frc consts  --      0.7651                 1.2133                 1.4866
 IR Inten    --      0.0329               146.7899                47.1679

                     49                     50                     51
                      A                      A                      A
 Frequencies --   1055.1135              1070.5478              1112.8653
 Red. masses --      1.7823                 2.2022                 2.2727
 Frc consts  --      1.1691                 1.4871                 1.6584
 IR Inten    --     21.3474                67.9433                49.9829

                     52                     53                     54
                      A                      A                      A
 Frequencies --   1148.4833              1168.2705              1193.9028
 Red. masses --      1.4684                 1.4279                 2.2050
 Frc consts  --      1.1412                 1.1482                 1.8518
 IR Inten    --     60.6234                67.7367                12.9856

                     55                     56                     57
                      A                      A                      A
 Frequencies --   1211.6575              1231.9362              1240.9802
 Red. masses --      3.5655                 3.2195                 3.0860
 Frc consts  --      3.0841                 2.8789                 2.8001
 IR Inten    --    641.5942               381.6162                16.6683

                     58                     59                     60
                      A                      A                      A
 Frequencies --   1250.4543              1282.9651              1306.5660
 Red. masses --      2.3522                 4.0307                 3.2701
 Frc consts  --      2.1670                 3.9090                 3.2891
 IR Inten    --     10.7457                80.4720               616.3304

                     61                     62                     63
                      A                      A                      A
 Frequencies --   1345.9542              1360.8727              1377.8831
 Red. masses --      4.7640                 7.8168                 6.4110
 Frc consts  --      5.0850                 8.5293                 7.1713
 IR Inten    --     27.8833                33.7584               130.6856

                     64                     65                     66
                      A                      A                      A
 Frequencies --   1385.4648              1389.6989              1460.2204
 Red. masses --      1.5883                 2.3083                 1.0519
 Frc consts  --      1.7963                 2.6266                 1.3215
 IR Inten    --    504.2183               291.7345                30.8914

                     67                     68                     69
                      A                      A                      A
 Frequencies --   1463.9365              1471.3747              1483.7512
 Red. masses --      1.0820                 3.1344                 3.5552
 Frc consts  --      1.3663                 3.9980                 4.6115
 IR Inten    --     10.1865                67.0558               103.8282

                     70                     71                     72
                      A                      A                      A
 Frequencies --   1491.0359              1516.6151              1553.7580
 Red. masses --      2.8162                 6.0434                 2.4089
 Frc consts  --      3.6889                 8.1899                 3.4263
 IR Inten    --    364.5001              1222.8035                26.0502

                     73                     74                     75
                      A                      A                      A
 Frequencies --   1566.3782              1613.3612              1629.1216
 Red. masses --      5.6917                 7.6478                 5.4630
 Frc consts  --      8.2279                11.7286                 8.5426
 IR Inten    --    217.0569                29.1475                 3.5866

                     76                     77                     78
                      A                      A                      A
 Frequencies --   1648.3821              1761.6795              2822.5653
 Red. masses --      2.8349                11.3905                 1.0761
 Frc consts  --      4.5383                20.8280                 5.0514
 IR Inten    --    108.4264               483.1710               975.6924

                     79                     80                     81
                      A                      A                      A
 Frequencies --   3052.9661              3118.2807              3153.2100
 Red. masses --      1.0361                 1.0997                 1.1042
 Frc consts  --      5.6896                 6.3003                 6.4686
 IR Inten    --      2.6304                 6.7752                13.8964

                     82                     83                     84
                      A                      A                      A
 Frequencies --   3162.7486              3176.7572              3181.2247
 Red. masses --      1.0864                 1.0909                 1.0881
 Frc consts  --      6.4028                 6.4867                 6.4880
 IR Inten    --     13.2205                23.0757                20.4668

                     85                     86                     87
                      A                      A                      A
 Frequencies --   3194.7750              3195.1451              3197.8404
 Red. masses --      1.0919                 1.0948                 1.0942
 Frc consts  --      6.5664                 6.5854                 6.5924
 IR Inten    --     12.6354                14.1072                34.9131

 - Thermochemistry -
 -------------------
 Temperature   298.150 Kelvin.  Pressure   1.00000 Atm.
 Atom     1 has atomic number  6 and mass  12.00000

 Molecular mass:   282.05282 amu.
 Principal axes and moments of inertia in atomic units:
                           1         2         3
     Eigenvalues --  4067.139686295.082879938.88367
           X            0.25889  -0.17596   0.94974
           Y            0.23001   0.96621   0.11631
           Z            0.93812  -0.18834  -0.29062
 This molecule is an asymmetric top.
 Rotational symmetry number  1.
 Warning -- assumption of classical behavior for rotation
           may cause significant error
 Rotational temperatures (Kelvin)      0.02130     0.01376     0.00871
 Rotational constants (GHZ):           0.44374     0.28669     0.18158
 Zero-point vibrational energy     582713.0 (Joules/Mol)
                                  139.27176 (Kcal/Mol)
 Warning -- explicit consideration of  27 degrees of freedom as
           vibrations may cause significant error
 Vibrational temperatures:     63.44    74.61    88.29   112.71   131.29
          (Kelvin)            148.71   191.05   229.90   260.84   311.11
                              368.37   422.09   454.81   499.41   546.13
                              565.10   602.47   617.11   623.82   633.52
                              698.37   718.26   733.97   761.63   835.60
                              842.02   870.77   918.87   941.58   965.31
                             1023.21  1034.77  1054.64  1108.46  1127.68
                             1142.57  1187.31  1245.10  1271.76  1288.38
                             1325.35  1339.83  1353.73  1389.64  1421.86
                             1441.71  1466.66  1491.48  1518.07  1540.28
                             1601.16  1652.41  1680.88  1717.76  1743.30
                             1772.48  1785.49  1799.12  1845.90  1879.86
                             1936.53  1957.99  1982.47  1993.37  1999.47
                             2100.93  2106.28  2116.98  2134.79  2145.27
                             2182.07  2235.51  2253.67  2321.27  2343.94
                             2371.65  2534.66  4061.04  4392.54  4486.51
                             4536.77  4550.49  4570.65  4577.07  4596.57
                             4597.10  4600.98

 Zero-point correction=                           0.221944 (Hartree/Particle)
 Thermal correction to Energy=                    0.238612
 Thermal correction to Enthalpy=                  0.239556
 Thermal correction to Gibbs Free Energy=         0.176380
 Sum of electronic and zero-point Energies=           -992.080185
 Sum of electronic and thermal Energies=              -992.063516
 Sum of electronic and thermal Enthalpies=            -992.062572
 Sum of electronic and thermal Free Energies=         -992.125749

                     E (Thermal)             CV                S
                      KCal/Mol        Cal/Mol-Kelvin    Cal/Mol-Kelvin
 Total                  149.731             65.204            132.966
 Electronic               0.000              0.000              1.377
 Translational            0.889              2.981             42.809
 Rotational               0.889              2.981             33.897
 Vibrational            147.954             59.242             54.882
 Vibration     1          0.595              1.980              5.066
 Vibration     2          0.596              1.977              4.745
 Vibration     3          0.597              1.973              4.413
 Vibration     4          0.600              1.964              3.932
 Vibration     5          0.602              1.955              3.633
 Vibration     6          0.605              1.947              3.390
 Vibration     7          0.613              1.921              2.905
 Vibration     8          0.622              1.892              2.552
 Vibration     9          0.630              1.865              2.315
 Vibration    10          0.645              1.816              1.990
 Vibration    11          0.666              1.753              1.689
 Vibration    12          0.688              1.686              1.454
 Vibration    13          0.703              1.643              1.330
 Vibration    14          0.725              1.581              1.179
 Vibration    15          0.750              1.514              1.041
 Vibration    16          0.760              1.486              0.990
 Vibration    17          0.782              1.430              0.896
 Vibration    18          0.790              1.407              0.862
 Vibration    19          0.794              1.397              0.847
 Vibration    20          0.800              1.382              0.826
 Vibration    21          0.841              1.282              0.696
 Vibration    22          0.855              1.252              0.660
 Vibration    23          0.865              1.228              0.633
 Vibration    24          0.884              1.185              0.589
 Vibration    25          0.937              1.073              0.484
 Vibration    26          0.942              1.063              0.476
 Vibration    27          0.964              1.021              0.441

                           ! Non-Optimized Parameters !
 Normal termination of Gaussian 16 at Sat Feb 10 21:31:35 2024.
