 Q-Chem 5.4, Q-Chem, Inc., Pleasanton, CA (2021)
 Q-Chem 5.4.0 for Intel X86 EM64T Linux

User input:
--------------------------------------------------------------
$molecule
-1 2
C                 -3.4283940000     -2.7383470000     -0.3569740000
O                 -2.1388010000     -2.1983880000     -0.2002020000
C                 -1.9908230000     -0.8343750000     -0.2016110000
C                 -3.0783670000      0.0160410000     -0.3536250000
C                 -2.9178290000      1.4097220000     -0.3541690000
C                 -1.6639420000      1.9708790000     -0.2023000000
O                 -1.5423360000      3.3163850000     -0.2072650000
C                 -0.5173910000      1.1257250000     -0.0428300000
C                  0.7766220000      1.7592470000      0.1128030000
O                  0.9044770000      3.0374450000      0.1097550000
C                  1.9373530000      0.9096160000      0.2736540000
C                  3.2196880000      1.4861320000      0.4282570000
C                  4.3378890000      0.6929290000      0.5826660000
C                  4.2093820000     -0.7129990000      0.5876070000
C                  2.9631720000     -1.2910670000      0.4377590000
C                  1.8060220000     -0.5016080000      0.2784410000
C                  0.5023220000     -1.1768000000      0.1229370000
O                  0.4527750000     -2.4237830000      0.1365190000
C                 -0.6734270000     -0.3058660000     -0.0409860000
H                 -3.3001900000     -3.8212390000     -0.3244780000
H                 -4.1073640000     -2.4332470000      0.4516270000
H                 -3.8810260000     -2.4595630000     -1.3189150000
H                 -4.0747140000     -0.3867870000     -0.4750200000
H                 -3.7724040000      2.0661580000     -0.4735250000
H                 -0.5501900000      3.4825830000     -0.0829830000
H                  3.2882370000      2.5673690000      0.4206280000
H                  5.3167060000      1.1486030000      0.7004190000
H                  5.0891910000     -1.3378770000      0.7090780000
H                  2.8333620000     -2.3668880000      0.4376420000
$end
$rem
MAX_SCF_CYCLES=200
BASIS  =  6-311++G(d,p)
GUI  =  2
JOB_TYPE  =  SP
METHOD  =  B3LYP
SOLVENT_METHOD = PCM
$end
$pcm
theory = CPCM
$end
$solvent
dielectric 37.219
opticaldielectric 1.43
$end

--------------------------------------------------------------

             Standard Nuclear Orientation (Angstroms)
    I     Atom           X                Y                Z
 ----------------------------------------------------------------
    1      C      -3.4283940000    -2.7383470000    -0.3569740000
    2      O      -2.1388010000    -2.1983880000    -0.2002020000
    3      C      -1.9908230000    -0.8343750000    -0.2016110000
    4      C      -3.0783670000     0.0160410000    -0.3536250000
    5      C      -2.9178290000     1.4097220000    -0.3541690000
    6      C      -1.6639420000     1.9708790000    -0.2023000000
    7      O      -1.5423360000     3.3163850000    -0.2072650000
    8      C      -0.5173910000     1.1257250000    -0.0428300000
    9      C       0.7766220000     1.7592470000     0.1128030000
   10      O       0.9044770000     3.0374450000     0.1097550000
   11      C       1.9373530000     0.9096160000     0.2736540000
   12      C       3.2196880000     1.4861320000     0.4282570000
   13      C       4.3378890000     0.6929290000     0.5826660000
   14      C       4.2093820000    -0.7129990000     0.5876070000
   15      C       2.9631720000    -1.2910670000     0.4377590000
   16      C       1.8060220000    -0.5016080000     0.2784410000
   17      C       0.5023220000    -1.1768000000     0.1229370000
   18      O       0.4527750000    -2.4237830000     0.1365190000
   19      C      -0.6734270000    -0.3058660000    -0.0409860000
   20      H      -3.3001900000    -3.8212390000    -0.3244780000
   21      H      -4.1073640000    -2.4332470000     0.4516270000
   22      H      -3.8810260000    -2.4595630000    -1.3189150000
   23      H      -4.0747140000    -0.3867870000    -0.4750200000
   24      H      -3.7724040000     2.0661580000    -0.4735250000
   25      H      -0.5501900000     3.4825830000    -0.0829830000
   26      H       3.2882370000     2.5673690000     0.4206280000
   27      H       5.3167060000     1.1486030000     0.7004190000
   28      H       5.0891910000    -1.3378770000     0.7090780000
   29      H       2.8333620000    -2.3668880000     0.4376420000
 ----------------------------------------------------------------

    8    -878.9072578577      8.53e-06  Convergence criterion met
 Total energy in the final basis set =     -878.9072578577

                    Orbital Energies (a.u.)
 --------------------------------------------------------------

 Alpha MOs
 -- Occupied --
-19.1474 -19.1263 -19.0904 -19.0751 -10.2330 -10.2323 -10.2318 -10.2294
-10.2120 -10.1811 -10.1800 -10.1751 -10.1739 -10.1736 -10.1729 -10.1714
-10.1706 -10.1702 -10.1665  -1.0658  -1.0522  -1.0070  -1.0039  -0.8627
 -0.8476  -0.7879  -0.7559  -0.7506  -0.7412  -0.6922  -0.6727  -0.6362
 -0.6269  -0.5848  -0.5704  -0.5403  -0.5338  -0.5168  -0.4955  -0.4757
 -0.4658  -0.4655  -0.4581  -0.4389  -0.4319  -0.4268  -0.4229  -0.4160
 -0.4085  -0.4008  -0.3983  -0.3847  -0.3843  -0.3608  -0.3560  -0.3544
 -0.3463  -0.3387  -0.3329  -0.2996  -0.2714  -0.2584  -0.2573  -0.2513
 -0.2342  -0.2146  -0.1433

 Beta MOs
 -- Occupied --
-19.1472 -19.1258 -19.0857 -19.0705 -10.2327 -10.2310 -10.2290 -10.2290
-10.2120 -10.1805 -10.1800 -10.1747 -10.1734 -10.1730 -10.1723 -10.1711
-10.1703 -10.1696 -10.1655  -1.0653  -1.0502  -0.9989  -0.9960  -0.8603
 -0.8461  -0.7840  -0.7535  -0.7491  -0.7395  -0.6906  -0.6660  -0.6342
 -0.6246  -0.5840  -0.5687  -0.5379  -0.5327  -0.5158  -0.4936  -0.4739
 -0.4644  -0.4643  -0.4564  -0.4381  -0.4257  -0.4224  -0.4200  -0.4149
 -0.4052  -0.3998  -0.3902  -0.3835  -0.3700  -0.3598  -0.3531  -0.3471
 -0.3376  -0.3366  -0.3323  -0.2945  -0.2542  -0.2536  -0.2516  -0.2465
 -0.2300  -0.2049

          Ground-State Mulliken Net Atomic Charges

     Atom                 Charge (a.u.)    Spin (a.u.)
  --------------------------------------------------------
      1 C                    -0.309772      -0.000863
      2 O                    -0.168951       0.004573
      3 C                    -0.369855       0.025496
      4 C                    -0.220532       0.083654
      5 C                    -0.194750       0.065950
      6 C                    -0.216627       0.047848
      7 O                    -0.428631       0.014785
      8 C                     0.843798      -0.017204
      9 C                    -0.248383       0.163625
     10 O                    -0.503844       0.173555
     11 C                     0.077227      -0.014617
     12 C                     0.043613       0.051198
     13 C                    -0.547009       0.010773
     14 C                    -0.521114       0.057419
     15 C                     0.078015       0.012666
     16 C                    -0.013755       0.053604
     17 C                    -0.223316       0.062708
     18 O                    -0.469273       0.181826
     19 C                     0.312767       0.043888
     20 H                     0.199287      -0.000239
     21 H                     0.161127       0.000895
     22 H                     0.160962       0.000877
     23 H                     0.226383      -0.005247
     24 H                     0.209605      -0.005602
     25 H                     0.378349      -0.003652
     26 H                     0.179235      -0.001820
     27 H                     0.197582      -0.001582
     28 H                     0.200658      -0.004012
     29 H                     0.167203      -0.000501
  --------------------------------------------------------
  Sum of atomic charges =    -1.000000

                    Cartesian Multipole Moments
 -----------------------------------------------------------------
    Charge (ESU x 10^10)
                -4.8032
    Dipole Moment (Debye)
         X      -2.5842      Y      -3.3783      Z      -0.4767
       Tot       4.2800
    Quadrupole Moments (Debye-Ang)
        XX    -100.7006     XY       8.8363     YY    -151.3808
        XZ       1.7803     YZ       1.5295     ZZ    -116.3942

 Total job time:  73.65s(wall), 426.67s(cpu)
        *  Thank you very much for using Q-Chem.  Have a nice day.  *
