 Gaussian 16, Revision A.03,
 Gaussian 16:  ES64L-G16RevA.03 25-Dec-2016

 --------------------------------------
 #P UB3LYP/6-311++G(d,p) nosym opt freq
 --------------------------------------

 -------
 Radical
 -------
 Symbolic Z-matrix:
 Charge = -1 Multiplicity = 2

 SCF Done:  E(UB3LYP) =  -767.650580589     A.U. after   23 cycles
 SCF Done:  E(UB3LYP) =  -767.659933359     A.U. after   17 cycles
 SCF Done:  E(UB3LYP) =  -767.660761924     A.U. after   17 cycles
 SCF Done:  E(UB3LYP) =  -767.660809992     A.U. after   15 cycles
 SCF Done:  E(UB3LYP) =  -767.660833111     A.U. after   16 cycles
 SCF Done:  E(UB3LYP) =  -767.660960129     A.U. after   15 cycles
 SCF Done:  E(UB3LYP) =  -767.660988220     A.U. after   14 cycles
 SCF Done:  E(UB3LYP) =  -767.661016923     A.U. after   14 cycles
 SCF Done:  E(UB3LYP) =  -767.661036837     A.U. after   13 cycles
 SCF Done:  E(UB3LYP) =  -767.661038727     A.U. after   13 cycles
 SCF Done:  E(UB3LYP) =  -767.661039167     A.U. after   10 cycles
 SCF Done:  E(UB3LYP) =  -767.661039218     A.U. after   10 cycles
 SCF Done:  E(UB3LYP) =  -767.661039223     A.U. after    9 cycles
 Optimization completed.
    -- Stationary point found.
 Normal termination of Gaussian 16 at Thu Dec 21 07:35:12 2023.

 ----------------------------------------------------------------------
 #P Geom=AllCheck Guess=TCheck SCRF=Check GenChk UB3LYP/6-311++G(d,p) F
 req
 ----------------------------------------------------------------------

 Structure from the checkpoint file:  "128-rad.chk"
 -------
 Radical
 -------
 Charge = -1 Multiplicity = 2

                          Input orientation:
 ---------------------------------------------------------------------
 Center     Atomic      Atomic             Coordinates (Angstroms)
 Number     Number       Type             X           Y           Z
 ---------------------------------------------------------------------
      1          6           0       -3.425649    3.598346    0.075858
      2          6           0       -4.600752    2.859204    0.107921
      3          6           0       -4.600272    1.451770    0.124800
      4          6           0       -2.167690    2.908851    0.059215
      5          6           0       -2.179349    1.479223    0.076431
      6          6           0       -3.402560    0.775965    0.109138
      7          6           0       -0.891727    3.642376    0.025418
      8          6           0        0.354498    2.858813    0.008712
      9          6           0        0.310083    1.429831    0.026682
     10          6           0       -0.949600    0.690366    0.061289
     11          6           0        1.638502    3.497792   -0.025657
     12          6           0        2.783678    2.712557   -0.039917
     13          6           0        2.728008    1.306244   -0.021710
     14          6           0        1.504745    0.678543    0.011113
     15          8           0       -0.867094    4.900611    0.011337
     16          8           0       -0.974230   -0.567848    0.077099
     17          6           0       -3.558938    5.105890    0.060386
     18          1           0       -5.548661    3.390296    0.120219
     19          1           0       -5.541454    0.910026    0.149921
     20          1           0       -3.351153   -0.306041    0.121028
     21          6           0        1.830906    4.998859   -0.048132
     22          1           0        1.410917   -0.400574    0.026032
     23          1           0        3.751651    3.205602   -0.066076
     24          1           0        3.647195    0.727547   -0.033722
     25          1           0       -4.620276    5.377785    0.077111
     26          1           0       -3.089554    5.544799   -0.821747
     27          1           0       -3.056962    5.565426    0.913612
     28          1           0        1.344434    5.456471   -0.911304
     29          1           0        2.902040    5.228273   -0.074225
     30          1           0        1.382174    5.477687    0.823939
 ---------------------------------------------------------------------

 SCF Done:  E(UB3LYP) =  -767.661039223     A.U. after    1 cycles

 Alpha  occ. eigenvalues --  -18.94201 -18.94084 -10.09860 -10.09054 -10.06556
 Alpha  occ. eigenvalues --  -10.06556 -10.05388 -10.05388 -10.05190 -10.05189
 Alpha  occ. eigenvalues --  -10.05083 -10.05083 -10.04622 -10.04621 -10.04456
 Alpha  occ. eigenvalues --  -10.04456 -10.04341 -10.04340  -0.87281  -0.86675
 Alpha  occ. eigenvalues --   -0.73852  -0.73205  -0.66441  -0.65196  -0.64821
 Alpha  occ. eigenvalues --   -0.61640  -0.57410  -0.56241  -0.53509  -0.50450
 Alpha  occ. eigenvalues --   -0.49670  -0.44755  -0.42338  -0.40564  -0.39603
 Alpha  occ. eigenvalues --   -0.34788  -0.34508  -0.34445  -0.34003  -0.30892
 Alpha  occ. eigenvalues --   -0.30118  -0.29503  -0.28996  -0.28563  -0.28215
 Alpha  occ. eigenvalues --   -0.27770  -0.27446  -0.26431  -0.25704  -0.24296
 Alpha  occ. eigenvalues --   -0.24243  -0.23306  -0.22766  -0.22177  -0.21256
 Alpha  occ. eigenvalues --   -0.21053  -0.14080  -0.12681  -0.12580  -0.12539
 Alpha  occ. eigenvalues --   -0.11009  -0.10147  -0.01137
 Alpha virt. eigenvalues --    0.07304   0.08169   0.08292   0.09436   0.09724
 Alpha virt. eigenvalues --    0.09835   0.10894   0.11595   0.12033   0.12533
 Alpha virt. eigenvalues --    0.12545   0.13327   0.14304   0.14531   0.14947

  Beta  occ. eigenvalues --  -18.93604 -18.93486 -10.09730 -10.08912 -10.06572
  Beta  occ. eigenvalues --  -10.06572 -10.05340 -10.05340 -10.05105 -10.05104
  Beta  occ. eigenvalues --  -10.05017 -10.05017 -10.04534 -10.04533 -10.04454
  Beta  occ. eigenvalues --  -10.04454 -10.04340 -10.04339  -0.86258  -0.85635
  Beta  occ. eigenvalues --   -0.73604  -0.73092  -0.66051  -0.65120  -0.64645
  Beta  occ. eigenvalues --   -0.61437  -0.57132  -0.56177  -0.52915  -0.50271
  Beta  occ. eigenvalues --   -0.49413  -0.44675  -0.42112  -0.40322  -0.39503
  Beta  occ. eigenvalues --   -0.34558  -0.34452  -0.34326  -0.33837  -0.30394
  Beta  occ. eigenvalues --   -0.29926  -0.29451  -0.28910  -0.28491  -0.28148
  Beta  occ. eigenvalues --   -0.27271  -0.26489  -0.26392  -0.25442  -0.24155
  Beta  occ. eigenvalues --   -0.22993  -0.22708  -0.22052  -0.22025  -0.20867
  Beta  occ. eigenvalues --   -0.20085  -0.12285  -0.12067  -0.12044  -0.11290
  Beta  occ. eigenvalues --   -0.10461  -0.09608
  Beta virt. eigenvalues --    0.04773   0.08165   0.08166   0.08287   0.09433
  Beta virt. eigenvalues --    0.09829   0.10769   0.10895   0.11756   0.12026
  Beta virt. eigenvalues --    0.12538   0.12588   0.13337   0.14289   0.14595

 Mulliken charges and spin densities:
               1          2
     1  C    0.666512  -0.003867
     2  C   -0.562465   0.051079
     3  C   -0.352936   0.036669
     4  C    0.230562   0.057155
     5  C    0.517033   0.051671
     6  C    0.033547   0.024195
     7  C   -0.972995   0.067302
     8  C    0.230456   0.057160
     9  C    0.517045   0.051679
    10  C   -0.958840   0.062803
    11  C    0.666522  -0.003859
    12  C   -0.562368   0.051068
    13  C   -0.352993   0.036677
    14  C    0.033752   0.024188
    15  O   -0.318726   0.217479
    16  O   -0.354670   0.224710
    17  C   -0.507543   0.007705
    18  H    0.060716  -0.004667
    19  H    0.136662  -0.003130
    20  H    0.152885  -0.001456
    21  C   -0.507622   0.007702
    22  H    0.152888  -0.001456
    23  H    0.060708  -0.004666
    24  H    0.136662  -0.003130
    25  H    0.107190  -0.000531
    26  H    0.160161  -0.000489
    27  H    0.160243  -0.000487
    28  H    0.160168  -0.000488
    29  H    0.107194  -0.000531
    30  H    0.160251  -0.000487
 Sum of Mulliken charges =  -1.00000   1.00000

 Dipole moment (field-independent basis, Debye):
    X=              4.4315    Y=             -9.9337    Z=             -0.2155  Tot=             10.8795
 Quadrupole moment (field-independent basis, Debye-Ang):
   XX=           -127.6148   YY=           -159.8785   ZZ=           -112.9137
   XY=              8.8583   XZ=              0.4169   YZ=             -0.1334

  Exact polarizability: 344.399  -1.895 250.767  -4.744  -1.646 109.123
 Approx polarizability: 514.200  -1.206 457.042  -6.817  -3.284 176.899

                      1                      2                      3
                      A                      A                      A
 Frequencies --     28.8375                54.1685                80.2787
 Red. masses --      6.1526                 3.4478                 5.1559
 Frc consts  --      0.0030                 0.0060                 0.0196
 IR Inten    --      5.8916                 0.0006                 0.1471

                      4                      5                      6
                      A                      A                      A
 Frequencies --    164.8709               195.9675               204.5145
 Red. masses --      7.4044                 2.6264                 4.1913
 Frc consts  --      0.1186                 0.0594                 0.1033
 IR Inten    --      1.8155                 0.0000                 3.0356

                      7                      8                      9
                      A                      A                      A
 Frequencies --    214.3391               233.7055               247.4119
 Red. masses --      1.9272                 1.1485                 1.3776
 Frc consts  --      0.0522                 0.0370                 0.0497
 IR Inten    --      3.5327                 0.0008                 0.3773

                     10                     11                     12
                      A                      A                      A
 Frequencies --    263.8897               317.6691               345.6086
 Red. masses --      4.2185                 4.2325                 5.1223
 Frc consts  --      0.1731                 0.2516                 0.3605
 IR Inten    --      0.0000                 0.7862                 1.0751

                     13                     14                     15
                      A                      A                      A
 Frequencies --    352.0174               404.4521               416.6765
 Red. masses --      7.1374                12.5761                 6.1207
 Frc consts  --      0.5211                 1.2121                 0.6261
 IR Inten    --      0.5180                 7.8199                 0.0069

                     16                     17                     18
                      A                      A                      A
 Frequencies --    421.2960               449.4766               485.4724
 Red. masses --      4.0652                 3.7494                 9.5686
 Frc consts  --      0.4251                 0.4463                 1.3287
 IR Inten    --      1.1110                 2.2472                 0.3774

                     19                     20                     21
                      A                      A                      A
 Frequencies --    489.9368               505.0565               547.7076
 Red. masses --      3.7851                 3.9724                 3.7878
 Frc consts  --      0.5353                 0.5970                 0.6695
 IR Inten    --      4.9061                 0.0000                 0.0001

                     22                     23                     24
                      A                      A                      A
 Frequencies --    549.9476               558.0014               624.0926
 Red. masses --      5.9235                 4.4184                 6.4595
 Frc consts  --      1.0555                 0.8106                 1.4823
 IR Inten    --      0.3127                 3.9625                11.3285

                     25                     26                     27
                      A                      A                      A
 Frequencies --    644.0627               702.9456               722.8578
 Red. masses --      4.2169                 6.8459                 2.2698
 Frc consts  --      1.0306                 1.9931                 0.6988
 IR Inten    --      2.1096                 3.4260                59.5798

                     28                     29                     30
                      A                      A                      A
 Frequencies --    735.2100               781.0866               788.8716
 Red. masses --      3.0384                 1.4724                 2.1925
 Frc consts  --      0.9676                 0.5293                 0.8039
 IR Inten    --      0.0000                 0.0001                37.2167

                     31                     32                     33
                      A                      A                      A
 Frequencies --    791.2837               803.9920               824.6448
 Red. masses --      5.8842                 6.5440                 4.4485
 Frc consts  --      2.1707                 2.4923                 1.7824
 IR Inten    --      1.1372                16.2418                 5.9210

                     34                     35                     36
                      A                      A                      A
 Frequencies --    888.7912               889.4964               922.0256
 Red. masses --      1.3403                 1.3931                 5.4521
 Frc consts  --      0.6238                 0.6494                 2.7309
 IR Inten    --      0.0004                 0.1961                 2.8319

                     37                     38                     39
                      A                      A                      A
 Frequencies --    934.4144               981.1572               984.4869
 Red. masses --      3.8638                 1.2874                 1.3186
 Frc consts  --      1.9876                 0.7302                 0.7530
 IR Inten    --     13.1082                 0.0004                 2.7819

                     40                     41                     42
                      A                      A                      A
 Frequencies --    995.9514              1031.8486              1046.7145
 Red. masses --      1.9692                 1.7182                 2.8744
 Frc consts  --      1.1509                 1.0778                 1.8555
 IR Inten    --      0.4207                 7.5244                17.0175

                     43                     44                     45
                      A                      A                      A
 Frequencies --   1053.4904              1054.7374              1093.1339
 Red. masses --      1.5294                 1.5361                 2.2561
 Frc consts  --      1.0001                 1.0068                 1.5884
 IR Inten    --      0.0407                 3.1742                 0.8935

                     46                     47                     48
                      A                      A                      A
 Frequencies --   1108.9376              1150.6535              1173.2855
 Red. masses --      1.7936                 1.5443                 1.3486
 Frc consts  --      1.2996                 1.2047                 1.0938
 IR Inten    --     57.6003                35.9175                 0.8686

                     49                     50                     51
                      A                      A                      A
 Frequencies --   1178.5654              1213.7286              1230.9749
 Red. masses --      2.2814                 2.8265                 3.8763
 Frc consts  --      1.8671                 2.4533                 3.4608
 IR Inten    --      0.4912                14.0363                35.1378

                     52                     53                     54
                      A                      A                      A
 Frequencies --   1247.3929              1251.3563              1327.7596
 Red. masses --      2.3144                 2.1988                 3.7697
 Frc consts  --      2.1217                 2.0286                 3.9156
 IR Inten    --      7.6772                29.2664                 2.7085

                     55                     56                     57
                      A                      A                      A
 Frequencies --   1344.3768              1358.2612              1406.8192
 Red. masses --      8.0636                 5.0193                 3.2319
 Frc consts  --      8.5866                 5.4558                 3.7686
 IR Inten    --     13.8377                25.4802               290.8956

                     58                     59                     60
                      A                      A                      A
 Frequencies --   1410.9598              1414.5938              1415.6680
 Red. masses --      2.5179                 1.2507                 1.3105
 Frc consts  --      2.9534                 1.4746                 1.5475
 IR Inten    --     22.5838                 0.2627                 0.7876

                     61                     62                     63
                      A                      A                      A
 Frequencies --   1440.5633              1464.0110              1464.5101
 Red. masses --      1.9953                 1.0466                 1.0467
 Frc consts  --      2.4396                 1.3217                 1.3227
 IR Inten    --     95.9744                 1.0475                 8.6236

                     64                     65                     66
                      A                      A                      A
 Frequencies --   1480.8387              1485.6911              1486.7011
 Red. masses --      1.5032                 1.8973                 1.3203
 Frc consts  --      1.9422                 2.4675                 1.7194
 IR Inten    --      4.6715                39.1205                 1.4492

                     67                     68                     69
                      A                      A                      A
 Frequencies --   1532.3211              1536.8763              1569.9225
 Red. masses --      4.8065                 6.5620                 6.0817
 Frc consts  --      6.6494                 9.1320                 8.8314
 IR Inten    --    506.4538                 6.0872               114.3990

                     70                     71                     72
                      A                      A                      A
 Frequencies --   1611.2273              1614.6385              1620.6600
 Red. masses --      5.0068                 7.2501                 6.4407
 Frc consts  --      7.6581                11.1365                 9.9671
 IR Inten    --      0.0729                12.9886                 0.0476

                     73                     74                     75
                      A                      A                      A
 Frequencies --   3010.7979              3011.4690              3085.6875
 Red. masses --      1.0453                 1.0450                 1.0907
 Frc consts  --      5.5827                 5.5840                 6.1186
 IR Inten    --    115.1691                88.5375                34.0329

                     76                     77                     78
                      A                      A                      A
 Frequencies --   3086.2123              3095.0691              3095.5029
 Red. masses --      1.0908                 1.0990                 1.0990
 Frc consts  --      6.1215                 6.2026                 6.2046
 IR Inten    --      0.6117                 0.0706                31.8170

                     79                     80                     81
                      A                      A                      A
 Frequencies --   3128.3221              3128.5081              3149.2314
 Red. masses --      1.0849                 1.0851                 1.0921
 Frc consts  --      6.2555                 6.2575                 6.3817
 IR Inten    --     47.1726                10.3952               129.8148

                     82                     83                     84
                      A                      A                      A
 Frequencies --   3149.5364              3188.8775              3189.5083
 Red. masses --      1.0920                 1.0919                 1.0922
 Frc consts  --      6.3819                 6.5422                 6.5464
 IR Inten    --      1.9972                27.1980                 8.0055

 - Thermochemistry -
 -------------------
 Temperature   298.150 Kelvin.  Pressure   1.00000 Atm.
 Atom     1 has atomic number  6 and mass  12.00000

 Molecular mass:   236.08373 amu.
 Principal axes and moments of inertia in atomic units:
                           1         2         3
     Eigenvalues --  2488.624644811.778737278.71467
           X            0.99960   0.01960   0.02026
           Y           -0.01985   0.99973   0.01193
           Z           -0.02002  -0.01233   0.99972
 This molecule is an asymmetric top.
 Rotational symmetry number  1.
 Warning -- assumption of classical behavior for rotation
           may cause significant error
 Rotational temperatures (Kelvin)      0.03480     0.01800     0.01190
 Rotational constants (GHZ):           0.72520     0.37507     0.24795
 Zero-point vibrational energy     608221.0 (Joules/Mol)
                                  145.36831 (Kcal/Mol)
 Warning -- explicit consideration of  23 degrees of freedom as
           vibrations may cause significant error
 Vibrational temperatures:     41.49    77.94   115.50   237.21   281.95
          (Kelvin)            294.25   308.39   336.25   355.97   379.68
                              457.05   497.25   506.47   581.92   599.50
                              606.15   646.70   698.49   704.91   726.66
                              788.03   791.25   802.84   897.93   926.66
                             1011.38  1040.03  1057.80  1123.81  1135.01
                             1138.48  1156.77  1186.48  1278.77  1279.79
                             1326.59  1344.41  1411.67  1416.46  1432.95
                             1484.60  1505.99  1515.74  1517.53  1572.78
                             1595.51  1655.53  1688.10  1695.69  1746.28
                             1771.10  1794.72  1800.42  1910.35  1934.26
                             1954.23  2024.10  2030.06  2035.29  2036.83
                             2072.65  2106.39  2107.10  2130.60  2137.58
                             2139.03  2204.67  2211.22  2258.77  2318.20
                             2323.10  2331.77  4331.87  4332.83  4439.62
                             4440.37  4453.11  4453.74  4500.96  4501.23
                             4531.04  4531.48  4588.08  4588.99

 Zero-point correction=                           0.231659 (Hartree/Particle)
 Thermal correction to Energy=                    0.245963
 Thermal correction to Enthalpy=                  0.246907
 Thermal correction to Gibbs Free Energy=         0.189752
 Sum of electronic and zero-point Energies=           -767.429380
 Sum of electronic and thermal Energies=              -767.415076
 Sum of electronic and thermal Enthalpies=            -767.414132
 Sum of electronic and thermal Free Energies=         -767.471287

                     E (Thermal)             CV                S
                      KCal/Mol        Cal/Mol-Kelvin    Cal/Mol-Kelvin
 Total                  154.344             57.854            120.293
 Electronic               0.000              0.000              1.377
 Translational            0.889              2.981             42.279
 Rotational               0.889              2.981             32.833
 Vibrational            152.567             51.892             43.804
 Vibration     1          0.593              1.984              5.908
 Vibration     2          0.596              1.976              4.659
 Vibration     3          0.600              1.963              3.884
 Vibration     4          0.623              1.886              2.493
 Vibration     5          0.636              1.846              2.171
 Vibration     6          0.640              1.833              2.092
 Vibration     7          0.644              1.819              2.006
 Vibration     8          0.654              1.789              1.850
 Vibration     9          0.661              1.767              1.749
 Vibration    10          0.670              1.739              1.636
 Vibration    11          0.704              1.640              1.322
 Vibration    12          0.724              1.584              1.186
 Vibration    13          0.729              1.571              1.157
 Vibration    14          0.770              1.461              0.946
 Vibration    15          0.780              1.434              0.903
 Vibration    16          0.784              1.424              0.888
 Vibration    17          0.808              1.362              0.797
 Vibration    18          0.842              1.282              0.695
 Vibration    19          0.846              1.272              0.684
 Vibration    20          0.860              1.239              0.646
 Vibration    21          0.903              1.145              0.549
 Vibration    22          0.905              1.140              0.544
 Vibration    23          0.914              1.122              0.528

 Optimization completed.
    -- Stationary point found.
 Normal termination of Gaussian 16 at Thu Dec 21 09:11:17 2023.
