 Q-Chem 5.4, Q-Chem, Inc., Pleasanton, CA (2021)
 Q-Chem 5.4.0 for Intel X86 EM64T Linux

User input:
--------------------------------------------------------------
$molecule
-1 2
C                  3.5783890000     -1.4362960000      0.3361760000
C                  2.5744380000     -0.5397370000     -0.3365460000
O                  2.4018770000     -0.4421830000     -1.5232360000
O                  1.9101730000      0.1999920000      0.5965760000
C                  0.7001170000      0.8116620000      0.2448320000
C                  0.7145690000      2.1884070000      0.1511340000
C                 -0.4793410000      2.8827040000     -0.0992720000
C                 -1.6594690000      2.1802160000     -0.2429850000
C                 -1.6876890000      0.7770110000     -0.1430840000
C                 -2.9934850000      0.0963580000     -0.2812580000
O                 -4.0533250000      0.7416700000     -0.4981320000
C                 -2.9666510000     -1.3314050000     -0.1441920000
C                 -1.8086850000     -2.0332610000      0.0896660000
C                 -0.5119730000     -1.4259880000      0.2162920000
O                  0.5220380000     -2.1256480000      0.4076640000
C                 -0.4830990000      0.0477850000      0.1027090000
H                  4.0882370000     -0.9118960000      1.1470480000
H                  4.2957090000     -1.8036480000     -0.3967350000
H                  3.0150050000     -2.2691480000      0.7627240000
H                  1.6574670000      2.7082890000      0.2768610000
H                 -0.4675980000      3.9653630000     -0.1770120000
H                 -2.6021950000      2.6800530000     -0.4314950000
H                 -3.9194250000     -1.8446730000     -0.2384930000
H                 -1.8250840000     -3.1156290000      0.1807580000
$end
$rem
MAX_SCF_CYCLES=200
BASIS  =  6-311++G(d,p)
GUI  =  2
JOB_TYPE  =  SP
METHOD  =  B3LYP
SOLVENT_METHOD = PCM
$end
$pcm
theory = CPCM
$end
$solvent
dielectric 37.219
opticaldielectric 1.43
$end

--------------------------------------------------------------

             Standard Nuclear Orientation (Angstroms)
    I     Atom           X                Y                Z
 ----------------------------------------------------------------
    1      C       3.5783890000    -1.4362960000     0.3361760000
    2      C       2.5744380000    -0.5397370000    -0.3365460000
    3      O       2.4018770000    -0.4421830000    -1.5232360000
    4      O       1.9101730000     0.1999920000     0.5965760000
    5      C       0.7001170000     0.8116620000     0.2448320000
    6      C       0.7145690000     2.1884070000     0.1511340000
    7      C      -0.4793410000     2.8827040000    -0.0992720000
    8      C      -1.6594690000     2.1802160000    -0.2429850000
    9      C      -1.6876890000     0.7770110000    -0.1430840000
   10      C      -2.9934850000     0.0963580000    -0.2812580000
   11      O      -4.0533250000     0.7416700000    -0.4981320000
   12      C      -2.9666510000    -1.3314050000    -0.1441920000
   13      C      -1.8086850000    -2.0332610000     0.0896660000
   14      C      -0.5119730000    -1.4259880000     0.2162920000
   15      O       0.5220380000    -2.1256480000     0.4076640000
   16      C      -0.4830990000     0.0477850000     0.1027090000
   17      H       4.0882370000    -0.9118960000     1.1470480000
   18      H       4.2957090000    -1.8036480000    -0.3967350000
   19      H       3.0150050000    -2.2691480000     0.7627240000
   20      H       1.6574670000     2.7082890000     0.2768610000
   21      H      -0.4675980000     3.9653630000    -0.1770120000
   22      H      -2.6021950000     2.6800530000    -0.4314950000
   23      H      -3.9194250000    -1.8446730000    -0.2384930000
   24      H      -1.8250840000    -3.1156290000     0.1807580000
 ----------------------------------------------------------------

    8    -763.3606307126      9.63e-06  Convergence criterion met
 Total energy in the final basis set =     -763.3606307126

                    Orbital Energies (a.u.)
 --------------------------------------------------------------

 Alpha MOs
 -- Occupied --
-19.1730 -19.1213 -19.0811 -19.0805 -10.3130 -10.2422 -10.2301 -10.2266
-10.1873 -10.1818 -10.1792 -10.1780 -10.1726 -10.1700 -10.1658 -10.1648
 -1.1172  -1.0373  -1.0059  -1.0036  -0.8665  -0.8090  -0.7765  -0.7485
 -0.7346  -0.6825  -0.6425  -0.6242  -0.6016  -0.5359  -0.5145  -0.5095
 -0.4963  -0.4860  -0.4754  -0.4702  -0.4528  -0.4292  -0.4245  -0.4176
 -0.4090  -0.4009  -0.3992  -0.3905  -0.3838  -0.3792  -0.3597  -0.3590
 -0.3519  -0.3259  -0.2925  -0.2821  -0.2588  -0.2572  -0.2490  -0.2413
 -0.1588

 Beta MOs
 -- Occupied --
-19.1729 -19.1212 -19.0749 -19.0746 -10.3130 -10.2421 -10.2285 -10.2249
-10.1870 -10.1812 -10.1788 -10.1777 -10.1725 -10.1700 -10.1642 -10.1633
 -1.1171  -1.0372  -0.9953  -0.9927  -0.8647  -0.8036  -0.7756  -0.7463
 -0.7336  -0.6734  -0.6414  -0.6209  -0.5993  -0.5337  -0.5130  -0.5071
 -0.4958  -0.4850  -0.4736  -0.4689  -0.4516  -0.4266  -0.4186  -0.4124
 -0.4035  -0.3984  -0.3957  -0.3880  -0.3802  -0.3591  -0.3570  -0.3537
 -0.3457  -0.3243  -0.2924  -0.2548  -0.2525  -0.2500  -0.2434  -0.2359

          Ground-State Mulliken Net Atomic Charges

     Atom                 Charge (a.u.)    Spin (a.u.)
  --------------------------------------------------------
      1 C                    -0.498002       0.002680
      2 C                     0.092064      -0.000356
      3 O                    -0.313374      -0.000300
      4 O                    -0.011361      -0.002305
      5 C                    -0.323815       0.046594
      6 C                     0.116900       0.026271
      7 C                    -0.590556       0.028967
      8 C                     0.014641       0.037272
      9 C                     0.319654       0.030150
     10 C                    -0.348493       0.101659
     11 O                    -0.505600       0.219319
     12 C                    -0.102713       0.096498
     13 C                    -0.168734       0.093263
     14 C                    -0.247286       0.094710
     15 O                    -0.492296       0.231847
     16 C                     0.491448       0.020844
     17 H                     0.183077       0.000336
     18 H                     0.170442      -0.000272
     19 H                     0.207782      -0.000799
     20 H                     0.217040      -0.002288
     21 H                     0.214196      -0.002312
     22 H                     0.177872      -0.002192
     23 H                     0.198678      -0.009328
     24 H                     0.198435      -0.010258
  --------------------------------------------------------
  Sum of atomic charges =    -1.000000

                    Cartesian Multipole Moments
 -----------------------------------------------------------------
    Charge (ESU x 10^10)
                -4.8032
    Dipole Moment (Debye)
         X       7.6628      Y       2.6807      Z       2.8577
       Tot       8.6064
    Quadrupole Moments (Debye-Ang)
        XX    -130.4528     XY      10.2933     YY     -97.3799
        XZ       1.3992     YZ       1.1461     ZZ    -104.6052

 Total job time:  50.33s(wall), 292.80s(cpu)
        *  Thank you very much for using Q-Chem.  Have a nice day.  *
