 Q-Chem 5.4, Q-Chem, Inc., Pleasanton, CA (2021)
 Q-Chem 5.4.0 for Intel X86 EM64T Linux

User input:
--------------------------------------------------------------
$molecule
0 1
C                 -4.2271050000     -1.3039380000     -0.1775400000
C                 -3.9080960000     -1.7889130000     -1.4415640000
C                 -3.1023890000     -1.0366630000     -2.2999130000
C                 -3.7359830000     -0.0638090000      0.2398730000
C                 -2.9252240000      0.6907960000     -0.6235320000
C                 -2.6134660000      0.2004860000     -1.8932110000
C                 -4.1141050000      0.4468860000      1.5929330000
C                 -3.4657440000      1.7312820000      2.0431180000
C                 -2.6949090000      2.4432440000      1.1926310000
C                 -2.3927760000      2.0123090000     -0.1854280000
S                 -3.8792120000      2.4244470000      3.6226680000
C                 -3.6954950000      1.0447740000      4.7629890000
C                 -4.7492030000      0.7415120000      5.6226610000
C                 -2.4829480000      0.3578670000      4.8591470000
C                 -2.3144640000     -0.6654080000      5.7950410000
C                 -4.5780010000     -0.2597360000      6.5762180000
C                 -3.3773840000     -0.9592300000      6.6578790000
C                 -1.0193650000     -1.4378160000      5.8718340000
O                 -4.9250490000     -0.1331410000      2.2860860000
O                 -1.7040550000      2.7094410000     -0.9158430000
H                 -4.8569700000     -1.8683870000      0.4988250000
H                 -4.2891790000     -2.7519830000     -1.7615890000
H                 -2.8581880000     -1.4167840000     -3.2853270000
H                 -1.9893440000      0.8024200000     -2.5423370000
H                 -2.2412710000      3.3811630000      1.4936020000
H                 -5.6914850000      1.2677340000      5.5350240000
H                 -1.6607560000      0.6258170000      4.2044610000
H                 -5.3917160000     -0.5016860000      7.2507400000
H                 -3.2609260000     -1.7408510000      7.4017010000
H                 -0.2049300000     -0.9015740000      5.3804750000
H                 -1.1161980000     -2.4128350000      5.3824160000
H                 -0.7272610000     -1.6216110000      6.9088730000
$end
$rem
MAX_SCF_CYCLES=200
BASIS  =  6-311++G(d,p)
GUI  =  2
JOB_TYPE  =  SP
METHOD  =  B3LYP
SOLVENT_METHOD = PCM
$end
$pcm
theory = CPCM
$end
$solvent
dielectric 37.219
opticaldielectric 1.43
$end

--------------------------------------------------------------

             Standard Nuclear Orientation (Angstroms)
    I     Atom           X                Y                Z
 ----------------------------------------------------------------
    1      C      -4.2271050000    -1.3039380000    -0.1775400000
    2      C      -3.9080960000    -1.7889130000    -1.4415640000
    3      C      -3.1023890000    -1.0366630000    -2.2999130000
    4      C      -3.7359830000    -0.0638090000     0.2398730000
    5      C      -2.9252240000     0.6907960000    -0.6235320000
    6      C      -2.6134660000     0.2004860000    -1.8932110000
    7      C      -4.1141050000     0.4468860000     1.5929330000
    8      C      -3.4657440000     1.7312820000     2.0431180000
    9      C      -2.6949090000     2.4432440000     1.1926310000
   10      C      -2.3927760000     2.0123090000    -0.1854280000
   11      S      -3.8792120000     2.4244470000     3.6226680000
   12      C      -3.6954950000     1.0447740000     4.7629890000
   13      C      -4.7492030000     0.7415120000     5.6226610000
   14      C      -2.4829480000     0.3578670000     4.8591470000
   15      C      -2.3144640000    -0.6654080000     5.7950410000
   16      C      -4.5780010000    -0.2597360000     6.5762180000
   17      C      -3.3773840000    -0.9592300000     6.6578790000
   18      C      -1.0193650000    -1.4378160000     5.8718340000
   19      O      -4.9250490000    -0.1331410000     2.2860860000
   20      O      -1.7040550000     2.7094410000    -0.9158430000
   21      H      -4.8569700000    -1.8683870000     0.4988250000
   22      H      -4.2891790000    -2.7519830000    -1.7615890000
   23      H      -2.8581880000    -1.4167840000    -3.2853270000
   24      H      -1.9893440000     0.8024200000    -2.5423370000
   25      H      -2.2412710000     3.3811630000     1.4936020000
   26      H      -5.6914850000     1.2677340000     5.5350240000
   27      H      -1.6607560000     0.6258170000     4.2044610000
   28      H      -5.3917160000    -0.5016860000     7.2507400000
   29      H      -3.2609260000    -1.7408510000     7.4017010000
   30      H      -0.2049300000    -0.9015740000     5.3804750000
   31      H      -1.1161980000    -2.4128350000     5.3824160000
   32      H      -0.7272610000    -1.6216110000     6.9088730000
 ----------------------------------------------------------------

    9   -1203.9198436951      2.44e-06  Convergence criterion met
 Total energy in the final basis set =    -1203.9198436951

                    Orbital Energies (a.u.)
 --------------------------------------------------------------

 Alpha MOs
 -- Occupied --
-88.8754 -19.1421 -19.1370 -10.2946 -10.2860 -10.2465 -10.2174 -10.2119
-10.2110 -10.2091 -10.1989 -10.1983 -10.1978 -10.1973 -10.1933 -10.1836
-10.1833 -10.1826 -10.1788 -10.1659  -7.9613  -5.9251  -5.9213  -5.9155
 -1.0784  -1.0690  -0.8934  -0.8798  -0.8559  -0.8053  -0.7816  -0.7799
 -0.7689  -0.7270  -0.6955  -0.6895  -0.6512  -0.6356  -0.6095  -0.5951
 -0.5800  -0.5484  -0.5324  -0.5179  -0.5018  -0.4835  -0.4768  -0.4681
 -0.4633  -0.4563  -0.4520  -0.4488  -0.4345  -0.4297  -0.4261  -0.4221
 -0.4190  -0.3947  -0.3896  -0.3839  -0.3793  -0.3712  -0.3670  -0.3531
 -0.3485  -0.3211  -0.2959  -0.2895  -0.2838  -0.2801  -0.2724  -0.2584
 -0.2398

          Ground-State Mulliken Net Atomic Charges

     Atom                 Charge (a.u.)
  ----------------------------------------
      1 C                     0.155751
      2 C                    -0.368076
      3 C                    -0.409301
      4 C                     0.074705
      5 C                     0.532987
      6 C                     0.132531
      7 C                    -0.919931
      8 C                     0.821709
      9 C                     0.011521
     10 C                    -0.513352
     11 S                    -0.445072
     12 C                     0.656038
     13 C                     0.016357
     14 C                    -0.804266
     15 C                     0.269116
     16 C                    -0.348512
     17 C                    -0.321494
     18 C                    -0.579183
     19 O                    -0.211691
     20 O                    -0.308078
     21 H                     0.215433
     22 H                     0.224606
     23 H                     0.227117
     24 H                     0.200328
     25 H                     0.277642
     26 H                     0.220685
     27 H                     0.257567
     28 H                     0.215561
     29 H                     0.200725
     30 H                     0.169580
     31 H                     0.190966
     32 H                     0.158030
  ----------------------------------------
  Sum of atomic charges =     0.000000

                    Cartesian Multipole Moments
 -----------------------------------------------------------------
    Charge (ESU x 10^10)
                -0.0000
    Dipole Moment (Debye)
         X       0.7356      Y      -4.3670      Z       0.0969
       Tot       4.4296
    Quadrupole Moments (Debye-Ang)
        XX    -130.1855     XY       9.0132     YY    -125.7748
        XZ       7.9442     YZ      -0.0691     ZZ    -106.1364

 Total job time:  68.20s(wall), 490.17s(cpu)
        *  Thank you very much for using Q-Chem.  Have a nice day.  *
