 Q-Chem 5.4, Q-Chem, Inc., Pleasanton, CA (2021)
 Q-Chem 5.4.0 for Intel X86 EM64T Linux

User input:
--------------------------------------------------------------
$molecule
-1 2
C                  0.5292760000      1.9000900000     -1.3327470000
C                 -0.5607560000      1.3488050000     -1.9802670000
C                 -0.6581690000     -0.0488750000     -2.1332210000
C                  1.5553570000      1.0790690000     -0.8172520000
C                  1.4587120000     -0.3337000000     -0.9711280000
C                  0.3404570000     -0.8690480000     -1.6336980000
C                  2.6963610000      1.6579260000     -0.1390850000
C                  3.6939570000      0.7373500000      0.3539670000
C                  3.6266530000     -0.6341720000      0.2293880000
C                  2.5042830000     -1.2409900000     -0.4523100000
O                  2.8829340000      2.9040470000      0.0530500000
O                  2.4130020000     -2.4879530000     -0.5982750000
O                  4.7411100000      1.3512250000      0.9782740000
H                  0.6264790000      2.9720800000     -1.2030880000
H                 -1.3428910000      1.9926070000     -2.3721420000
H                 -1.5145510000     -0.4807860000     -2.6423550000
H                  0.2920000000     -1.9470320000     -1.7382410000
H                  4.4894630000      2.2991180000      0.9099160000
C                  4.7094720000     -1.5289630000      0.7741660000
C                  5.7764620000     -1.8754010000     -0.2841920000
C                  6.8197310000     -2.9165210000      0.1864830000
C                  7.7079290000     -3.3647470000     -0.9630810000
C                  8.6144660000     -2.4877120000     -1.5757290000
C                  7.6337470000     -4.6708050000     -1.4594930000
C                  9.4224660000     -2.8986160000     -2.6327220000
C                  9.3331520000     -4.2085900000     -3.0923470000
C                  8.4366750000     -5.0990040000     -2.5168570000
H                  4.2433330000     -2.4607060000      1.1116520000
H                  5.1782620000     -1.0427870000      1.6333390000
H                  6.2886230000     -0.9569860000     -0.5947870000
H                  5.2646290000     -2.2700680000     -1.1663310000
H                  6.2616760000     -3.8002900000      0.5191250000
C                  7.6568890000     -2.4204650000      1.3811500000
H                  8.6847080000     -1.4620570000     -1.2313560000
H                  6.9262490000     -5.3647630000     -1.0174220000
H                  8.3663290000     -6.1103620000     -2.9005250000
O                 10.0918340000     -4.6104550000     -4.1945260000
C                 11.3615790000     -5.0936610000     -4.0070250000
C                 11.9589890000     -5.2586590000     -2.7555430000
C                 12.0619000000     -5.4345460000     -5.1693400000
C                 13.3540160000     -5.9373360000     -5.0760180000
C                 13.2573250000     -5.7644280000     -2.6793390000
C                 13.9626210000     -6.1063300000     -3.8302360000
H                 10.1134140000     -2.2115980000     -3.1079000000
H                  7.0189960000     -2.2131450000      2.2426050000
H                  8.1888360000     -1.4955990000      1.1374770000
H                  8.3985320000     -3.1679910000      1.6795580000
H                 11.4177310000     -4.9955190000     -1.8563990000
H                 11.5757980000     -5.2968510000     -6.1278150000
H                 13.8895340000     -6.1984100000     -5.9825170000
H                 13.7159480000     -5.8898620000     -1.7043490000
H                 14.9707950000     -6.4979820000     -3.7603850000
$end
$rem
MAX_SCF_CYCLES=200
BASIS  =  6-311++G(d,p)
GUI  =  2
JOB_TYPE  =  SP
THRESH = 14
SCF_CONVERGENCE  = 8
METHOD  =  B3LYP
SOLVENT_METHOD = COSMO
$end
$solvent
dielectric 37.219
opticaldielectric 1.43
$end

--------------------------------------------------------------

             Standard Nuclear Orientation (Angstroms)
    I     Atom           X                Y                Z
 ----------------------------------------------------------------
    1      C       6.8366305129     0.9633459993    -1.2800600365
    2      C       7.3339893523     2.1593873687    -0.7968558456
    3      C       6.6996235051     2.8017433379     0.2854344952
    4      C       5.6939985132     0.3692069181    -0.7020949325
    5      C       5.0514235569     1.0171067451     0.3916406693
    6      C       5.5767715130     2.2324664877     0.8638704354
    7      C       5.1743412193    -0.8836777895    -1.2091572962
    8      C       4.0019540165    -1.4131525782    -0.5527101008
    9      C       3.3616264079    -0.8163174087     0.5126023822
   10      C       3.8511618331     0.4409918014     1.0343142593
   11      O       5.6690471511    -1.5458427851    -2.1793873972
   12      O       3.2866576714     1.0239178949     1.9966483731
   13      O       3.5657239339    -2.5925247284    -1.0836675358
   14      H       7.3071386256     0.4506898879    -2.1114614239
   15      H       8.2139670165     2.6053056145    -1.2513648307
   16      H       7.0908634393     3.7413483272     0.6638898425
   17      H       5.0682002168     2.7052137625     1.6964520078
   18      H       4.2230430919    -2.7478138329    -1.7980322793
   19      C       2.1421794125    -1.4343719728     1.1457600016
   20      C       0.8279637977    -0.8877238999     0.5519403269
   21      C      -0.4467890440    -1.3772753867     1.2794157911
   22      C      -1.6814484504    -0.6431771968     0.7814041224
   23      C      -2.1606241391    -0.8147920256    -0.5252237150
   24      C      -2.3711116253     0.2460378194     1.6128947732
   25      C      -3.2879628490    -0.1365063208    -0.9812678304
   26      C      -3.9581916122     0.7296932220    -0.1235057602
   27      C      -3.5026901452     0.9326541123     1.1722651044
   28      H       2.1597292779    -1.2024378799     2.2159123105
   29      H       2.1854311586    -2.5195163265     1.0236926872
   30      H       0.7714873220    -1.1574076740    -0.5093538481
   31      H       0.8601177667     0.2041776915     0.6031390874
   32      H      -0.3296633705    -1.1181081545     2.3387729787
   33      C      -0.6302214856    -2.9047358051     1.1936747715
   34      H      -1.6397514930    -1.4801415477    -1.2045591114
   35      H      -2.0101998705     0.4133972980     2.6224943992
   36      H      -4.0257078138     1.6261409498     1.8207427236
   37      O      -5.0501989740     1.4639203615    -0.5928913508
   38      C      -6.3101349108     0.9259972311    -0.5288822141
   39      C      -6.6003981874    -0.3228727898     0.0246529208
   40      C      -7.3374079381     1.7150105877    -1.0578399590
   41      C      -8.6477408715     1.2530332347    -1.0318579226
   42      C      -7.9214211074    -0.7721655024     0.0425471363
   43      C      -8.9507044159     0.0054923877    -0.4815973159
   44      H      -3.6460726999    -0.2666868889    -1.9961606115
   45      H       0.2090882762    -3.4232625888     1.6613101821
   46      H      -0.6845493299    -3.2411537362     0.1536782712
   47      H      -1.5484978396    -3.2199235816     1.6989489523
   48      H      -5.8064114591    -0.9332608359     0.4341334740
   49      H      -7.0855517454     2.6798965778    -1.4815059563
   50      H      -9.4376121391     1.8713455951    -1.4447414466
   51      H      -8.1403188080    -1.7432578507     0.4735200963
   52      H      -9.9734690329    -0.3527022102    -0.4633097841
 ----------------------------------------------------------------

   21   -1305.3455006135      9.18e-09  Convergence criterion met
 Total energy in the final basis set =    -1305.3455006135
   12   -1305.4306993773      6.70e-09  Convergence criterion met
 Total energy in the final basis set =    -1305.4306993773

                    Orbital Energies (a.u.)
 --------------------------------------------------------------

 Alpha MOs
 -- Occupied --
-19.1692 -19.1447 -19.0892 -19.0775 -10.2445 -10.2368 -10.2260 -10.2238
-10.2230 -10.1828 -10.1802 -10.1802 -10.1799 -10.1797 -10.1778 -10.1776
-10.1773 -10.1760 -10.1758 -10.1753 -10.1738 -10.1723 -10.1720 -10.1714
-10.1711 -10.1697 -10.1642 -10.1596 -10.1586 -10.1538  -1.0875  -1.0648
 -1.0032  -0.9994  -0.8721  -0.8596  -0.8580  -0.8176  -0.8018  -0.7686
 -0.7561  -0.7556  -0.7528  -0.7510  -0.7255  -0.7069  -0.6742  -0.6526
 -0.6351  -0.6235  -0.6176  -0.6154  -0.5978  -0.5823  -0.5705  -0.5611
 -0.5529  -0.5377  -0.5088  -0.5052  -0.4913  -0.4870  -0.4811  -0.4745
 -0.4636  -0.4532  -0.4499  -0.4461  -0.4404  -0.4376  -0.4294  -0.4276
 -0.4270  -0.4234  -0.4196  -0.4158  -0.4103  -0.4042  -0.3959  -0.3916
 -0.3891  -0.3827  -0.3768  -0.3700  -0.3697  -0.3648  -0.3606  -0.3517
 -0.3473  -0.3450  -0.3429  -0.3383  -0.3354  -0.3272  -0.3228  -0.3169
 -0.2694  -0.2671  -0.2635  -0.2619  -0.2589  -0.2484  -0.2423  -0.2357
 -0.2284  -0.1537

 Beta MOs
 -- Occupied --
-19.1692 -19.1442 -19.0831 -19.0723 -10.2445 -10.2368 -10.2245 -10.2221
-10.2207 -10.1828 -10.1802 -10.1802 -10.1799 -10.1797 -10.1778 -10.1776
-10.1773 -10.1758 -10.1758 -10.1753 -10.1727 -10.1723 -10.1720 -10.1706
-10.1705 -10.1699 -10.1634 -10.1595 -10.1587 -10.1538  -1.0875  -1.0625
 -0.9941  -0.9890  -0.8721  -0.8581  -0.8572  -0.8161  -0.7996  -0.7675
 -0.7560  -0.7553  -0.7516  -0.7492  -0.7250  -0.7056  -0.6670  -0.6512
 -0.6341  -0.6235  -0.6169  -0.6143  -0.5963  -0.5814  -0.5682  -0.5608
 -0.5528  -0.5359  -0.5083  -0.5034  -0.4910  -0.4847  -0.4811  -0.4739
 -0.4621  -0.4524  -0.4498  -0.4461  -0.4385  -0.4311  -0.4290  -0.4271
 -0.4256  -0.4198  -0.4146  -0.4144  -0.4094  -0.4027  -0.3949  -0.3881
 -0.3813  -0.3792  -0.3752  -0.3700  -0.3655  -0.3633  -0.3566  -0.3470
 -0.3460  -0.3427  -0.3372  -0.3353  -0.3302  -0.3257  -0.3220  -0.3165
 -0.2671  -0.2619  -0.2582  -0.2522  -0.2499  -0.2477  -0.2377  -0.2357
 -0.2201

          Ground-State Mulliken Net Atomic Charges

     Atom                 Charge (a.u.)    Spin (a.u.)
  --------------------------------------------------------
      1 C                     0.032954       0.076374
      2 C                    -0.432815      -0.000476
      3 C                    -0.499659       0.071402
      4 C                     0.262265      -0.013067
      5 C                     0.159081       0.062945
      6 C                     0.070316       0.003335
      7 C                    -0.838747       0.183175
      8 C                    -0.730368       0.055274
      9 C                     2.081051       0.043315
     10 C                    -0.795378       0.086668
     11 O                    -0.552657       0.222232
     12 O                    -0.479324       0.191560
     13 O                    -0.281717       0.016848
     14 H                     0.184383      -0.004027
     15 H                     0.202762      -0.000599
     16 H                     0.200787      -0.005034
     17 H                     0.181416      -0.000255
     18 H                     0.304563      -0.003380
     19 C                    -0.275186       0.010387
     20 C                    -1.042275      -0.000857
     21 C                     0.191603       0.005646
     22 C                     0.735884      -0.003254
     23 C                    -0.329773      -0.001337
     24 C                    -0.257933       0.000845
     25 C                    -0.053359       0.000693
     26 C                    -0.362739       0.000448
     27 C                    -0.085581      -0.000007
     28 H                     0.190263       0.002813
     29 H                     0.259643      -0.001081
     30 H                     0.181422       0.003149
     31 H                     0.201562      -0.002065
     32 H                     0.211973       0.000274
     33 C                    -0.764490      -0.001985
     34 H                     0.207384      -0.000079
     35 H                     0.199581      -0.000043
     36 H                     0.232243       0.000004
     37 O                    -0.073489       0.000003
     38 C                    -0.227658      -0.000070
     39 C                     0.094903       0.000022
     40 C                    -0.271778       0.000027
     41 C                    -0.234614       0.000004
     42 C                    -0.174057       0.000013
     43 C                    -0.362140       0.000007
     44 H                     0.224009      -0.000027
     45 H                     0.145596      -0.000067
     46 H                     0.171716       0.000028
     47 H                     0.160153       0.000207
     48 H                     0.191668       0.000016
     49 H                     0.206860      -0.000000
     50 H                     0.216370      -0.000000
     51 H                     0.234794      -0.000001
     52 H                     0.188536       0.000000
  --------------------------------------------------------
  Sum of atomic charges =    -1.000000

                    Cartesian Multipole Moments
 -----------------------------------------------------------------
    Charge (ESU x 10^10)
                -4.8032
    Dipole Moment (Debye)
         X     -19.0601      Y      -0.0019      Z       0.8308
       Tot      19.0782
    Quadrupole Moments (Debye-Ang)
        XX    -273.4282     XY      19.2029     YY    -187.1058
        XZ       8.3722     YZ     -11.2321     ZZ    -196.0855

 Total job time:  1110.86s(wall), 8385.07s(cpu)
        *  Thank you very much for using Q-Chem.  Have a nice day.  *
