 Gaussian 16, Revision A.03,
 Gaussian 16:  ES64L-G16RevA.03 25-Dec-2016

 ----------------------------------------------------------------
 #P UB3LYP/6-311++G(d,p) SCRF=(PCM,Solvent=n,n-DiMethylFormamide)
 ----------------------------------------------------------------

 ------------------
 Radical PCM in DMF
 ------------------
 Symbolic Z-matrix:
 Charge = -1 Multiplicity = 2

                         Standard orientation:
 ---------------------------------------------------------------------
 Center     Atomic      Atomic             Coordinates (Angstroms)
 Number     Number       Type             X           Y           Z
 ---------------------------------------------------------------------
      1          6           0        0.895561   -1.430242    0.100794
      2          6           0       -0.382711   -0.691408    0.071331
      3          6           0       -0.382713    0.691027   -0.071989
      4          6           0        0.895559    1.429868   -0.101415
      5          6           0        2.139254    0.684836   -0.045553
      6          6           0        2.139245   -0.685171    0.045192
      7          6           0        3.427100   -1.470814    0.095436
      8          6           0        3.427045    1.470568   -0.095457
      9          8           0        0.918253   -2.697748    0.173667
     10          8           0        0.918188    2.697352   -0.174475
     11          1           0        4.062437   -1.152274    0.931488
     12          1           0        4.020186   -1.333540   -0.818280
     13          1           0        3.201528   -2.531145    0.206543
     14          1           0        3.201400    2.530751   -0.207908
     15          1           0        4.063284    1.151113   -0.930461
     16          1           0        4.019238    1.334530    0.819050
     17          6           0       -1.572864    1.651720   -0.201236
     18          6           0       -2.696651    1.284497   -1.183872
     19          6           0       -2.113903    2.132174    1.162603
     20          6           0       -1.573098   -1.651853    0.200523
     21          6           0       -2.117140   -2.129740   -1.162969
     22          6           0       -2.694230   -1.285537    1.186541
     23          1           0       -1.103725    2.542578   -0.624747
     24          1           0       -3.324696    2.167961   -1.354911
     25          1           0       -3.354195    0.485606   -0.841038
     26          1           0       -2.281606    0.983273   -2.150088
     27          1           0       -2.849761    2.934148    1.018199
     28          1           0       -1.293293    2.537725    1.759387
     29          1           0       -2.592802    1.337102    1.736824
     30          1           0       -1.103557   -2.543683    0.621520
     31          1           0       -2.853019   -2.931654   -1.018332
     32          1           0       -1.297905   -2.534717   -1.762057
     33          1           0       -2.596796   -1.333661   -1.735052
     34          1           0       -3.323006   -2.168554    1.357250
     35          1           0       -3.351602   -0.485021    0.847144
     36          1           0       -2.276362   -0.986921    2.152365
 ---------------------------------------------------------------------

 SCF Done:  E(UB3LYP) =  -696.297686529     A.U. after   16 cycles

 The electronic state is 2-A.
 Alpha  occ. eigenvalues --  -19.06356 -19.06355 -10.20576 -10.20574 -10.16035
 Alpha  occ. eigenvalues --  -10.15980 -10.15787 -10.15784 -10.15572 -10.15509
 Alpha  occ. eigenvalues --  -10.14783 -10.14783 -10.14731 -10.14730 -10.14640
 Alpha  occ. eigenvalues --  -10.14639  -0.98830  -0.98569  -0.82119  -0.79728
 Alpha  occ. eigenvalues --   -0.77513  -0.73379  -0.71491  -0.67759  -0.67186
 Alpha  occ. eigenvalues --   -0.65499  -0.65173  -0.59120  -0.57256  -0.53203
 Alpha  occ. eigenvalues --   -0.50923  -0.48854  -0.45334  -0.43385  -0.42990
 Alpha  occ. eigenvalues --   -0.42777  -0.42582  -0.41529  -0.40581  -0.40162
 Alpha  occ. eigenvalues --   -0.39753  -0.39001  -0.38228  -0.38107  -0.37771
 Alpha  occ. eigenvalues --   -0.36818  -0.36734  -0.35818  -0.35452  -0.34917
 Alpha  occ. eigenvalues --   -0.33199  -0.33170  -0.32832  -0.31638  -0.30460
 Alpha  occ. eigenvalues --   -0.29986  -0.25928  -0.23608  -0.22464  -0.21699
 Alpha  occ. eigenvalues --   -0.14670
 Alpha virt. eigenvalues --   -0.00649   0.00327   0.00620   0.00955   0.01495
 Alpha virt. eigenvalues --    0.02338   0.02643   0.03051   0.03142   0.03604
 Alpha virt. eigenvalues --    0.04305   0.04676   0.04700   0.05327   0.05365

  Beta  occ. eigenvalues --  -19.05703 -19.05702 -10.20397 -10.20396 -10.15932
  Beta  occ. eigenvalues --  -10.15877 -10.15796 -10.15793 -10.15472 -10.15408
  Beta  occ. eigenvalues --  -10.14792 -10.14791 -10.14727 -10.14727 -10.14631
  Beta  occ. eigenvalues --  -10.14630  -0.97687  -0.97397  -0.81656  -0.79568
  Beta  occ. eigenvalues --   -0.77442  -0.73163  -0.71221  -0.67739  -0.67170
  Beta  occ. eigenvalues --   -0.65338  -0.64478  -0.58717  -0.57211  -0.52801
  Beta  occ. eigenvalues --   -0.50686  -0.48677  -0.45107  -0.43192  -0.42956
  Beta  occ. eigenvalues --   -0.42503  -0.42248  -0.41268  -0.40424  -0.40012
  Beta  occ. eigenvalues --   -0.39185  -0.38609  -0.38122  -0.38075  -0.37715
  Beta  occ. eigenvalues --   -0.36705  -0.35872  -0.35180  -0.34809  -0.33567
  Beta  occ. eigenvalues --   -0.33075  -0.32922  -0.32212  -0.31479  -0.30220
  Beta  occ. eigenvalues --   -0.29858  -0.23013  -0.23010  -0.21761  -0.21146
  Beta virt. eigenvalues --   -0.07587  -0.00623   0.00349   0.00970   0.01523
  Beta virt. eigenvalues --    0.01807   0.02345   0.02673   0.03068   0.03303
  Beta virt. eigenvalues --    0.03757   0.04675   0.04688   0.05125   0.05400

 Mulliken charges and spin densities:
               1          2
     1  C   -1.512291   0.074352
     2  C    0.810407   0.087152
     3  C    0.811009   0.087248
     4  C   -1.512172   0.074311
     5  C    0.831055   0.097316
     6  C    0.830845   0.097203
     7  C   -0.500376  -0.001698
     8  C   -0.500357  -0.001697
     9  O   -0.449503   0.237687
    10  O   -0.449452   0.237649
    11  H    0.144810   0.003149
    12  H    0.146539   0.003423
    13  H    0.182599  -0.001244
    14  H    0.182583  -0.001240
    15  H    0.144715   0.003143
    16  H    0.146638   0.003428
    17  C    0.139764  -0.008387
    18  C   -0.647950  -0.000538
    19  C   -0.693057   0.009810
    20  C    0.140852  -0.008307
    21  C   -0.692996   0.009754
    22  C   -0.648975  -0.000518
    23  H    0.214063  -0.000100
    24  H    0.152391  -0.000369
    25  H    0.120044  -0.000056
    26  H    0.139254   0.000258
    27  H    0.138351   0.000980
    28  H    0.166629  -0.001567
    29  H    0.117071  -0.000133
    30  H    0.214145  -0.000132
    31  H    0.138331   0.000971
    32  H    0.166476  -0.001554
    33  H    0.116908  -0.000131
    34  H    0.152328  -0.000368
    35  H    0.119983  -0.000053
    36  H    0.139339   0.000258
 Sum of Mulliken charges =  -1.00000   1.00000

 Dipole moment (field-independent basis, Debye):
    X=             -3.6478    Y=              0.0021    Z=              0.0017  Tot=              3.6478
 Quadrupole moment (field-independent basis, Debye-Ang):
   XX=           -108.5179   YY=           -142.4867   ZZ=           -105.3119
   XY=             -0.0004   XZ=              0.0041   YZ=              1.3885

 Normal termination of Gaussian 16 at Sun Jan 21 07:25:23 2024.
