 Gaussian 16, Revision A.03,
 Gaussian 16:  ES64L-G16RevA.03 25-Dec-2016

 --------------------------------------
 #P UB3LYP/6-311++G(d,p) nosym opt freq
 --------------------------------------

 -------
 Radical
 -------
 Symbolic Z-matrix:
 Charge = -1 Multiplicity = 2

 SCF Done:  E(UB3LYP) =  -696.224671490     A.U. after   20 cycles
 Optimization completed.
    -- Stationary point found.
 Normal termination of Gaussian 16 at Sat Jan  6 05:52:29 2024.

 ----------------------------------------------------------------------
 #P Geom=AllCheck Guess=TCheck SCRF=Check GenChk UB3LYP/6-311++G(d,p) F
 req
 ----------------------------------------------------------------------

 Structure from the checkpoint file:  "043-rad.chk"
 -------
 Radical
 -------
 Charge = -1 Multiplicity = 2

                          Input orientation:
 ---------------------------------------------------------------------
 Center     Atomic      Atomic             Coordinates (Angstroms)
 Number     Number       Type             X           Y           Z
 ---------------------------------------------------------------------
      1          6           0        0.802801    1.657470   -0.705646
      2          6           0       -0.524143    1.014516   -0.624693
      3          6           0       -0.651168   -0.246736   -0.054804
      4          6           0        0.551443   -0.982361    0.384872
      5          6           0        1.847869   -0.340812    0.272335
      6          6           0        1.967519    0.925654   -0.244291
      7          6           0        3.310178    1.605825   -0.358146
      8          6           0        3.053695   -1.114523    0.747336
      9          8           0        0.934615    2.831935   -1.170030
     10          8           0        0.464450   -2.158388    0.855784
     11          1           0        4.014966    1.011711   -0.953467
     12          1           0        3.775273    1.749376    0.626004
     13          1           0        3.184558    2.581003   -0.828015
     14          1           0        2.732712   -2.072774    1.155101
     15          1           0        3.607257   -0.565965    1.519823
     16          1           0        3.761362   -1.302454   -0.070839
     17          6           0       -1.920621   -1.070515    0.202048
     18          6           0       -3.122622   -0.365348    0.851090
     19          6           0       -2.328604   -1.945464   -1.002788
     20          6           0       -1.610120    1.924352   -1.215473
     21          6           0       -2.275922    2.836086   -0.162422
     22          6           0       -2.628852    1.300310   -2.183002
     23          1           0       -1.578462   -1.793412    0.945975
     24          1           0       -3.834849   -1.122967    1.201730
     25          1           0       -3.668277    0.303432    0.185417
     26          1           0       -2.805281    0.216329    1.721446
     27          1           0       -3.137812   -2.630699   -0.717942
     28          1           0       -1.476426   -2.551370   -1.320110
     29          1           0       -2.669734   -1.361445   -1.859389
     30          1           0       -1.023737    2.614961   -1.825623
     31          1           0       -2.922888    3.574526   -0.653995
     32          1           0       -1.505895    3.382762    0.387360
     33          1           0       -2.883047    2.285164    0.557977
     34          1           0       -3.160251    2.103162   -2.709559
     35          1           0       -3.383942    0.676539   -1.704564
     36          1           0       -2.121915    0.691040   -2.936929
 ---------------------------------------------------------------------

 SCF Done:  E(UB3LYP) =  -696.224671490     A.U. after    1 cycles

 Alpha  occ. eigenvalues --  -18.93171 -18.93170 -10.07669 -10.07668 -10.04441
 Alpha  occ. eigenvalues --  -10.04438 -10.04407 -10.04405 -10.03882 -10.03881
 Alpha  occ. eigenvalues --  -10.03677 -10.03622 -10.03249 -10.03249 -10.03100
 Alpha  occ. eigenvalues --  -10.03037  -0.85647  -0.85362  -0.69956  -0.67915
 Alpha  occ. eigenvalues --   -0.66398  -0.61708  -0.59515  -0.57165  -0.56564
 Alpha  occ. eigenvalues --   -0.53681  -0.53084  -0.47256  -0.45902  -0.40892
 Alpha  occ. eigenvalues --   -0.39289  -0.36744  -0.33691  -0.32140  -0.32102
 Alpha  occ. eigenvalues --   -0.31514  -0.30940  -0.29520  -0.29388  -0.29109
 Alpha  occ. eigenvalues --   -0.27688  -0.27285  -0.26789  -0.26750  -0.26032
 Alpha  occ. eigenvalues --   -0.25912  -0.24638  -0.23970  -0.23221  -0.22812
 Alpha  occ. eigenvalues --   -0.22177  -0.22017  -0.21086  -0.20153  -0.18749
 Alpha  occ. eigenvalues --   -0.18534  -0.13068  -0.10437  -0.10213  -0.08795
 Alpha  occ. eigenvalues --   -0.01629
 Alpha virt. eigenvalues --    0.08062   0.08993   0.09373   0.09933   0.11173
 Alpha virt. eigenvalues --    0.11189   0.11712   0.11962   0.12048   0.13188
 Alpha virt. eigenvalues --    0.13566   0.13758   0.13829   0.14557   0.14669

  Beta  occ. eigenvalues --  -18.92483 -18.92482 -10.07524 -10.07522 -10.04450
  Beta  occ. eigenvalues --  -10.04447 -10.04404 -10.04403 -10.03872 -10.03871
  Beta  occ. eigenvalues --  -10.03563 -10.03507 -10.03258 -10.03258 -10.02997
  Beta  occ. eigenvalues --  -10.02933  -0.84468  -0.84146  -0.69580  -0.67695
  Beta  occ. eigenvalues --   -0.66336  -0.61467  -0.59285  -0.57146  -0.56547
  Beta  occ. eigenvalues --   -0.53518  -0.52444  -0.46805  -0.45861  -0.40525
  Beta  occ. eigenvalues --   -0.39048  -0.36586  -0.33522  -0.32106  -0.32033
  Beta  occ. eigenvalues --   -0.31429  -0.30527  -0.29429  -0.29195  -0.28904
  Beta  occ. eigenvalues --   -0.27659  -0.27044  -0.26659  -0.26269  -0.25973
  Beta  occ. eigenvalues --   -0.25862  -0.23813  -0.23360  -0.23079  -0.22262
  Beta  occ. eigenvalues --   -0.21566  -0.21459  -0.19991  -0.19566  -0.18360
  Beta  occ. eigenvalues --   -0.18292  -0.09979  -0.09802  -0.09408  -0.08194
  Beta virt. eigenvalues --    0.05479   0.08062   0.08999   0.09373   0.09938
  Beta virt. eigenvalues --    0.11193   0.11265   0.11743   0.11980   0.12070
  Beta virt. eigenvalues --    0.13575   0.13739   0.13839   0.14321   0.14590

 Mulliken charges and spin densities:
               1          2
     1  C   -1.724127   0.046883
     2  C    0.974841   0.098242
     3  C    0.975252   0.098281
     4  C   -1.723561   0.046904
     5  C    0.972497   0.100309
     6  C    0.972349   0.100228
     7  C   -0.544184  -0.001425
     8  C   -0.544305  -0.001422
     9  O   -0.354980   0.252512
    10  O   -0.354957   0.252440
    11  H    0.114461   0.003180
    12  H    0.112626   0.003469
    13  H    0.199331  -0.001613
    14  H    0.199301  -0.001610
    15  H    0.114385   0.003172
    16  H    0.112709   0.003475
    17  C    0.146842  -0.009257
    18  C   -0.687209  -0.000965
    19  C   -0.698825   0.009679
    20  C    0.148555  -0.009170
    21  C   -0.699203   0.009619
    22  C   -0.688324  -0.000942
    23  H    0.238866  -0.000512
    24  H    0.123682  -0.000481
    25  H    0.104794  -0.000009
    26  H    0.133099   0.000326
    27  H    0.105147   0.001461
    28  H    0.180984  -0.001811
    29  H    0.101869   0.000043
    30  H    0.238933  -0.000549
    31  H    0.105133   0.001448
    32  H    0.180750  -0.001793
    33  H    0.101685   0.000046
    34  H    0.123641  -0.000478
    35  H    0.104738  -0.000005
    36  H    0.133206   0.000327
 Sum of Mulliken charges =  -1.00000   1.00000

 Dipole moment (field-independent basis, Debye):
    X=             -1.6835    Y=             -1.6790    Z=              0.9935  Tot=              2.5768
 Quadrupole moment (field-independent basis, Debye-Ang):
   XX=           -118.8104   YY=           -136.7851   ZZ=           -110.9726
   XY=             -2.7980   XZ=             -0.3133   YZ=             11.2844

  Exact polarizability: 228.018   3.611 216.950  10.507 -28.650 147.841
 Approx polarizability: 289.562  11.481 362.602   5.885 -62.151 232.391

                      1                      2                      3
                      A                      A                      A
 Frequencies --     44.3197                51.8636                56.6122
 Red. masses --      1.7008                 1.6405                 3.5057
 Frc consts  --      0.0020                 0.0026                 0.0066
 IR Inten    --      0.0007                 0.0093                 3.7394

                      4                      5                      6
                      A                      A                      A
 Frequencies --     88.8431               101.9784               130.6280
 Red. masses --      3.9279                 1.0481                 3.0365
 Frc consts  --      0.0183                 0.0064                 0.0305
 IR Inten    --      6.8373                 0.0765                 0.0000

                      7                      8                      9
                      A                      A                      A
 Frequencies --    139.6894               164.5163               181.1951
 Red. masses --      2.5690                 2.5051                 1.8114
 Frc consts  --      0.0295                 0.0399                 0.0350
 IR Inten    --      0.0361                 0.3476                 1.9300

                     10                     11                     12
                      A                      A                      A
 Frequencies --    191.6955               209.4395               235.7258
 Red. masses --      1.2887                 1.5514                 3.1323
 Frc consts  --      0.0279                 0.0401                 0.1025
 IR Inten    --      0.1165                 1.2104                 0.1883

                     13                     14                     15
                      A                      A                      A
 Frequencies --    240.8593               242.8087               257.4138
 Red. masses --      2.9176                 2.1924                 1.1639
 Frc consts  --      0.0997                 0.0762                 0.0454
 IR Inten    --      0.2070                 0.7969                 0.0075

                     16                     17                     18
                      A                      A                      A
 Frequencies --    258.3896               281.9968               288.7140
 Red. masses --      1.7567                 1.4643                 2.6265
 Frc consts  --      0.0691                 0.0686                 0.1290
 IR Inten    --      0.0508                 0.2862                 1.1753

                     19                     20                     21
                      A                      A                      A
 Frequencies --    321.3201               354.3642               428.5660
 Red. masses --      2.5804                 3.3404                 2.8963
 Frc consts  --      0.1570                 0.2471                 0.3134
 IR Inten    --      2.1500                 0.6951                 0.0959

                     22                     23                     24
                      A                      A                      A
 Frequencies --    438.6558               445.8354               450.9118
 Red. masses --      5.1561                 6.5278                 4.9222
 Frc consts  --      0.5846                 0.7645                 0.5897
 IR Inten    --      2.1899                17.3421                 0.3127

                     25                     26                     27
                      A                      A                      A
 Frequencies --    455.0149               495.2410               499.0686
 Red. masses --      3.6726                 3.9682                 4.5784
 Frc consts  --      0.4480                 0.5734                 0.6719
 IR Inten    --      7.1334                 2.0869                 0.0044

                     28                     29                     30
                      A                      A                      A
 Frequencies --    555.6000               591.5897               623.4041
 Red. masses --      3.2716                 4.0931                 4.7003
 Frc consts  --      0.5950                 0.8440                 1.0763
 IR Inten    --      0.0119                14.4996                 0.1104

                     31                     32                     33
                      A                      A                      A
 Frequencies --    717.4745               732.3378               776.2453
 Red. masses --      3.4909                 7.2324                 4.8212
 Frc consts  --      1.0588                 2.2854                 1.7116
 IR Inten    --      2.1565                 7.3353                 3.3090

                     34                     35                     36
                      A                      A                      A
 Frequencies --    799.7332               852.3917               907.1360
 Red. masses --      7.1980                 3.0535                 2.5617
 Frc consts  --      2.7124                 1.3071                 1.2420
 IR Inten    --      0.0403                 7.5865                22.9382

                     37                     38                     39
                      A                      A                      A
 Frequencies --    911.4041               923.5871               934.0472
 Red. masses --      2.2923                 1.2411                 1.2452
 Frc consts  --      1.1219                 0.6237                 0.6401
 IR Inten    --      0.2004                 1.1117                 1.9870

                     40                     41                     42
                      A                      A                      A
 Frequencies --    962.7905               965.0328               985.8987
 Red. masses --      1.4679                 1.4015                 2.3957
 Frc consts  --      0.8017                 0.7690                 1.3720
 IR Inten    --      0.1784                 0.5028                 3.3349

                     43                     44                     45
                      A                      A                      A
 Frequencies --    990.8775              1026.1091              1056.7576
 Red. masses --      1.5502                 1.4049                 1.5266
 Frc consts  --      0.8968                 0.8715                 1.0044
 IR Inten    --     21.4721                 0.0886                 0.1545

                     46                     47                     48
                      A                      A                      A
 Frequencies --   1068.9115              1100.5291              1111.0750
 Red. masses --      4.4350                 1.5590                 2.4701
 Frc consts  --      2.9856                 1.1125                 1.7966
 IR Inten    --      0.0310                 2.9697                18.0421

                     49                     50                     51
                      A                      A                      A
 Frequencies --   1124.5069              1132.8941              1144.7467
 Red. masses --      2.8090                 2.4739                 2.0648
 Frc consts  --      2.0928                 1.8708                 1.5942
 IR Inten    --     13.6487                 2.2929                11.9151

                     52                     53                     54
                      A                      A                      A
 Frequencies --   1188.9536              1192.4309              1211.4363
 Red. masses --      2.6558                 2.4152                 4.3422
 Frc consts  --      2.2120                 2.0234                 3.7546
 IR Inten    --     17.7976                 1.9299                46.3124

                     55                     56                     57
                      A                      A                      A
 Frequencies --   1249.1165              1358.9601              1375.4256
 Red. masses --      3.0309                 1.4613                 1.3337
 Frc consts  --      2.7863                 1.5900                 1.4865
 IR Inten    --     16.4031                17.4354                 0.3020

                     58                     59                     60
                      A                      A                      A
 Frequencies --   1378.6263              1381.3329              1382.0080
 Red. masses --      1.3017                 1.3500                 1.2418
 Frc consts  --      1.4577                 1.5177                 1.3974
 IR Inten    --     18.3913                 5.4997                25.7631

                     61                     62                     63
                      A                      A                      A
 Frequencies --   1384.4837              1386.9454              1393.9598
 Red. masses --      1.2630                 1.3283                 1.4796
 Frc consts  --      1.4263                 1.5054                 1.6940
 IR Inten    --      0.4324                 0.9356                23.5535

                     64                     65                     66
                      A                      A                      A
 Frequencies --   1398.2610              1412.1291              1431.2759
 Red. masses --      1.3116                 1.2138                 2.0253
 Frc consts  --      1.5108                 1.4261                 2.4445
 IR Inten    --     12.7664                 3.4978                63.2394

                     67                     68                     69
                      A                      A                      A
 Frequencies --   1475.7982              1482.3172              1482.9313
 Red. masses --      1.1177                 1.1153                 1.2126
 Frc consts  --      1.4342                 1.4439                 1.5712
 IR Inten    --      1.8864                16.1166                 2.3515

                     70                     71                     72
                      A                      A                      A
 Frequencies --   1488.8939              1492.0984              1492.4879
 Red. masses --      1.3598                 1.0515                 1.0497
 Frc consts  --      1.7760                 1.3793                 1.3776
 IR Inten    --      1.9932                 0.5140                 2.9704

                     73                     74                     75
                      A                      A                      A
 Frequencies --   1494.6893              1496.3055              1497.5676
 Red. masses --      1.1455                 1.8854                 1.1683
 Frc consts  --      1.5078                 2.4871                 1.5437
 IR Inten    --      0.2975                 6.9791                68.5741

                     76                     77                     78
                      A                      A                      A
 Frequencies --   1501.3520              1506.9293              1510.7685
 Red. masses --      2.8223                 1.0722                 1.0831
 Frc consts  --      3.7481                 1.4345                 1.4565
 IR Inten    --    270.0992                23.5413                 0.6326

                     79                     80                     81
                      A                      A                      A
 Frequencies --   1512.9350              1520.9646              1525.0704
 Red. masses --      1.0619                 1.0989                 4.6319
 Frc consts  --      1.4320                 1.4977                 6.3473
 IR Inten    --      3.5183                 2.5400                42.8276

                     82                     83                     84
                      A                      A                      A
 Frequencies --   1623.5077              2986.3254              2988.0127
 Red. masses --      8.5309                 1.0427                 1.0417
 Frc consts  --     13.2481                 5.4787                 5.4797
 IR Inten    --      4.0478                11.3369               231.6386

                     85                     86                     87
                      A                      A                      A
 Frequencies --   2995.4525              2995.6686              3002.7974
 Red. masses --      1.0502                 1.0493                 1.0482
 Frc consts  --      5.5518                 5.5482                 5.5685
 IR Inten    --     93.7616                14.7382               102.3224

                     88                     89                     90
                      A                      A                      A
 Frequencies --   3005.2699              3017.6420              3020.4477
 Red. masses --      1.0506                 1.0982                 1.0979
 Frc consts  --      5.5907                 5.8922                 5.9014
 IR Inten    --    144.5506                93.3272                 2.5720

                     91                     92                     93
                      A                      A                      A
 Frequencies --   3040.5779              3043.9100              3060.2533
 Red. masses --      1.0814                 1.0805                 1.0902
 Frc consts  --      5.8906                 5.8983                 6.0157
 IR Inten    --      1.5186                39.5190                 6.7739

                     94                     95                     96
                      A                      A                      A
 Frequencies --   3062.0470              3072.9843              3073.3346
 Red. masses --      1.0906                 1.0846                 1.0856
 Frc consts  --      6.0248                 6.0346                 6.0412
 IR Inten    --     77.9790                48.5479                43.3420

                     97                     98                     99
                      A                      A                      A
 Frequencies --   3104.3969              3104.9089              3108.1509
 Red. masses --      1.0971                 1.1002                 1.0990
 Frc consts  --      6.2293                 6.2494                 6.2553
 IR Inten    --     54.9607                 3.0365                12.1024

                    100                    101                    102
                      A                      A                      A
 Frequencies --   3115.1602              3115.6092              3123.7436
 Red. masses --      1.0936                 1.0937                 1.0912
 Frc consts  --      6.2525                 6.2549                 6.2737
 IR Inten    --      2.1829                15.8909                26.6551

 - Thermochemistry -
 -------------------
 Temperature   298.150 Kelvin.  Pressure   1.00000 Atm.
 Atom     1 has atomic number  6 and mass  12.00000

 Molecular mass:   220.14633 amu.
 Principal axes and moments of inertia in atomic units:
                           1         2         3
     Eigenvalues --  2679.014483790.014905743.72455
           X            0.98944   0.08027  -0.12068
           Y           -0.03623   0.94318   0.33029
           Z            0.14033  -0.32243   0.93613
 This molecule is an asymmetric top.
 Rotational symmetry number  1.
 Warning -- assumption of classical behavior for rotation
           may cause significant error
 Rotational temperatures (Kelvin)      0.03233     0.02285     0.01508
 Rotational constants (GHZ):           0.67366     0.47618     0.31421
 Zero-point vibrational energy     803396.5 (Joules/Mol)
                                  192.01637 (Kcal/Mol)
 Warning -- explicit consideration of  29 degrees of freedom as
           vibrations may cause significant error
 Vibrational temperatures:     63.77    74.62    81.45   127.83   146.72
          (Kelvin)            187.94   200.98   236.70   260.70   275.81
                              301.34   339.16   346.54   349.35   370.36
                              371.77   405.73   415.40   462.31   509.85
                              616.61   631.13   641.46   648.76   654.67
                              712.54   718.05   799.38   851.17   896.94
                             1032.29  1053.67  1116.84  1150.64  1226.40
                             1305.17  1311.31  1328.84  1343.89  1385.24
                             1388.47  1418.49  1425.65  1476.34  1520.44
                             1537.93  1583.42  1598.59  1617.91  1629.98
                             1647.04  1710.64  1715.64  1742.99  1797.20
                             1955.24  1978.93  1983.54  1987.43  1988.40
                             1991.96  1995.51  2005.60  2011.79  2031.74
                             2059.29  2123.34  2132.72  2133.61  2142.19
                             2146.80  2147.36  2150.52  2152.85  2154.67
                             2160.11  2168.14  2173.66  2176.78  2188.33
                             2194.24  2335.87  4296.66  4299.08  4309.79
                             4310.10  4320.36  4323.91  4341.71  4345.75
                             4374.71  4379.51  4403.02  4405.60  4421.34
                             4421.84  4466.53  4467.27  4471.94  4482.02
                             4482.67  4494.37

 Zero-point correction=                           0.305998 (Hartree/Particle)
 Thermal correction to Energy=                    0.324094
 Thermal correction to Enthalpy=                  0.325038
 Thermal correction to Gibbs Free Energy=         0.260247
 Sum of electronic and zero-point Energies=           -695.918674
 Sum of electronic and thermal Energies=              -695.900578
 Sum of electronic and thermal Enthalpies=            -695.899634
 Sum of electronic and thermal Free Energies=         -695.964424

                     E (Thermal)             CV                S
                      KCal/Mol        Cal/Mol-Kelvin    Cal/Mol-Kelvin
 Total                  203.372             67.505            136.363
 Electronic               0.000              0.000              1.377
 Translational            0.889              2.981             42.070
 Rotational               0.889              2.981             32.433
 Vibrational            201.594             61.543             60.482
 Vibration     1          0.595              1.980              5.056
 Vibration     2          0.596              1.977              4.745
 Vibration     3          0.596              1.975              4.572
 Vibration     4          0.602              1.957              3.685
 Vibration     5          0.604              1.948              3.416
 Vibration     6          0.612              1.923              2.937
 Vibration     7          0.615              1.914              2.808
 Vibration     8          0.623              1.886              2.497
 Vibration     9          0.630              1.865              2.316
 Vibration    10          0.634              1.851              2.211
 Vibration    11          0.642              1.826              2.049
 Vibration    12          0.655              1.786              1.835
 Vibration    13          0.658              1.778              1.797
 Vibration    14          0.659              1.775              1.782
 Vibration    15          0.667              1.750              1.679
 Vibration    16          0.667              1.749              1.673
 Vibration    17          0.681              1.707              1.522
 Vibration    18          0.685              1.695              1.481
 Vibration    19          0.707              1.633              1.303
 Vibration    20          0.730              1.566              1.147
 Vibration    21          0.790              1.408              0.863
 Vibration    22          0.799              1.386              0.831
 Vibration    23          0.805              1.370              0.808
 Vibration    24          0.810              1.359              0.793
 Vibration    25          0.813              1.350              0.781
 Vibration    26          0.851              1.261              0.670
 Vibration    27          0.855              1.252              0.660
 Vibration    28          0.911              1.127              0.533
 Vibration    29          0.949              1.050              0.464

                           ! Non-Optimized Parameters !
 Normal termination of Gaussian 16 at Sat Jan  6 07:51:13 2024.
