 Q-Chem 5.4, Q-Chem, Inc., Pleasanton, CA (2021)
 Q-Chem 5.4.0 for Intel X86 EM64T Linux

User input:
--------------------------------------------------------------
$molecule
-2 1
C                 -0.4737080000      3.8986440000      0.3121090000
C                  0.5628580000      2.9742100000      0.3445600000
C                  0.3865790000      1.6646040000     -0.1656720000
C                 -0.8684600000      1.3296630000     -0.7035710000
C                  1.5132370000      0.7242230000     -0.1556390000
C                  1.5006820000     -0.7083450000      0.0967180000
C                  2.8428230000      1.0408130000     -0.3583370000
C                  2.8500980000     -1.1719450000      0.0579940000
C                  0.4876770000     -1.6334900000      0.3947480000
C                  0.8214100000     -2.9652490000      0.6193560000
C                  2.1594360000     -3.4026430000      0.5471750000
C                  3.1895600000     -2.5121960000      0.2698910000
N                  3.6476970000     -0.0866850000     -0.2031780000
H                 -1.0259430000      0.3475170000     -1.1425320000
H                  3.2870360000      1.9954280000     -0.5933470000
H                 -0.5416820000     -1.2995830000      0.4496570000
H                  0.0397760000     -3.6826220000      0.8534130000
H                  2.3940880000     -4.4494190000      0.7188270000
H                  4.2246830000     -2.8429400000      0.2329260000
H                  4.6453510000     -0.1195600000     -0.3507550000
C                 -1.7781470000      3.6207370000     -0.2272810000
C                 -1.9874080000      2.2231580000     -0.7770890000
O                 -2.6985090000      4.4858410000     -0.2406350000
O                 -3.0966730000      1.8787840000     -1.2805940000
H                 -0.3320100000      4.8953010000      0.7287870000
H                  1.5144790000      3.2424540000      0.7991690000
$end
$rem
MAX_SCF_CYCLES=200
BASIS  =  6-311++G(d,p)
GUI  =  2
JOB_TYPE  =  SP
METHOD  =  B3LYP
SOLVENT_METHOD = COSMO
$end
$solvent
dielectric 37.219
opticaldielectric 1.43
$end

--------------------------------------------------------------

             Standard Nuclear Orientation (Angstroms)
    I     Atom           X                Y                Z
 ----------------------------------------------------------------
    1      C       3.0794108890     1.2727550254    -0.6404624830
    2      C       1.7121289333     1.4951755412    -0.5347764957
    3      C       0.8551727023     0.5118235249     0.0176035231
    4      C       1.4303481407    -0.6948056933     0.4533360601
    5      C      -0.5786661906     0.7931037320     0.1545809286
    6      C      -1.7047760137    -0.1088803565    -0.0308756123
    7      C      -1.1451739706     2.0149601169     0.4632078047
    8      C      -2.9037285482     0.6435332904     0.1527941273
    9      C      -1.8166981683    -1.4648171377    -0.3770015413
   10      C      -3.0784784421    -2.0359561073    -0.5078423651
   11      C      -4.2468640408    -1.2772585150    -0.2931559872
   12      C      -4.1744781196     0.0709521528     0.0355171110
   13      N      -2.5365580378     1.9349149806     0.4350765967
   14      H       0.8087508265    -1.4542338862     0.9212933433
   15      H      -0.6608721899     2.9511243246     0.6931926934
   16      H      -0.9197909643    -2.0501473009    -0.5414244755
   17      H      -3.1679590567    -3.0842502367    -0.7788240032
   18      H      -5.2208882934    -1.7478333010    -0.3936651440
   19      H      -5.0742193166     0.6634956756     0.1824714641
   20      H      -3.1716501925     2.6814974848     0.6747550475
   21      C       3.7298004289     0.0637069336    -0.2104262804
   22      C       2.8289864743    -1.0023139611     0.3823972476
   23      O       4.9766897819    -0.1052116405    -0.3217048852
   24      O       3.3025269127    -2.1004298512     0.7977049917
   25      H       3.7242094656     2.0281572399    -1.0883758055
   26      H       1.2826879802     2.4210457913    -0.9123363742
 ----------------------------------------------------------------

   19    -744.2626393726      7.57e-06  Convergence criterion met
 Total energy in the final basis set =     -744.2626393726
    6    -744.5644778771      5.65e-06  Convergence criterion met
 Total energy in the final basis set =     -744.5644778771

                    Orbital Energies (a.u.)
 --------------------------------------------------------------

 Alpha MOs
 -- Occupied --
-19.0257 -19.0238 -14.3439 -10.1989 -10.1864 -10.1698 -10.1693 -10.1691
-10.1653 -10.1646 -10.1636 -10.1606 -10.1576 -10.1360 -10.1241 -10.1156
-10.1142  -0.9689  -0.9598  -0.9336  -0.8366  -0.8024  -0.7639  -0.7300
 -0.7148  -0.6846  -0.6504  -0.6160  -0.5865  -0.5726  -0.5455  -0.5324
 -0.5092  -0.4767  -0.4657  -0.4401  -0.4300  -0.4243  -0.4227  -0.4124
 -0.4052  -0.3862  -0.3698  -0.3672  -0.3629  -0.3535  -0.3448  -0.3350
 -0.3296  -0.3137  -0.2982  -0.2938  -0.2651  -0.2228  -0.2187  -0.2097
 -0.1847  -0.1795  -0.1205

          Ground-State Mulliken Net Atomic Charges

     Atom                 Charge (a.u.)
  ----------------------------------------
      1 C                     0.093672
      2 C                    -0.928402
      3 C                     0.949184
      4 C                    -0.775210
      5 C                     0.134405
      6 C                     1.299676
      7 C                    -0.236824
      8 C                     0.218359
      9 C                    -1.008988
     10 C                    -0.617681
     11 C                    -0.255528
     12 C                    -0.559621
     13 N                    -0.138142
     14 H                     0.131826
     15 H                     0.213109
     16 H                     0.155830
     17 H                     0.199366
     18 H                     0.196025
     19 H                     0.196355
     20 H                     0.355346
     21 C                    -0.410942
     22 C                    -0.004383
     23 O                    -0.730762
     24 O                    -0.749838
     25 H                     0.143734
     26 H                     0.129433
  ----------------------------------------
  Sum of atomic charges =    -2.000000

                    Cartesian Multipole Moments
 -----------------------------------------------------------------
    Charge (ESU x 10^10)
                -9.6064
    Dipole Moment (Debye)
         X     -33.4476      Y       9.4537      Z      -0.6713
       Tot      34.7644
    Quadrupole Moments (Debye-Ang)
        XX    -239.0946     XY      16.4231     YY    -114.7163
        XZ      -5.8306     YZ      10.5303     ZZ    -114.8637

 Total job time:  94.25s(wall), 709.50s(cpu)
        *  Thank you very much for using Q-Chem.  Have a nice day.  *
