 Gaussian 16, Revision A.03,
 Gaussian 16:  ES64L-G16RevA.03 25-Dec-2016

 --------------------------------------
 #P UB3LYP/6-311++G(d,p) nosym opt freq
 --------------------------------------

 -------
 Radical
 -------
 Symbolic Z-matrix:
 Charge = -2 Multiplicity = 2

 SCF Done:  E(UB3LYP) =  -1158.56911429     A.U. after   25 cycles
 SCF Done:  E(UB3LYP) =  -1158.60364353     A.U. after   18 cycles
 SCF Done:  E(UB3LYP) =  -1158.61236097     A.U. after   19 cycles
 SCF Done:  E(UB3LYP) =  -1158.61267855     A.U. after   18 cycles
 SCF Done:  E(UB3LYP) =  -1158.61269643     A.U. after   15 cycles
 SCF Done:  E(UB3LYP) =  -1158.61269754     A.U. after   14 cycles
 SCF Done:  E(UB3LYP) =  -1158.61269925     A.U. after   14 cycles
 SCF Done:  E(UB3LYP) =  -1158.61269961     A.U. after   13 cycles
 SCF Done:  E(UB3LYP) =  -1158.61269963     A.U. after   10 cycles
 Optimization completed.
    -- Stationary point found.
 Normal termination of Gaussian 16 at Sat Jan  6 02:14:37 2024.

 ----------------------------------------------------------------------
 #P Geom=AllCheck Guess=TCheck SCRF=Check GenChk UB3LYP/6-311++G(d,p) F
 req
 ----------------------------------------------------------------------

 Structure from the checkpoint file:  "326-rad.chk"
 -------
 Radical
 -------
 Charge = -2 Multiplicity = 2

                          Input orientation:
 ---------------------------------------------------------------------
 Center     Atomic      Atomic             Coordinates (Angstroms)
 Number     Number       Type             X           Y           Z
 ---------------------------------------------------------------------
      1          6           0       -1.837399    2.794477   -0.792834
      2          6           0       -2.920077    1.982620   -0.506997
      3          6           0       -2.698940    0.662856   -0.067103
      4          6           0       -0.510229    2.334362   -0.655171
      5          6           0       -0.284785    0.992255   -0.207803
      6          6           0       -1.407837    0.182447    0.077893
      7          6           0        0.590100    3.259799   -0.979521
      8          6           0        1.977027    2.739644   -0.822535
      9          6           0        2.121304    1.368892   -0.364483
     10          6           0        1.080206    0.534722   -0.071536
     11          8           0        0.359383    4.431281   -1.369676
     12          8           0        2.983749    3.451794   -1.074344
     13          1           0       -1.968387    3.815937   -1.133766
     14          1           0       -3.934241    2.359912   -0.620823
     15          1           0       -3.541046    0.014167    0.161037
     16          1           0       -1.240446   -0.831178    0.415826
     17          1           0        3.134495    0.999691   -0.253494
     18         16           0        1.455847   -1.171744    0.495889
     19          8           0        2.941126   -1.273556    0.510799
     20          8           0        0.809495   -2.074944   -0.503682
     21          8           0        0.840005   -1.284832    1.852591
 ---------------------------------------------------------------------

 SCF Done:  E(UB3LYP) =  -1158.61269963     A.U. after    1 cycles

 Alpha  occ. eigenvalues --  -88.78453 -18.84080 -18.83528 -18.82895 -18.82727
 Alpha  occ. eigenvalues --  -18.82727  -9.98224  -9.97738  -9.95835  -9.95591
 Alpha  occ. eigenvalues --   -9.95560  -9.95083  -9.94934  -9.94556  -9.94449
 Alpha  occ. eigenvalues --   -9.92475  -7.84300  -5.80572  -5.80554  -5.80490
 Alpha  occ. eigenvalues --   -0.84367  -0.77137  -0.74348  -0.70893  -0.70513
 Alpha  occ. eigenvalues --   -0.63678  -0.57768  -0.52951  -0.50176  -0.45784
 Alpha  occ. eigenvalues --   -0.39041  -0.37760  -0.35897  -0.31499  -0.27830
 Alpha  occ. eigenvalues --   -0.26812  -0.24506  -0.22273  -0.20971  -0.19920
 Alpha  occ. eigenvalues --   -0.19073  -0.18857  -0.18037  -0.17987  -0.16866
 Alpha  occ. eigenvalues --   -0.15158  -0.14042  -0.12511  -0.12024  -0.10889
 Alpha  occ. eigenvalues --   -0.08331  -0.06917  -0.06828  -0.03767  -0.03475
 Alpha  occ. eigenvalues --   -0.03140  -0.02726  -0.01455   0.00309   0.00886
 Alpha  occ. eigenvalues --    0.01729   0.07867
 Alpha virt. eigenvalues --    0.15302   0.17566   0.18977   0.19814   0.21598
 Alpha virt. eigenvalues --    0.21646   0.22792   0.24331   0.25114   0.25840
 Alpha virt. eigenvalues --    0.26094   0.26471   0.26949   0.26980   0.27559

  Beta  occ. eigenvalues --  -88.78456 -18.83438 -18.82897 -18.82850 -18.82705
  Beta  occ. eigenvalues --  -18.82704  -9.98078  -9.97632  -9.95823  -9.95500
  Beta  occ. eigenvalues --   -9.95460  -9.94910  -9.94907  -9.94595  -9.94392
  Beta  occ. eigenvalues --   -9.92461  -7.84303  -5.80574  -5.80557  -5.80498
  Beta  occ. eigenvalues --   -0.84349  -0.76023  -0.73112  -0.70882  -0.70465
  Beta  occ. eigenvalues --   -0.63472  -0.57409  -0.52719  -0.49992  -0.44988
  Beta  occ. eigenvalues --   -0.38879  -0.37492  -0.35545  -0.31365  -0.27682
  Beta  occ. eigenvalues --   -0.26521  -0.24356  -0.22127  -0.20838  -0.19863
  Beta  occ. eigenvalues --   -0.18889  -0.18666  -0.17861  -0.16698  -0.16345
  Beta  occ. eigenvalues --   -0.14820  -0.12679  -0.12335  -0.11849  -0.08804
  Beta  occ. eigenvalues --   -0.07053  -0.06795  -0.06438  -0.03625  -0.03030
  Beta  occ. eigenvalues --   -0.02615  -0.02321  -0.00859   0.00891   0.01487
  Beta  occ. eigenvalues --    0.02319
  Beta virt. eigenvalues --    0.14494   0.15291   0.17561   0.19650   0.19805
  Beta virt. eigenvalues --    0.21655   0.22787   0.22936   0.24359   0.25137
  Beta virt. eigenvalues --    0.26110   0.26493   0.26976   0.26988   0.27138

 Mulliken charges and spin densities:
               1          2
     1  C    0.103591   0.051834
     2  C   -0.429600   0.003014
     3  C   -0.885824   0.080133
     4  C    0.625036   0.039657
     5  C    1.109249   0.056094
     6  C   -0.560201  -0.018154
     7  C   -0.711469   0.100230
     8  C   -0.195708   0.125784
     9  C    0.180447  -0.019813
    10  C   -0.639432   0.089946
    11  O   -0.398966   0.244485
    12  O   -0.413694   0.248916
    13  H    0.130864  -0.004660
    14  H    0.089845  -0.001203
    15  H    0.103383  -0.005795
    16  H    0.137694   0.002566
    17  H    0.235361  -0.002808
    18  S    0.476325  -0.001792
    19  O   -0.265317   0.000039
    20  O   -0.345855   0.005764
    21  O   -0.345726   0.005763
 Sum of Mulliken charges =  -2.00000   1.00000

 Dipole moment (field-independent basis, Debye):
    X=            -11.6074    Y=             -9.0241    Z=              2.0092  Tot=             14.8392
 Quadrupole moment (field-independent basis, Debye-Ang):
   XX=           -150.3416   YY=           -191.5039   ZZ=           -123.1202
   XY=             -9.3729   XZ=              2.1838   YZ=             24.6667

  Exact polarizability: 241.471   7.578 203.140  -4.306 -34.089 113.303
 Approx polarizability: 398.213  36.352 319.763 -15.155 -53.051 180.979

                      1                      2                      3
                      A                      A                      A
 Frequencies --     45.5144                57.8604               100.6005
 Red. masses --     12.6970                10.6832                 6.3405
 Frc consts  --      0.0155                 0.0211                 0.0378
 IR Inten    --      2.3484                 0.8276                 0.7747

                      4                      5                      6
                      A                      A                      A
 Frequencies --    135.8907               147.4528               213.7647
 Red. masses --      5.7216                 9.2749                 5.2800
 Frc consts  --      0.0623                 0.1188                 0.1422
 IR Inten    --      3.3955                 5.4737                 0.2580

                      7                      8                      9
                      A                      A                      A
 Frequencies --    232.9043               258.1248               278.4920
 Red. masses --     13.4479                 9.0296                 9.3586
 Frc consts  --      0.4298                 0.3545                 0.4276
 IR Inten    --      1.5700                 3.5390                 0.0228

                     10                     11                     12
                      A                      A                      A
 Frequencies --    324.0277               364.7946               404.6638
 Red. masses --      9.1057                14.4947                 5.6382
 Frc consts  --      0.5633                 1.1365                 0.5440
 IR Inten    --      1.5487                 0.3959                 0.0208

                     13                     14                     15
                      A                      A                      A
 Frequencies --    427.3251               432.5094               480.6309
 Red. masses --      4.2864                 9.9230                 7.9896
 Frc consts  --      0.4612                 1.0937                 1.0874
 IR Inten    --      0.0332                12.6841                 4.0727

                     16                     17                     18
                      A                      A                      A
 Frequencies --    497.7679               507.1713               527.2880
 Red. masses --     15.6842                 9.6457                 4.2731
 Frc consts  --      2.2896                 1.4618                 0.7000
 IR Inten    --     17.6755                18.1184                12.6363

                     19                     20                     21
                      A                      A                      A
 Frequencies --    585.2241               614.1921               634.4042
 Red. masses --     10.8338                 4.8074                10.0778
 Frc consts  --      2.1861                 1.0685                 2.3897
 IR Inten    --     90.6894                 0.0820               119.7772

                     22                     23                     24
                      A                      A                      A
 Frequencies --    665.8025               706.2204               714.6777
 Red. masses --      6.5374                 3.1151                 6.6954
 Frc consts  --      1.7074                 0.9154                 2.0149
 IR Inten    --      6.3398                10.5896                 3.1626

                     25                     26                     27
                      A                      A                      A
 Frequencies --    742.2431               772.5073               777.3818
 Red. masses --      1.6299                 4.9603                 6.3854
 Frc consts  --      0.5291                 1.7441                 2.2736
 IR Inten    --     50.0870                 0.1423                 1.5278

                     28                     29                     30
                      A                      A                      A
 Frequencies --    835.7402               906.6278               915.6734
 Red. masses --      1.4911                 1.3461                 6.6164
 Frc consts  --      0.6136                 0.6519                 3.2685
 IR Inten    --      0.1329                15.4014                23.0625

                     31                     32                     33
                      A                      A                      A
 Frequencies --    939.7820               951.5564               980.4010
 Red. masses --      1.3063                 1.2984                10.6557
 Frc consts  --      0.6797                 0.6927                 6.0345
 IR Inten    --      0.1089                 2.1725               209.4482

                     34                     35                     36
                      A                      A                      A
 Frequencies --    988.3399              1047.7764              1117.7227
 Red. masses --      8.4538                 2.0998                 1.8620
 Frc consts  --      4.8654                 1.3582                 1.3706
 IR Inten    --     47.7742                29.8272                12.1163

                     37                     38                     39
                      A                      A                      A
 Frequencies --   1127.5182              1141.6353              1158.8224
 Red. masses --     18.6168                 5.9680                 1.8436
 Frc consts  --     13.9445                 4.5829                 1.4586
 IR Inten    --    321.1492               177.3034                61.2364

                     40                     41                     42
                      A                      A                      A
 Frequencies --   1185.7817              1212.9429              1241.1439
 Red. masses --      1.6253                 3.1821                 2.9211
 Frc consts  --      1.3465                 2.7584                 2.6512
 IR Inten    --     26.9229                27.0180                 5.9865

                     43                     44                     45
                      A                      A                      A
 Frequencies --   1287.6768              1336.2942              1372.3278
 Red. masses --      1.7664                 6.4245                 3.0458
 Frc consts  --      1.7257                 6.7592                 3.3796
 IR Inten    --      0.0614                13.7241                 7.6725

                     46                     47                     48
                      A                      A                      A
 Frequencies --   1443.3023              1485.2584              1506.9538
 Red. masses --      2.5092                 4.1804                 3.4110
 Frc consts  --      3.0796                 5.4333                 4.5639
 IR Inten    --     50.6078               199.4432               186.5814

                     49                     50                     51
                      A                      A                      A
 Frequencies --   1520.8758              1573.6572              1581.0901
 Red. masses --      7.0349                 6.9738                 7.7793
 Frc consts  --      9.5873                10.1752                11.4578
 IR Inten    --    297.7247               106.5244               142.4761

                     52                     53                     54
                      A                      A                      A
 Frequencies --   1618.9692              3108.0831              3134.4211
 Red. masses --      5.4558                 1.0840                 1.0917
 Frc consts  --      8.4254                 6.1698                 6.3191
 IR Inten    --     20.5013                36.4055                90.7488

                     55                     56                     57
                      A                      A                      A
 Frequencies --   3168.6109              3181.8914              3208.6786
 Red. masses --      1.0909                 1.0886                 1.0920
 Frc consts  --      6.4533                 6.4935                 6.6243
 IR Inten    --     28.2448                 3.6247                 4.3856

 - Thermochemistry -
 -------------------
 Temperature   298.150 Kelvin.  Pressure   1.00000 Atm.
 Atom     1 has atomic number  6 and mass  12.00000

 Molecular mass:   236.98577 amu.
 Principal axes and moments of inertia in atomic units:
                           1         2         3
     Eigenvalues --  2601.729184115.813086364.70570
           X           -0.35750   0.93383   0.01196
           Y            0.88678   0.33542   0.31798
           Z           -0.29293  -0.12429   0.94802
 This molecule is an asymmetric top.
 Rotational symmetry number  1.
 Warning -- assumption of classical behavior for rotation
           may cause significant error
 Rotational temperatures (Kelvin)      0.03329     0.02104     0.01361
 Rotational constants (GHZ):           0.69367     0.43849     0.28355
 Zero-point vibrational energy     346492.3 (Joules/Mol)
                                   82.81365 (Kcal/Mol)
 Warning -- explicit consideration of  20 degrees of freedom as
           vibrations may cause significant error
 Vibrational temperatures:     65.49    83.25   144.74   195.52   212.15
          (Kelvin)            307.56   335.10   371.38   400.69   466.20
                              524.86   582.22   614.83   622.28   691.52
                              716.18   729.71   758.65   842.01   883.69
                              912.77   957.94  1016.09  1028.26  1067.92
                             1111.47  1118.48  1202.44  1304.44  1317.45
                             1352.14  1369.08  1410.58  1422.00  1507.52
                             1608.15  1622.25  1642.56  1667.29  1706.08
                             1745.15  1785.73  1852.68  1922.63  1974.47
                             2076.59  2136.96  2168.17  2188.20  2264.14
                             2274.84  2329.34  4471.84  4509.73  4558.92
                             4578.03  4616.57

 Zero-point correction=                           0.131972 (Hartree/Particle)
 Thermal correction to Energy=                    0.144624
 Thermal correction to Enthalpy=                  0.145569
 Thermal correction to Gibbs Free Energy=         0.091438
 Sum of electronic and zero-point Energies=          -1158.480728
 Sum of electronic and thermal Energies=             -1158.468075
 Sum of electronic and thermal Enthalpies=           -1158.467131
 Sum of electronic and thermal Free Energies=        -1158.521262

                     E (Thermal)             CV                S
                      KCal/Mol        Cal/Mol-Kelvin    Cal/Mol-Kelvin
 Total                   90.753             48.882            113.928
 Electronic               0.000              0.000              1.377
 Translational            0.889              2.981             42.290
 Rotational               0.889              2.981             32.588
 Vibrational             88.976             42.921             37.672
 Vibration     1          0.595              1.979              5.003
 Vibration     2          0.596              1.974              4.529
 Vibration     3          0.604              1.949              3.443
 Vibration     4          0.614              1.917              2.861
 Vibration     5          0.617              1.905              2.705
 Vibration     6          0.644              1.820              2.011
 Vibration     7          0.654              1.791              1.856
 Vibration     8          0.667              1.749              1.674
 Vibration     9          0.679              1.713              1.543
 Vibration    10          0.709              1.627              1.290
 Vibration    11          0.738              1.545              1.102
 Vibration    12          0.770              1.460              0.946
 Vibration    13          0.789              1.411              0.867
 Vibration    14          0.793              1.399              0.850
 Vibration    15          0.837              1.293              0.708
 Vibration    16          0.853              1.255              0.664
 Vibration    17          0.862              1.234              0.640
 Vibration    18          0.882              1.190              0.593
 Vibration    19          0.942              1.063              0.476
 Vibration    20          0.974              1.002              0.426

 Optimization completed.
    -- Stationary point found.
 Normal termination of Gaussian 16 at Sat Jan  6 02:43:25 2024.
