 Gaussian 16, Revision A.03,
 Gaussian 16:  ES64L-G16RevA.03 25-Dec-2016

 ----------------------------------------------------------------
 #P UB3LYP/6-311++G(d,p) SCRF=(PCM,Solvent=n,n-DiMethylFormamide)
 ----------------------------------------------------------------

 ------------------
 Radical PCM in DMF
 ------------------
 Symbolic Z-matrix:
 Charge = -1 Multiplicity = 2

                         Standard orientation:
 ---------------------------------------------------------------------
 Center     Atomic      Atomic             Coordinates (Angstroms)
 Number     Number       Type             X           Y           Z
 ---------------------------------------------------------------------
      1          6           0        3.988376   -2.235973    0.000797
      2          8           0        2.614891   -1.931468    0.000499
      3          6           0        2.231970   -0.613970    0.000091
      4          6           0        3.164343    0.415470    0.000315
      5          6           0        2.763858    1.759989    0.000193
      6          6           0        1.422149    2.091671   -0.000083
      7          8           0        1.068664    3.395606   -0.000025
      8          6           0        0.430296    1.057011   -0.000308
      9          6           0       -0.963729    1.452910   -0.000326
     10          8           0       -1.311784    2.689439   -0.000364
     11          6           0       -1.968822    0.411358   -0.000057
     12          6           0       -3.341343    0.753178    0.000326
     13          6           0       -4.313965   -0.225286    0.000748
     14          6           0       -3.943169   -1.587520    0.000750
     15          6           0       -2.606251   -1.937242    0.000249
     16          6           0       -1.594321   -0.955599   -0.000180
     17          6           0       -0.183562   -1.390864   -0.000890
     18          8           0        0.081242   -2.610489   -0.001852
     19          6           0        0.832854   -0.325650   -0.000334
     20          1           0        4.048515   -3.325253    0.001116
     21          1           0        4.499642   -1.848907   -0.891788
     22          1           0        4.499296   -1.848385    0.893356
     23          1           0        4.223030    0.194343    0.000599
     24          1           0        3.498555    2.557279    0.000454
     25          1           0        0.055108    3.384392   -0.000140
     26          1           0       -3.596455    1.806150    0.000287
     27          1           0       -5.364321    0.051010    0.001060
     28          1           0       -4.708297   -2.358150    0.001112
     29          1           0       -2.291288   -2.974084    0.000130
 ---------------------------------------------------------------------

 SCF Done:  E(UB3LYP) =  -878.902373434     A.U. after   20 cycles

 The electronic state is 2-A.
 Alpha  occ. eigenvalues --  -19.14746 -19.12475 -19.08847 -19.07386 -10.23258
 Alpha  occ. eigenvalues --  -10.23051 -10.23012 -10.22862 -10.21595 -10.18066
 Alpha  occ. eigenvalues --  -10.17935 -10.17476 -10.17458 -10.17386 -10.17362
 Alpha  occ. eigenvalues --  -10.17185 -10.17140 -10.17050 -10.16668  -1.06593
 Alpha  occ. eigenvalues --   -1.05058  -1.00521  -1.00210  -0.86247  -0.84742
 Alpha  occ. eigenvalues --   -0.78782  -0.75595  -0.75075  -0.74118  -0.69363
 Alpha  occ. eigenvalues --   -0.67227  -0.63634  -0.62693  -0.58508  -0.57014
 Alpha  occ. eigenvalues --   -0.54070  -0.53427  -0.51686  -0.49501  -0.47593
 Alpha  occ. eigenvalues --   -0.46726  -0.46564  -0.45853  -0.43946  -0.43107
 Alpha  occ. eigenvalues --   -0.42687  -0.42205  -0.41618  -0.40686  -0.40186
 Alpha  occ. eigenvalues --   -0.39695  -0.38559  -0.38348  -0.35975  -0.35572
 Alpha  occ. eigenvalues --   -0.35475  -0.34607  -0.33879  -0.33337  -0.29933
 Alpha  occ. eigenvalues --   -0.27083  -0.25813  -0.25552  -0.25118  -0.23228
 Alpha  occ. eigenvalues --   -0.21374  -0.14241
 Alpha virt. eigenvalues --   -0.04883  -0.02452  -0.00314   0.00272   0.00817
 Alpha virt. eigenvalues --    0.01048   0.01899   0.02116   0.03463   0.03572
 Alpha virt. eigenvalues --    0.03949   0.04158   0.05060   0.05247   0.05444

  Beta  occ. eigenvalues --  -19.14733 -19.12430 -19.08351 -19.06878 -10.23247
  Beta  occ. eigenvalues --  -10.22945 -10.22820 -10.22739 -10.21595 -10.17991
  Beta  occ. eigenvalues --  -10.17937 -10.17446 -10.17442 -10.17315 -10.17261
  Beta  occ. eigenvalues --  -10.17150 -10.17073 -10.17031 -10.16580  -1.06555
  Beta  occ. eigenvalues --   -1.04866  -0.99664  -0.99381  -0.86001  -0.84594
  Beta  occ. eigenvalues --   -0.78382  -0.75363  -0.74933  -0.73949  -0.69205
  Beta  occ. eigenvalues --   -0.66545  -0.63437  -0.62465  -0.58426  -0.56844
  Beta  occ. eigenvalues --   -0.53831  -0.53317  -0.51588  -0.49314  -0.47413
  Beta  occ. eigenvalues --   -0.46624  -0.46423  -0.45689  -0.43866  -0.42602
  Beta  occ. eigenvalues --   -0.42156  -0.41905  -0.41506  -0.40349  -0.40040
  Beta  occ. eigenvalues --   -0.38916  -0.38444  -0.36953  -0.35877  -0.35349
  Beta  occ. eigenvalues --   -0.34596  -0.33756  -0.33616  -0.33273  -0.29427
  Beta  occ. eigenvalues --   -0.25312  -0.25153  -0.25097  -0.24635  -0.22774
  Beta  occ. eigenvalues --   -0.20415
  Beta virt. eigenvalues --   -0.08675  -0.03863  -0.01418  -0.00300   0.00275
  Beta virt. eigenvalues --    0.01061   0.01273   0.01916   0.02117   0.03481
  Beta virt. eigenvalues --    0.03615   0.03958   0.04167   0.05163   0.05468

 Mulliken charges and spin densities:
               1          2
     1  C   -0.286097  -0.000856
     2  O   -0.155318   0.003659
     3  C   -0.366720   0.019731
     4  C   -0.208809   0.086231
     5  C   -0.185953   0.063673
     6  C   -0.237095   0.048060
     7  O   -0.418008   0.014362
     8  C    0.833234  -0.019052
     9  C   -0.276409   0.161320
    10  O   -0.487197   0.179289
    11  C    0.099011  -0.018083
    12  C    0.063782   0.055032
    13  C   -0.533865   0.006149
    14  C   -0.512818   0.062142
    15  C    0.090867   0.006796
    16  C   -0.002046   0.059734
    17  C   -0.253821   0.049503
    18  O   -0.446886   0.191372
    19  C    0.323137   0.051838
    20  H    0.191674  -0.000244
    21  H    0.151884   0.000889
    22  H    0.151788   0.000889
    23  H    0.204659  -0.005498
    24  H    0.193336  -0.005335
    25  H    0.371100  -0.003804
    26  H    0.170758  -0.002174
    27  H    0.180959  -0.001134
    28  H    0.184046  -0.004440
    29  H    0.160808  -0.000049
 Sum of Mulliken charges =  -1.00000   1.00000

 Dipole moment (field-independent basis, Debye):
    X=              2.5083    Y=             -2.2412    Z=              0.0054  Tot=              3.3637
 Quadrupole moment (field-independent basis, Debye-Ang):
   XX=           -101.2674   YY=           -151.7082   ZZ=           -116.6273
   XY=             -0.7586   XZ=              0.0012   YZ=             -0.0118

 Normal termination of Gaussian 16 at Sun Jan 14 01:22:47 2024.
