 Q-Chem 5.4, Q-Chem, Inc., Pleasanton, CA (2021)
 Q-Chem 5.4.0 for Intel X86 EM64T Linux

User input:
--------------------------------------------------------------
$molecule
-2 1
C                 -0.0618100000      3.8910150000      0.1700340000
C                 -0.4704860000      3.5261050000      1.4377640000
C                 -0.0245820000      2.3043370000      2.0018940000
C                  0.8032560000      3.0686660000     -0.5969000000
C                  1.2593380000      1.8246950000     -0.0225530000
C                  0.8226040000      1.4848210000      1.2714020000
C                  1.2182540000      3.4571340000     -1.9114000000
C                  2.0897680000      2.5454330000     -2.5847210000
C                  2.5476610000      1.3358010000     -2.0705400000
C                  2.1548310000      0.9168500000     -0.7498160000
O                  0.8747750000      4.5448370000     -2.5345540000
O                  2.5531390000     -0.1827140000     -0.2391810000
H                 -0.3909150000      4.8217260000     -0.2813680000
H                 -1.1343970000      4.1762270000      2.0044360000
H                 -0.3441900000      2.0140830000      3.0001160000
H                  1.1829240000      0.5438240000      1.6753520000
O                  2.4469750000      2.9778730000     -3.8418220000
C                  3.4519800000      0.4376260000     -2.8768250000
C                  4.9553430000      0.6595480000     -2.6108480000
C                  5.8594970000     -0.2835060000     -3.4164890000
C                  7.3606290000     -0.0726960000     -3.1786750000
C                  8.2628170000     -1.0088740000     -3.9955870000
H                  1.9501610000      3.8323590000     -3.8730480000
H                  3.2590030000      0.5838980000     -3.9462100000
H                  3.2118370000     -0.6003750000     -2.6193470000
H                  5.1381320000      0.5202870000     -1.5397270000
H                  5.2092150000      1.7000710000     -2.8479480000
H                  5.6463720000     -0.1600470000     -4.4879860000
H                  5.5996570000     -1.3229830000     -3.1733410000
H                  7.5769600000     -0.2050250000     -2.1101410000
H                  7.6190180000      0.9691770000     -3.4121130000
H                  8.0476880000     -0.8763740000     -5.0645130000
H                  8.0058600000     -2.0513330000     -3.7643040000
C                  9.7640150000     -0.7991720000     -3.7578580000
C                 10.6588710000     -1.7345010000     -4.5779810000
H                  9.9806290000     -0.9338050000     -2.6902600000
H                 10.0220430000      0.2428280000     -3.9872720000
H                 10.4583500000     -2.7869030000     -4.3458790000
H                 11.7232690000     -1.5593230000     -4.3863800000
H                 10.4991290000     -1.6003890000     -5.6541900000
$end

$rem
BASIS  =  6-311++G(d,p)
GUI  =  2
JOB_TYPE  =  SP
METHOD  =  B3LYP
SCF_CONVERGENCE  = 8
SOLVENT_METHOD = sm12
$end

$smx
solvent dimethylformamide
charges CM5
$end

--------------------------------------------------------------

             Standard Nuclear Orientation (Angstroms)
    I     Atom           X                Y                Z
 ----------------------------------------------------------------
    1      C      -0.0618100000     3.8910150000     0.1700340000
    2      C      -0.4704860000     3.5261050000     1.4377640000
    3      C      -0.0245820000     2.3043370000     2.0018940000
    4      C       0.8032560000     3.0686660000    -0.5969000000
    5      C       1.2593380000     1.8246950000    -0.0225530000
    6      C       0.8226040000     1.4848210000     1.2714020000
    7      C       1.2182540000     3.4571340000    -1.9114000000
    8      C       2.0897680000     2.5454330000    -2.5847210000
    9      C       2.5476610000     1.3358010000    -2.0705400000
   10      C       2.1548310000     0.9168500000    -0.7498160000
   11      O       0.8747750000     4.5448370000    -2.5345540000
   12      O       2.5531390000    -0.1827140000    -0.2391810000
   13      H      -0.3909150000     4.8217260000    -0.2813680000
   14      H      -1.1343970000     4.1762270000     2.0044360000
   15      H      -0.3441900000     2.0140830000     3.0001160000
   16      H       1.1829240000     0.5438240000     1.6753520000
   17      O       2.4469750000     2.9778730000    -3.8418220000
   18      C       3.4519800000     0.4376260000    -2.8768250000
   19      C       4.9553430000     0.6595480000    -2.6108480000
   20      C       5.8594970000    -0.2835060000    -3.4164890000
   21      C       7.3606290000    -0.0726960000    -3.1786750000
   22      C       8.2628170000    -1.0088740000    -3.9955870000
   23      H       1.9501610000     3.8323590000    -3.8730480000
   24      H       3.2590030000     0.5838980000    -3.9462100000
   25      H       3.2118370000    -0.6003750000    -2.6193470000
   26      H       5.1381320000     0.5202870000    -1.5397270000
   27      H       5.2092150000     1.7000710000    -2.8479480000
   28      H       5.6463720000    -0.1600470000    -4.4879860000
   29      H       5.5996570000    -1.3229830000    -3.1733410000
   30      H       7.5769600000    -0.2050250000    -2.1101410000
   31      H       7.6190180000     0.9691770000    -3.4121130000
   32      H       8.0476880000    -0.8763740000    -5.0645130000
   33      H       8.0058600000    -2.0513330000    -3.7643040000
   34      C       9.7640150000    -0.7991720000    -3.7578580000
   35      C      10.6588710000    -1.7345010000    -4.5779810000
   36      H       9.9806290000    -0.9338050000    -2.6902600000
   37      H      10.0220430000     0.2428280000    -3.9872720000
   38      H      10.4583500000    -2.7869030000    -4.3458790000
   39      H      11.7232690000    -1.5593230000    -4.3863800000
   40      H      10.4991290000    -1.6003890000    -5.6541900000
 ----------------------------------------------------------------

   17    -885.7639479603      9.57e-09  Convergence criterion met
 Total energy in the final basis set =     -886.0498885606

                    Orbital Energies (a.u.)
 --------------------------------------------------------------

 Alpha MOs
 -- Occupied --
-19.1189 -19.0293 -19.0235 -10.1874 -10.1833 -10.1712 -10.1707 -10.1665
-10.1661 -10.1656 -10.1655 -10.1654 -10.1652 -10.1650 -10.1611 -10.1594
-10.1578 -10.1481 -10.1452 -10.1351  -1.0320  -0.9453  -0.9343  -0.8402
 -0.8129  -0.7912  -0.7707  -0.7426  -0.7392  -0.7103  -0.6727  -0.6425
 -0.6197  -0.5979  -0.5830  -0.5789  -0.5689  -0.5482  -0.5170  -0.4853
 -0.4839  -0.4630  -0.4525  -0.4421  -0.4386  -0.4332  -0.4210  -0.4185
 -0.4117  -0.4045  -0.3922  -0.3793  -0.3783  -0.3710  -0.3623  -0.3617
 -0.3602  -0.3561  -0.3409  -0.3404  -0.3315  -0.3285  -0.3249  -0.3237
 -0.3232  -0.3146  -0.3041  -0.3034  -0.2459  -0.2334  -0.2154  -0.2016
 -0.1989  -0.1139

          Ground-State Mulliken Net Atomic Charges

     Atom                 Charge (a.u.)
  ----------------------------------------
      1 C                    -0.231046
      2 C                     1.107786
      3 C                     1.072289
      4 C                    -1.918417
      5 C                    -1.918605
      6 C                    -0.469787
      7 C                    -1.950527
      8 C                    -0.129201
      9 C                     1.266632
     10 C                    -2.537836
     11 O                    -0.419239
     12 O                    -0.272308
     13 H                     0.105994
     14 H                     0.379600
     15 H                     0.354741
     16 H                     0.069549
     17 O                    -0.052487
     18 C                    -0.618329
     19 C                    -2.685122
     20 C                    -0.214248
     21 C                     1.183592
     22 C                     2.237879
     23 H                     0.315009
     24 H                     0.169851
     25 H                     0.063706
     26 H                     0.036844
     27 H                     0.013599
     28 H                     0.233773
     29 H                     0.224536
     30 H                     0.134691
     31 H                     0.157635
     32 H                     0.088058
     33 H                     0.089676
     34 C                     0.936161
     35 C                     0.397801
     36 H                     0.103945
     37 H                     0.100441
     38 H                     0.142944
     39 H                     0.285999
     40 H                     0.144423
  ----------------------------------------
  Sum of atomic charges =    -2.000000

                    Cartesian Multipole Moments
 -----------------------------------------------------------------
    Charge (ESU x 10^10)
                -9.6064
    Dipole Moment (Debye)
         X     -14.9273      Y     -21.2750      Z      10.3127
       Tot      27.9607
    Quadrupole Moments (Debye-Ang)
        XX    -176.4844     XY     -15.9517     YY    -219.7407
        XZ      24.8311     YZ      32.7285     ZZ    -175.1498

 Total job time:  1495.89s(wall), 11309.60s(cpu)
        *  Thank you very much for using Q-Chem.  Have a nice day.  *
