 Q-Chem 5.4, Q-Chem, Inc., Pleasanton, CA (2021)
 Q-Chem 5.4.0 for Intel X86 EM64T Linux

User input:
--------------------------------------------------------------
$molecule
-1 2
C                  4.8943170000     -1.0910130000      0.0375460000
C                  3.5318330000     -1.0927410000     -0.6002200000
O                  3.2992660000     -0.9165980000     -1.7672800000
O                  2.5799470000     -1.3802440000      0.3338340000
C                  1.2408530000     -1.0946320000      0.0480130000
C                  0.4272220000     -2.1805160000     -0.1883720000
C                 -0.9421180000     -1.9862420000     -0.3909350000
C                 -1.4641930000     -0.7129140000     -0.3354560000
O                 -2.8235360000     -0.5917140000     -0.6419800000
C                 -3.7063290000     -0.3177050000      0.3614120000
C                 -5.0087600000      0.1643190000     -0.2168740000
O                 -3.4735120000     -0.4886640000      1.5291940000
C                 -0.6660340000      0.4286410000     -0.0823630000
C                 -1.2542880000      1.7853440000     -0.0080090000
O                 -2.4895740000      2.0094660000     -0.1288220000
C                 -0.3310710000      2.8585710000      0.2273560000
C                  1.0145190000      2.6717870000      0.3930600000
C                  1.6459650000      1.3842930000      0.3366780000
O                  2.8947630000      1.2698180000      0.4713710000
C                  0.7475790000      0.2313410000      0.1004210000
H                  5.6627510000     -1.1454660000     -0.7325280000
H                  4.9802750000     -0.1530550000      0.5903570000
H                  4.9951330000     -1.9181110000      0.7433070000
H                  0.8651670000     -3.1710140000     -0.2125910000
H                 -1.6053270000     -2.8187300000     -0.5923980000
H                 -5.2841310000     -0.4201510000     -1.0971760000
H                 -4.8501780000      1.1997840000     -0.5257600000
H                 -5.7904930000      0.1130590000      0.5399130000
H                 -0.7691390000      3.8509220000      0.2771940000
H                  1.6790930000      3.5121660000      0.5698470000
$end
$rem
MAX_SCF_CYCLES=200
BASIS  =  6-311++G(d,p)
GUI  =  2
JOB_TYPE  =  SP
METHOD  =  B3LYP
SOLVENT_METHOD = PCM
$end
$pcm
theory = CPCM
$end
$solvent
dielectric 37.219
opticaldielectric 1.43
$end

--------------------------------------------------------------

             Standard Nuclear Orientation (Angstroms)
    I     Atom           X                Y                Z
 ----------------------------------------------------------------
    1      C       4.8943170000    -1.0910130000     0.0375460000
    2      C       3.5318330000    -1.0927410000    -0.6002200000
    3      O       3.2992660000    -0.9165980000    -1.7672800000
    4      O       2.5799470000    -1.3802440000     0.3338340000
    5      C       1.2408530000    -1.0946320000     0.0480130000
    6      C       0.4272220000    -2.1805160000    -0.1883720000
    7      C      -0.9421180000    -1.9862420000    -0.3909350000
    8      C      -1.4641930000    -0.7129140000    -0.3354560000
    9      O      -2.8235360000    -0.5917140000    -0.6419800000
   10      C      -3.7063290000    -0.3177050000     0.3614120000
   11      C      -5.0087600000     0.1643190000    -0.2168740000
   12      O      -3.4735120000    -0.4886640000     1.5291940000
   13      C      -0.6660340000     0.4286410000    -0.0823630000
   14      C      -1.2542880000     1.7853440000    -0.0080090000
   15      O      -2.4895740000     2.0094660000    -0.1288220000
   16      C      -0.3310710000     2.8585710000     0.2273560000
   17      C       1.0145190000     2.6717870000     0.3930600000
   18      C       1.6459650000     1.3842930000     0.3366780000
   19      O       2.8947630000     1.2698180000     0.4713710000
   20      C       0.7475790000     0.2313410000     0.1004210000
   21      H       5.6627510000    -1.1454660000    -0.7325280000
   22      H       4.9802750000    -0.1530550000     0.5903570000
   23      H       4.9951330000    -1.9181110000     0.7433070000
   24      H       0.8651670000    -3.1710140000    -0.2125910000
   25      H      -1.6053270000    -2.8187300000    -0.5923980000
   26      H      -5.2841310000    -0.4201510000    -1.0971760000
   27      H      -4.8501780000     1.1997840000    -0.5257600000
   28      H      -5.7904930000     0.1130590000     0.5399130000
   29      H      -0.7691390000     3.8509220000     0.2771940000
   30      H       1.6790930000     3.5121660000     0.5698470000
 ----------------------------------------------------------------

    8    -991.3040591595      7.39e-06  Convergence criterion met
 Total energy in the final basis set =     -991.3040591595

                    Orbital Energies (a.u.)
 --------------------------------------------------------------

 Alpha MOs
 -- Occupied --
-19.1741 -19.1741 -19.1223 -19.1222 -19.0820 -19.0820 -10.3137 -10.3137
-10.2452 -10.2451 -10.2329 -10.2329 -10.1955 -10.1951 -10.1841 -10.1836
-10.1705 -10.1705 -10.1675 -10.1669  -1.1188  -1.1185  -1.0389  -1.0383
 -1.0085  -1.0063  -0.8737  -0.8143  -0.7891  -0.7565  -0.7554  -0.7289
 -0.6886  -0.6578  -0.6358  -0.6092  -0.6009  -0.5278  -0.5195  -0.5172
 -0.4998  -0.4986  -0.4891  -0.4888  -0.4756  -0.4709  -0.4633  -0.4439
 -0.4295  -0.4288  -0.4186  -0.4123  -0.4120  -0.4079  -0.3955  -0.3928
 -0.3878  -0.3824  -0.3786  -0.3712  -0.3682  -0.3555  -0.3289  -0.3259
 -0.2939  -0.2928  -0.2841  -0.2646  -0.2580  -0.2485  -0.2425  -0.1608

 Beta MOs
 -- Occupied --
-19.1741 -19.1741 -19.1223 -19.1222 -19.0759 -19.0758 -10.3137 -10.3136
-10.2450 -10.2450 -10.2313 -10.2313 -10.1950 -10.1946 -10.1836 -10.1831
-10.1705 -10.1705 -10.1662 -10.1655  -1.1187  -1.1184  -1.0387  -1.0382
 -0.9978  -0.9953  -0.8719  -0.8090  -0.7882  -0.7557  -0.7539  -0.7279
 -0.6800  -0.6573  -0.6320  -0.6066  -0.6003  -0.5259  -0.5170  -0.5161
 -0.4984  -0.4983  -0.4884  -0.4881  -0.4738  -0.4704  -0.4618  -0.4433
 -0.4274  -0.4236  -0.4132  -0.4119  -0.4099  -0.4029  -0.3909  -0.3905
 -0.3821  -0.3812  -0.3709  -0.3662  -0.3573  -0.3486  -0.3279  -0.3241
 -0.2937  -0.2927  -0.2597  -0.2548  -0.2514  -0.2429  -0.2371

          Ground-State Mulliken Net Atomic Charges

     Atom                 Charge (a.u.)    Spin (a.u.)
  --------------------------------------------------------
      1 C                    -0.507385       0.003413
      2 C                     0.073881      -0.001718
      3 O                    -0.299339      -0.000249
      4 O                    -0.008736      -0.001826
      5 C                    -0.550665       0.045213
      6 C                     0.091040       0.029235
      7 C                     0.088445       0.029230
      8 C                    -0.554094       0.045171
      9 O                    -0.009045      -0.001810
     10 C                     0.075974      -0.001723
     11 C                    -0.508322       0.003411
     12 O                    -0.299491      -0.000263
     13 C                     0.511033       0.027456
     14 C                    -0.179785       0.089449
     15 O                    -0.472615       0.230500
     16 C                    -0.151589       0.091200
     17 C                    -0.152565       0.091209
     18 C                    -0.178180       0.089380
     19 O                    -0.471765       0.230584
     20 C                     0.501180       0.027367
     21 H                     0.170638      -0.000262
     22 H                     0.209775      -0.000727
     23 H                     0.183979       0.000350
     24 H                     0.233785      -0.002990
     25 H                     0.233861      -0.002983
     26 H                     0.183853       0.000351
     27 H                     0.209909      -0.000731
     28 H                     0.170642      -0.000260
     29 H                     0.202780      -0.008991
     30 H                     0.202804      -0.008987
  --------------------------------------------------------
  Sum of atomic charges =    -1.000000

                    Cartesian Multipole Moments
 -----------------------------------------------------------------
    Charge (ESU x 10^10)
                -4.8032
    Dipole Moment (Debye)
         X      -0.7320      Y      -5.9360      Z      -0.5844
       Tot       6.0094
    Quadrupole Moments (Debye-Ang)
        XX    -138.9051     XY       0.6286     YY    -119.4786
        XZ      14.3840     YZ       0.1743     ZZ    -133.6155

 Total job time:  78.22s(wall), 489.11s(cpu)
        *  Thank you very much for using Q-Chem.  Have a nice day.  *
