 Q-Chem 5.4, Q-Chem, Inc., Pleasanton, CA (2021)
 Q-Chem 5.4.0 for Intel X86 EM64T Linux

User input:
--------------------------------------------------------------
$molecule
-2 1
C                  3.3808640000      6.0148270000      0.5667690000
C                  2.1980030000      5.3568920000      1.0596320000
C                  2.2066680000      4.0044070000      1.4402760000
C                  3.3905160000      3.1918580000      1.3541030000
C                  4.5710860000      3.8457440000      0.8564080000
C                  4.5661650000      5.1939360000      0.4865140000
O                  3.3874820000      7.2643960000      0.2082910000
O                  3.3805480000      1.9385990000      1.7123210000
C                  5.8218640000      5.8546710000     -0.0338350000
C                  5.8315540000      3.0168770000      0.7638510000
C                  0.9433430000      6.1996590000      1.1317700000
C                  0.9782200000      3.3168820000      1.9959910000
C                  0.5179290000      2.1368080000      1.1147100000
C                 -0.7059500000      1.4067340000      1.5937210000
O                 -1.2173760000      1.4638250000      2.6868310000
O                 -1.2992580000      0.5821800000      0.6535740000
H                  6.6513920000      5.8092160000      0.6894370000
H                  5.5945300000      6.9021100000     -0.2459130000
H                  6.1937400000      5.3811010000     -0.9571710000
H                  5.5977310000      1.9979740000      1.0818640000
H                  6.6385510000      3.4071050000      1.4053130000
H                  6.2399830000      2.9857950000     -0.2580660000
H                  1.1855440000      7.1918630000      0.7436350000
H                  0.5615940000      6.3137420000      2.1579600000
H                  0.1161100000      5.7817390000      0.5356610000
H                  0.1509000000      4.0176720000      2.1287650000
H                  1.2114740000      2.8928760000      2.9802600000
H                  1.3757590000      1.4434230000      1.0911760000
H                  0.3516400000      2.4712260000      0.0812300000
H                 -0.8202460000      0.6585920000     -0.1861600000
$end
$rem
MAX_SCF_CYCLES=200
BASIS  =  6-311++G(d,p)
GUI  =  2
JOB_TYPE  =  SP
METHOD  =  B3LYP
SOLVENT_METHOD = COSMO
$end
$solvent
dielectric 37.219
opticaldielectric 1.43
$end

--------------------------------------------------------------

             Standard Nuclear Orientation (Angstroms)
    I     Atom           X                Y                Z
 ----------------------------------------------------------------
    1      C       2.2245400957     1.1912969183    -0.1074485382
    2      C       0.8185182330     1.3630750060     0.1543669628
    3      C      -0.0347532335     0.2672591844     0.3671957717
    4      C       0.4381014284    -1.0907112147     0.3286910410
    5      C       1.8407518319    -1.2642386332     0.0613470311
    6      C       2.6926316324    -0.1743564619    -0.1409525354
    7      O       3.0256014502     2.1951158027    -0.3089958374
    8      O      -0.3677347676    -2.0954652275     0.5291281046
    9      C       4.1625661270    -0.3869408424    -0.4206206658
   10      C       2.3656790137    -2.6810726073     0.0239328008
   11      C       0.3098291843     2.7880240574     0.1740513602
   12      C      -1.5049072981     0.4412340664     0.6817971737
   13      C      -2.4130859215    -0.2055076676    -0.3849902319
   14      C      -3.8916128237    -0.0664858265    -0.1505323094
   15      O      -4.4482347852     0.2601098660     0.8708455118
   16      O      -4.6858756427    -0.3477202179    -1.2486369741
   17      H       4.6688074466    -0.9380476641     0.3876529533
   18      H       4.6348775705     0.5921152721    -0.5308808551
   19      H       4.3350472386    -0.9669040363    -1.3420340546
   20      H       1.5275012874    -3.3631639060     0.1857300391
   21      H       3.1242439660    -2.8683023859     0.8014414957
   22      H       2.8440550167    -2.9267646345    -0.9367370287
   23      H       1.1508487440     3.4453970720    -0.0590273820
   24      H      -0.0993626056     3.0839870385     1.1522032598
   25      H      -0.4887319102     2.9641743944    -0.5645884301
   26      H      -1.7695001497     1.4948423167     0.7962271494
   27      H      -1.7371435237    -0.0610756889     1.6287529416
   28      H      -2.1385822080    -1.2740823317    -0.3871845046
   29      H      -2.1722231075     0.1861486245    -1.3830677811
   30      H      -4.1194374202    -0.5541017295    -2.0082414056
 ----------------------------------------------------------------

   15    -766.8138534176      2.00e-06  Convergence criterion met
 Total energy in the final basis set =     -766.8138534176
    5    -767.0940821962      9.16e-06  Convergence criterion met
 Total energy in the final basis set =     -767.0940821962

                    Orbital Energies (a.u.)
 --------------------------------------------------------------

 Alpha MOs
 -- Occupied --
-19.1648 -19.1183 -19.0113 -19.0097 -10.3074 -10.1660 -10.1576 -10.1568
-10.1475 -10.1314 -10.1309 -10.1306 -10.1206 -10.1195 -10.1189 -10.1184
 -1.1003  -1.0236  -0.9260  -0.9225  -0.7902  -0.7715  -0.7392  -0.6914
 -0.6795  -0.6558  -0.6091  -0.5970  -0.5857  -0.5134  -0.5018  -0.4992
 -0.4761  -0.4606  -0.4536  -0.4177  -0.4063  -0.4022  -0.3979  -0.3858
 -0.3788  -0.3698  -0.3683  -0.3569  -0.3552  -0.3462  -0.3409  -0.3376
 -0.3316  -0.3289  -0.3186  -0.3011  -0.2983  -0.2939  -0.2866  -0.2151
 -0.1960  -0.1876  -0.1852  -0.1107

          Ground-State Mulliken Net Atomic Charges

     Atom                 Charge (a.u.)
  ----------------------------------------
      1 C                    -1.257909
      2 C                     0.592052
      3 C                     0.837682
      4 C                    -1.129030
      5 C                     0.593536
      6 C                     0.486276
      7 O                    -0.770560
      8 O                    -0.744746
      9 C                    -0.463260
     10 C                    -0.585536
     11 C                    -0.645406
     12 C                    -0.287859
     13 C                    -0.338704
     14 C                    -0.067570
     15 O                    -0.384480
     16 O                    -0.250312
     17 H                     0.132693
     18 H                     0.170081
     19 H                     0.134571
     20 H                     0.166647
     21 H                     0.132752
     22 H                     0.133187
     23 H                     0.166554
     24 H                     0.154696
     25 H                     0.136488
     26 H                     0.167618
     27 H                     0.172481
     28 H                     0.261054
     29 H                     0.171471
     30 H                     0.315532
  ----------------------------------------
  Sum of atomic charges =    -2.000000

                    Cartesian Multipole Moments
 -----------------------------------------------------------------
    Charge (ESU x 10^10)
                -9.6064
    Dipole Moment (Debye)
         X      -7.1354      Y      -1.9939      Z      -4.6451
       Tot       8.7445
    Quadrupole Moments (Debye-Ang)
        XX    -187.8975     XY     -24.2097     YY    -143.9547
        XZ      18.0417     YZ       7.4872     ZZ    -104.1110

 Total job time:  89.79s(wall), 639.74s(cpu)
        *  Thank you very much for using Q-Chem.  Have a nice day.  *
