 Gaussian 16, Revision A.03,
 Gaussian 16:  ES64L-G16RevA.03 25-Dec-2016

 ----------------------------------------------------------------------
 #P UB3LYP/6-311++G(d,p) nosym opt freq SCRF=(PCM,Solvent=n,n-DiMethylF
 ormamide)
 ----------------------------------------------------------------------

 --------
 Oxidized
 --------
 Symbolic Z-matrix:
 Charge =  0 Multiplicity = 1

 SCF Done:  E(UB3LYP) =  -1302.25071642     A.U. after   16 cycles
 SCF Done:  E(UB3LYP) =  -1302.25073335     A.U. after   11 cycles
 SCF Done:  E(UB3LYP) =  -1302.25071632     A.U. after   11 cycles
 SCF Done:  E(UB3LYP) =  -1302.25073472     A.U. after   11 cycles
 SCF Done:  E(UB3LYP) =  -1302.25073770     A.U. after    9 cycles
 SCF Done:  E(UB3LYP) =  -1302.25073933     A.U. after   11 cycles
 SCF Done:  E(UB3LYP) =  -1302.25074838     A.U. after   13 cycles
 SCF Done:  E(UB3LYP) =  -1302.25052573     A.U. after   17 cycles
 SCF Done:  E(UB3LYP) =  -1302.25075873     A.U. after   16 cycles
 SCF Done:  E(UB3LYP) =  -1302.25073717     A.U. after   14 cycles
 SCF Done:  E(UB3LYP) =  -1302.25080285     A.U. after   14 cycles
 SCF Done:  E(UB3LYP) =  -1302.25081500     A.U. after   13 cycles
 SCF Done:  E(UB3LYP) =  -1302.25086895     A.U. after   12 cycles
 SCF Done:  E(UB3LYP) =  -1302.25038856     A.U. after   14 cycles
 SCF Done:  E(UB3LYP) =  -1302.25083370     A.U. after   13 cycles
 SCF Done:  E(UB3LYP) =  -1302.25087348     A.U. after   13 cycles
 SCF Done:  E(UB3LYP) =  -1302.25084108     A.U. after   12 cycles
 SCF Done:  E(UB3LYP) =  -1302.25084179     A.U. after   11 cycles
 SCF Done:  E(UB3LYP) =  -1302.25084186     A.U. after    9 cycles
 Optimization completed.
    -- Stationary point found.
 Normal termination of Gaussian 16 at Sun Feb 11 08:36:23 2024.

 ----------------------------------------------------------------------
 #P Geom=AllCheck Guess=TCheck SCRF=Check GenChk UB3LYP/6-311++G(d,p) F
 req
 ----------------------------------------------------------------------

 Structure from the checkpoint file:  "135.chk"
 --------
 Oxidized
 --------
 Charge =  0 Multiplicity = 1

                          Input orientation:
 ---------------------------------------------------------------------
 Center     Atomic      Atomic             Coordinates (Angstroms)
 Number     Number       Type             X           Y           Z
 ---------------------------------------------------------------------
      1          6           0        5.586523   -4.583631   -0.981274
      2          6           0        6.467253   -4.096632   -1.999000
      3          6           0        6.202851   -2.805563   -2.556656
      4          6           0        4.495338   -3.849498   -0.528117
      5          6           0        4.240873   -2.574768   -1.141420
      6          6           0        5.080271   -2.078454   -2.109248
      7          6           0        3.594627   -4.298127    0.580366
      8          6           0        2.303392   -3.568945    0.763015
      9          6           0        2.042865   -2.347190    0.122095
     10          6           0        3.048207   -1.749590   -0.787221
     11          6           0        1.345286   -4.110312    1.627712
     12          6           0        0.139688   -3.451609    1.838726
     13          6           0       -0.116720   -2.233400    1.201702
     14          6           0        0.833761   -1.681084    0.352405
     15          6           0        7.590893   -4.817962   -2.479778
     16          6           0        8.406005   -4.284456   -3.452075
     17          6           0        8.144221   -3.008307   -3.998308
     18          6           0        7.062105   -2.284988   -3.558485
     19          8           0        3.879355   -5.213004    1.338235
     20          8           0        2.892909   -0.628699   -1.257388
     21         17           0        5.935004   -6.188524   -0.362579
     22          1           0        4.861232   -1.110458   -2.542398
     23          1           0        1.558240   -5.048328    2.123711
     24          1           0       -0.601661   -3.883046    2.500957
     25          1           0       -1.055551   -1.719589    1.371227
     26          1           0        0.655252   -0.735637   -0.143636
     27          1           0        7.810480   -5.794962   -2.074559
     28          1           0        9.260403   -4.851522   -3.802404
     29          1           0        8.797422   -2.605144   -4.762967
     30          1           0        6.846176   -1.305527   -3.969538
 ---------------------------------------------------------------------

 SCF Done:  E(UB3LYP) =  -1302.25084186     A.U. after    1 cycles

 Alpha  occ. eigenvalues -- -101.56736 -19.13157 -19.13060 -10.28884 -10.28472
 Alpha  occ. eigenvalues --  -10.27108 -10.22400 -10.22041 -10.21467 -10.21421
 Alpha  occ. eigenvalues --  -10.21171 -10.21005 -10.20484 -10.20045 -10.19996
 Alpha  occ. eigenvalues --  -10.19944 -10.19903 -10.19802 -10.19774 -10.19693
 Alpha  occ. eigenvalues --  -10.19669  -9.48237  -7.24703  -7.23755  -7.23629
 Alpha  occ. eigenvalues --   -1.06793  -1.06395  -0.92393  -0.89168  -0.87677
 Alpha  occ. eigenvalues --   -0.85625  -0.80674  -0.78699  -0.78039  -0.77266
 Alpha  occ. eigenvalues --   -0.75229  -0.68873  -0.68510  -0.65123  -0.63253
 Alpha  occ. eigenvalues --   -0.61186  -0.58818  -0.58338  -0.55818  -0.53271
 Alpha  occ. eigenvalues --   -0.52333  -0.50613  -0.49055  -0.47333  -0.47010
 Alpha  occ. eigenvalues --   -0.46496  -0.46180  -0.45616  -0.45325  -0.44995
 Alpha  occ. eigenvalues --   -0.44763  -0.43769  -0.42464  -0.42081  -0.40606
 Alpha  occ. eigenvalues --   -0.38993  -0.38301  -0.37604  -0.37169  -0.37120
 Alpha  occ. eigenvalues --   -0.36282  -0.34365  -0.33454  -0.30067  -0.28851
 Alpha  occ. eigenvalues --   -0.28708  -0.28118  -0.27576  -0.27071  -0.24633
 Alpha virt. eigenvalues --   -0.11723  -0.09655  -0.04749  -0.04389  -0.01063
 Alpha virt. eigenvalues --   -0.00809  -0.00264   0.00276   0.01082   0.01196
 Alpha virt. eigenvalues --    0.01567   0.01800   0.02934   0.03191   0.03449

  Beta  occ. eigenvalues -- -101.56736 -19.13157 -19.13060 -10.28884 -10.28472
  Beta  occ. eigenvalues --  -10.27108 -10.22400 -10.22041 -10.21467 -10.21421
  Beta  occ. eigenvalues --  -10.21171 -10.21005 -10.20484 -10.20045 -10.19996
  Beta  occ. eigenvalues --  -10.19944 -10.19903 -10.19802 -10.19774 -10.19693
  Beta  occ. eigenvalues --  -10.19669  -9.48237  -7.24703  -7.23755  -7.23629
  Beta  occ. eigenvalues --   -1.06793  -1.06395  -0.92393  -0.89168  -0.87677
  Beta  occ. eigenvalues --   -0.85625  -0.80674  -0.78699  -0.78039  -0.77266
  Beta  occ. eigenvalues --   -0.75229  -0.68873  -0.68510  -0.65123  -0.63253
  Beta  occ. eigenvalues --   -0.61186  -0.58818  -0.58338  -0.55818  -0.53271
  Beta  occ. eigenvalues --   -0.52333  -0.50613  -0.49055  -0.47333  -0.47010
  Beta  occ. eigenvalues --   -0.46496  -0.46180  -0.45616  -0.45325  -0.44995
  Beta  occ. eigenvalues --   -0.44763  -0.43769  -0.42464  -0.42081  -0.40606
  Beta  occ. eigenvalues --   -0.38993  -0.38301  -0.37604  -0.37169  -0.37120
  Beta  occ. eigenvalues --   -0.36282  -0.34365  -0.33454  -0.30067  -0.28851
  Beta  occ. eigenvalues --   -0.28708  -0.28118  -0.27576  -0.27071  -0.24633
  Beta virt. eigenvalues --   -0.11723  -0.09655  -0.04749  -0.04389  -0.01063
  Beta virt. eigenvalues --   -0.00809  -0.00264   0.00276   0.01082   0.01196
  Beta virt. eigenvalues --    0.01567   0.01800   0.02934   0.03191   0.03449

 Mulliken charges and spin densities:
               1          2
     1  C    0.154122   0.000000
     2  C    0.700999   0.000000
     3  C    0.681204   0.000000
     4  C    0.094875  -0.000000
     5  C    0.466945  -0.000000
     6  C    0.033856  -0.000000
     7  C   -1.215078  -0.000000
     8  C   -0.054122   0.000000
     9  C    0.521962   0.000000
    10  C   -0.719728   0.000000
    11  C    0.231105   0.000000
    12  C   -0.376762   0.000000
    13  C   -0.431799   0.000000
    14  C    0.228249   0.000000
    15  C   -0.987079  -0.000000
    16  C   -0.633202   0.000000
    17  C   -0.307221   0.000000
    18  C   -0.239189  -0.000000
    19  O   -0.200686   0.000000
    20  O   -0.270564   0.000000
    21  Cl   0.573909  -0.000000
    22  H    0.162248  -0.000000
    23  H    0.194679  -0.000000
    24  H    0.209086   0.000000
    25  H    0.208921  -0.000000
    26  H    0.188151   0.000000
    27  H    0.177890  -0.000000
    28  H    0.214460  -0.000000
    29  H    0.203143   0.000000
    30  H    0.189627  -0.000000
 Sum of Mulliken charges =  -0.00000   0.00000

 Dipole moment (field-independent basis, Debye):
    X=              0.3411    Y=              0.6757    Z=             -2.5668  Tot=              2.6761
 Quadrupole moment (field-independent basis, Debye-Ang):
   XX=            -92.2625   YY=           -140.8771   ZZ=           -114.8728
   XY=              2.5250   XZ=            -34.9508   YZ=             12.0645

  Exact polarizability: 435.994 -68.394 326.166-162.607 -62.814 307.405
 Approx polarizability: 469.344 -79.844 409.707-159.931 -89.837 353.909

                      1                      2                      3
                      A                      A                      A
 Frequencies --     25.9899                42.5978                82.6743
 Red. masses --      7.3151                10.7889                 5.0430
 Frc consts  --      0.0029                 0.0115                 0.0203
 IR Inten    --      8.1474                 0.1310                 1.1608

                      4                      5                      6
                      A                      A                      A
 Frequencies --    108.4335               123.1463               161.5112
 Red. masses --      4.7316                 6.4417                 6.6575
 Frc consts  --      0.0328                 0.0576                 0.1023
 IR Inten    --      0.2739                 1.1114                 1.9100

                      7                      8                      9
                      A                      A                      A
 Frequencies --    174.7524               237.1727               262.6774
 Red. masses --      6.0957                10.7939                 6.1623
 Frc consts  --      0.1097                 0.3577                 0.2505
 IR Inten    --      1.6366                 0.3885                 2.2798

                     10                     11                     12
                      A                      A                      A
 Frequencies --    273.4620               281.7615               300.7549
 Red. masses --      5.1532                 6.5609                 7.5479
 Frc consts  --      0.2270                 0.3069                 0.4023
 IR Inten    --      2.1657                 0.0432                 0.4939

                     13                     14                     15
                      A                      A                      A
 Frequencies --    339.7313               392.9378               408.3372
 Red. masses --     12.5004                10.8060                 8.1356
 Frc consts  --      0.8501                 0.9830                 0.7992
 IR Inten    --      2.7403                48.8455                 4.2377

                     16                     17                     18
                      A                      A                      A
 Frequencies --    416.2606               442.9147               448.1449
 Red. masses --      3.6172                 5.0470                 3.6149
 Frc consts  --      0.3693                 0.5833                 0.4277
 IR Inten    --      2.1081                 1.2012                11.0575

                     19                     20                     21
                      A                      A                      A
 Frequencies --    478.3813               487.3426               516.0905
 Red. masses --     10.3138                 7.0472                 3.9900
 Frc consts  --      1.3906                 0.9861                 0.6261
 IR Inten    --      1.1102                 3.6081                 0.5028

                     22                     23                     24
                      A                      A                      A
 Frequencies --    553.7877               589.0648               593.3897
 Red. masses --      3.7459                 8.1072                 7.1264
 Frc consts  --      0.6769                 1.6575                 1.4784
 IR Inten    --     11.5174                19.7768                25.8412

                     25                     26                     27
                      A                      A                      A
 Frequencies --    626.4634               655.7787               684.1337
 Red. masses --      5.3742                 6.7459                 6.4552
 Frc consts  --      1.2427                 1.7093                 1.7801
 IR Inten    --      1.3154                11.7517                 4.2207

                     28                     29                     30
                      A                      A                      A
 Frequencies --    708.8391               727.8202               734.3764
 Red. masses --      5.1346                 2.3633                 6.1947
 Frc consts  --      1.5200                 0.7376                 1.9684
 IR Inten    --      0.7360                89.0305                11.3244

                     31                     32                     33
                      A                      A                      A
 Frequencies --    753.9125               765.5836               778.1377
 Red. masses --      6.0699                 1.7432                 2.2387
 Frc consts  --      2.0327                 0.6020                 0.7987
 IR Inten    --     34.9734                86.5219                44.2803

                     34                     35                     36
                      A                      A                      A
 Frequencies --    811.5014               824.7175               850.0125
 Red. masses --      2.0935                 4.8203                 6.1844
 Frc consts  --      0.8123                 1.9317                 2.6327
 IR Inten    --      3.5672                 6.0803                16.0247

                     37                     38                     39
                      A                      A                      A
 Frequencies --    861.0146               879.4817               914.2798
 Red. masses --      7.1211                 1.4275                 1.4499
 Frc consts  --      3.1104                 0.6506                 0.7141
 IR Inten    --     34.3478                 1.0796                 0.4822

                     40                     41                     42
                      A                      A                      A
 Frequencies --    950.6379               961.2866               992.0620
 Red. masses --      1.4977                 6.5346                 1.5238
 Frc consts  --      0.7974                 3.5577                 0.8836
 IR Inten    --     19.2201                34.6686                39.5836

                     43                     44                     45
                      A                      A                      A
 Frequencies --    993.0468              1002.1092              1014.1733
 Red. masses --      4.2325                 1.4343                 1.3144
 Frc consts  --      2.4592                 0.8486                 0.7965
 IR Inten    --    229.4966                18.4748                 0.0076

                     46                     47                     48
                      A                      A                      A
 Frequencies --   1022.8946              1050.5345              1062.2935
 Red. masses --      1.3321                 2.3246                 1.8986
 Frc consts  --      0.8212                 1.5115                 1.2623
 IR Inten    --      0.1763                27.7130                15.6633

                     49                     50                     51
                      A                      A                      A
 Frequencies --   1095.9164              1122.0710              1170.8416
 Red. masses --      5.0049                 1.9631                 1.5055
 Frc consts  --      3.5416                 1.4563                 1.2160
 IR Inten    --     31.5116                 9.5234                 9.7022

                     52                     53                     54
                      A                      A                      A
 Frequencies --   1177.1451              1181.8960              1199.2297
 Red. masses --      1.3561                 1.2087                 1.8115
 Frc consts  --      1.1072                 0.9948                 1.5350
 IR Inten    --     13.3373                47.2740                31.3122

                     55                     56                     57
                      A                      A                      A
 Frequencies --   1229.7151              1232.3662              1272.2724
 Red. masses --      2.1717                 2.1377                 3.5007
 Frc consts  --      1.9349                 1.9129                 3.3386
 IR Inten    --     29.8880                 7.3446              1173.9269

                     58                     59                     60
                      A                      A                      A
 Frequencies --   1279.4791              1302.0522              1350.1151
 Red. masses --      2.4132                 2.2479                 3.0445
 Frc consts  --      2.3276                 2.2454                 3.2697
 IR Inten    --    253.1051                21.5012                88.0467

                     61                     62                     63
                      A                      A                      A
 Frequencies --   1359.5341              1381.2509              1400.1940
 Red. masses --      6.5307                 5.1711                 6.7889
 Frc consts  --      7.1120                 5.8127                 7.8420
 IR Inten    --     65.0151                93.0282               234.7549

                     64                     65                     66
                      A                      A                      A
 Frequencies --   1436.6332              1468.4434              1480.8829
 Red. masses --      3.2838                 2.4175                 2.4423
 Frc consts  --      3.9932                 3.0714                 3.1557
 IR Inten    --    147.9009                14.4431                 5.1622

                     67                     68                     69
                      A                      A                      A
 Frequencies --   1505.8873              1521.8496              1579.0440
 Red. masses --      2.5715                 3.0645                 7.1415
 Frc consts  --      3.4358                 4.1818                10.4913
 IR Inten    --      3.0196                74.3626                14.0692

                     70                     71                     72
                      A                      A                      A
 Frequencies --   1604.4298              1613.0215              1624.2915
 Red. masses --      6.5875                 7.0555                 5.7375
 Frc consts  --      9.9910                10.8158                 8.9187
 IR Inten    --    256.2055                10.4904               103.4445

                     73                     74                     75
                      A                      A                      A
 Frequencies --   1646.7511              1690.3573              1707.6157
 Red. masses --      5.5669                12.3008                11.7897
 Frc consts  --      8.8944                20.7081                20.2551
 IR Inten    --     32.3790                95.2863               658.3125

                     76                     77                     78
                      A                      A                      A
 Frequencies --   3176.0760              3179.3622              3184.0186
 Red. masses --      1.0871                 1.0876                 1.0910
 Frc consts  --      6.4612                 6.4771                 6.5168
 IR Inten    --      0.0302                 3.1530                13.8791

                     79                     80                     81
                      A                      A                      A
 Frequencies --   3191.7345              3196.5360              3198.5847
 Red. masses --      1.0917                 1.0962                 1.0911
 Frc consts  --      6.5522                 6.5995                 6.5772
 IR Inten    --     12.6260                24.5368                 6.3869

                     82                     83                     84
                      A                      A                      A
 Frequencies --   3205.2017              3208.0772              3222.7954
 Red. masses --      1.0926                 1.0951                 1.0923
 Frc consts  --      6.6136                 6.6402                 6.6846
 IR Inten    --      3.3007                21.3543                 6.4500

 - Thermochemistry -
 -------------------
 Temperature   298.150 Kelvin.  Pressure   1.00000 Atm.
 Atom     1 has atomic number  6 and mass  12.00000

 Molecular mass:   292.02911 amu.
 Principal axes and moments of inertia in atomic units:
                           1         2         3
     Eigenvalues --  2976.200909033.81723**********
           X            0.84638  -0.11595   0.51981
           Y           -0.16311   0.87267   0.46026
           Z           -0.50699  -0.47434   0.71970
 This molecule is an asymmetric top.
 Rotational symmetry number  1.
 Warning -- assumption of classical behavior for rotation
           may cause significant error
 Rotational temperatures (Kelvin)      0.02910     0.00959     0.00726
 Rotational constants (GHZ):           0.60639     0.19978     0.15118
 Zero-point vibrational energy     566803.1 (Joules/Mol)
                                  135.46920 (Kcal/Mol)
 Warning -- explicit consideration of  24 degrees of freedom as
           vibrations may cause significant error
 Vibrational temperatures:     37.39    61.29   118.95   156.01   177.18
          (Kelvin)            232.38   251.43   341.24   377.93   393.45
                              405.39   432.72   488.80   565.35   587.51
                              598.91   637.26   644.78   688.28   701.18
                              742.54   796.78   847.53   853.76   901.34
                              943.52   984.32  1019.86  1047.17  1056.60
                             1084.71  1101.50  1119.57  1167.57  1186.58
                             1222.98  1238.81  1265.38  1315.44  1367.76
                             1383.08  1427.36  1428.77  1441.81  1459.17
                             1471.72  1511.48  1528.40  1576.78  1614.41
                             1684.58  1693.65  1700.48  1725.42  1769.29
                             1773.10  1830.52  1840.88  1873.36  1942.51
                             1956.07  1987.31  2014.57  2066.99  2112.76
                             2130.66  2166.64  2189.60  2271.89  2308.42
                             2320.78  2336.99  2369.31  2432.05  2456.88
                             4569.66  4574.39  4581.09  4592.19  4599.10
                             4602.05  4611.57  4615.71  4636.88

 Zero-point correction=                           0.215884 (Hartree/Particle)
 Thermal correction to Energy=                    0.231121
 Thermal correction to Enthalpy=                  0.232065
 Thermal correction to Gibbs Free Energy=         0.172372
 Sum of electronic and zero-point Energies=          -1302.034958
 Sum of electronic and thermal Energies=             -1302.019721
 Sum of electronic and thermal Enthalpies=           -1302.018777
 Sum of electronic and thermal Free Energies=        -1302.078469

                     E (Thermal)             CV                S
                      KCal/Mol        Cal/Mol-Kelvin    Cal/Mol-Kelvin
 Total                  145.031             61.292            125.634
 Electronic               0.000              0.000              0.000
 Translational            0.889              2.981             42.912
 Rotational               0.889              2.981             34.128
 Vibrational            143.253             55.330             48.593
 Vibration     1          0.593              1.985              6.114
 Vibration     2          0.595              1.980              5.134
 Vibration     3          0.600              1.961              3.826
 Vibration     4          0.606              1.942              3.297
 Vibration     5          0.610              1.930              3.050
 Vibration     6          0.622              1.890              2.532
 Vibration     7          0.627              1.874              2.384
 Vibration     8          0.656              1.784              1.824
 Vibration     9          0.670              1.741              1.644
 Vibration    10          0.676              1.722              1.574
 Vibration    11          0.681              1.707              1.523
 Vibration    12          0.693              1.672              1.413
 Vibration    13          0.720              1.596              1.213
 Vibration    14          0.760              1.485              0.989
 Vibration    15          0.773              1.452              0.933
 Vibration    16          0.779              1.435              0.905
 Vibration    17          0.803              1.377              0.817
 Vibration    18          0.807              1.365              0.801
 Vibration    19          0.835              1.298              0.714
 Vibration    20          0.843              1.278              0.691
 Vibration    21          0.871              1.214              0.619
 Vibration    22          0.909              1.131              0.536
 Vibration    23          0.946              1.055              0.469
 Vibration    24          0.951              1.046              0.461

                           ! Non-Optimized Parameters !
 Normal termination of Gaussian 16 at Sun Feb 11 10:10:13 2024.
