 Gaussian 16, Revision A.03,
 Gaussian 16:  ES64L-G16RevA.03 25-Dec-2016

 ----------------------------------------------------------------
 #P UB3LYP/6-311++G(d,p) SCRF=(PCM,Solvent=n,n-DiMethylFormamide)
 ----------------------------------------------------------------

 ------------------
 Quinone PCM in DMF
 ------------------
 Symbolic Z-matrix:
 Charge =  0 Multiplicity = 1

                         Standard orientation:
 ---------------------------------------------------------------------
 Center     Atomic      Atomic             Coordinates (Angstroms)
 Number     Number       Type             X           Y           Z
 ---------------------------------------------------------------------
      1          6           0       -1.377735   -2.085614   -0.000641
      2          6           0       -2.728451   -1.763217   -0.000946
      3          6           0       -3.121804   -0.428795   -0.000578
      4          6           0       -0.428237   -1.065156   -0.000113
      5          6           0       -0.820603    0.288192    0.000211
      6          6           0       -2.196021    0.622610    0.000127
      7          6           0        1.014158   -1.455538    0.000259
      8          6           0        2.053470   -0.386123    0.000197
      9          6           0        1.683638    0.915766   -0.002055
     10          6           0        0.243832    1.330282    0.000330
     11          8           0        1.336054   -2.634871    0.000465
     12          8           0       -0.018003    2.525898    0.002456
     13          6           0        3.487762   -0.848331    0.001972
     14          6           0        2.659705    2.057203   -0.003219
     15          6           0       -2.725266    2.035321    0.000728
     16          1           0       -1.037204   -3.112993   -0.000792
     17          1           0       -3.476802   -2.547769   -0.001464
     18          1           0       -4.179123   -0.186490   -0.000869
     19          1           0        3.528110   -1.935838    0.010008
     20          1           0        4.022258   -0.474469    0.879785
     21          1           0        4.019797   -0.488630   -0.883381
     22          1           0        3.691890    1.714378   -0.028260
     23          1           0        2.515012    2.681996    0.882812
     24          1           0        2.480007    2.710130   -0.861560
     25          1           0       -2.378221    2.596138   -0.869196
     26          1           0       -2.379679    2.594607    0.872148
     27          1           0       -3.817147    2.021132   -0.000244
 ---------------------------------------------------------------------

 SCF Done:  E(UB3LYP) =  -653.249308332     A.U. after   15 cycles

 The electronic state is 1-A.
 Alpha  occ. eigenvalues --  -19.13116 -19.12855 -10.27972 -10.27874 -10.21138
 Alpha  occ. eigenvalues --  -10.21081 -10.21016 -10.20647 -10.20527 -10.19536
 Alpha  occ. eigenvalues --  -10.19292 -10.19233 -10.17353 -10.17195 -10.16908
 Alpha  occ. eigenvalues --   -1.06552  -1.06275  -0.88906  -0.85028  -0.79548
 Alpha  occ. eigenvalues --   -0.78600  -0.74936  -0.71045  -0.69636  -0.67026
 Alpha  occ. eigenvalues --   -0.62037  -0.61311  -0.56898  -0.54576  -0.51837
 Alpha  occ. eigenvalues --   -0.49821  -0.47233  -0.46445  -0.46315  -0.45868
 Alpha  occ. eigenvalues --   -0.43316  -0.42924  -0.42573  -0.41804  -0.41316
 Alpha  occ. eigenvalues --   -0.40962  -0.39676  -0.39426  -0.39381  -0.38365
 Alpha  occ. eigenvalues --   -0.36827  -0.36815  -0.36517  -0.28945  -0.28535
 Alpha  occ. eigenvalues --   -0.27089  -0.26862  -0.26744
 Alpha virt. eigenvalues --   -0.12047  -0.05112  -0.02903  -0.00953   0.00137
 Alpha virt. eigenvalues --    0.00709   0.02060   0.02159   0.02378   0.02549
 Alpha virt. eigenvalues --    0.03524   0.04123   0.04367   0.04640   0.05277

  Beta  occ. eigenvalues --  -19.13116 -19.12855 -10.27972 -10.27874 -10.21138
  Beta  occ. eigenvalues --  -10.21081 -10.21016 -10.20647 -10.20527 -10.19536
  Beta  occ. eigenvalues --  -10.19292 -10.19233 -10.17353 -10.17195 -10.16908
  Beta  occ. eigenvalues --   -1.06552  -1.06275  -0.88906  -0.85028  -0.79548
  Beta  occ. eigenvalues --   -0.78600  -0.74936  -0.71045  -0.69636  -0.67026
  Beta  occ. eigenvalues --   -0.62037  -0.61311  -0.56898  -0.54576  -0.51837
  Beta  occ. eigenvalues --   -0.49821  -0.47233  -0.46445  -0.46315  -0.45868
  Beta  occ. eigenvalues --   -0.43316  -0.42924  -0.42573  -0.41804  -0.41316
  Beta  occ. eigenvalues --   -0.40962  -0.39676  -0.39426  -0.39381  -0.38365
  Beta  occ. eigenvalues --   -0.36827  -0.36815  -0.36517  -0.28945  -0.28535
  Beta  occ. eigenvalues --   -0.27089  -0.26862  -0.26744
  Beta virt. eigenvalues --   -0.12047  -0.05112  -0.02903  -0.00953   0.00137
  Beta virt. eigenvalues --    0.00709   0.02060   0.02159   0.02378   0.02549
  Beta virt. eigenvalues --    0.03524   0.04123   0.04367   0.04640   0.05277

 Mulliken charges and spin densities:
               1          2
     1  C    0.059880  -0.000000
     2  C   -0.323263   0.000000
     3  C   -0.556606   0.000000
     4  C    0.487292   0.000000
     5  C    1.029471  -0.000000
     6  C    0.705708  -0.000000
     7  C   -1.273158  -0.000000
     8  C    0.198549  -0.000000
     9  C    0.748774   0.000000
    10  C   -1.388076   0.000000
    11  O   -0.269469  -0.000000
    12  O   -0.232306  -0.000000
    13  C   -0.508240   0.000000
    14  C   -0.366925   0.000000
    15  C   -0.483771  -0.000000
    16  H    0.182231  -0.000000
    17  H    0.218564   0.000000
    18  H    0.149016  -0.000000
    19  H    0.199576   0.000000
    20  H    0.181627  -0.000000
    21  H    0.181541  -0.000000
    22  H    0.175794  -0.000000
    23  H    0.190783   0.000000
    24  H    0.187246   0.000000
    25  H    0.170696   0.000000
    26  H    0.170815   0.000000
    27  H    0.164252   0.000000
 Sum of Mulliken charges =  -0.00000  -0.00000

 Dipole moment (field-independent basis, Debye):
    X=             -0.9962    Y=              0.6162    Z=             -0.0027  Tot=              1.1713
 Quadrupole moment (field-independent basis, Debye-Ang):
   XX=            -69.9322   YY=           -101.2156   ZZ=            -89.0154
   XY=              8.3245   XZ=              0.0094   YZ=             -0.0058

 Normal termination of Gaussian 16 at Sun Jan 21 07:59:40 2024.
