 Q-Chem 5.4, Q-Chem, Inc., Pleasanton, CA (2021)
 Q-Chem 5.4.0 for Intel X86 EM64T Linux

User input:
--------------------------------------------------------------
$molecule
-2 1
N                 -5.0646480000     -0.6339880000     -0.6134770000
C                 -3.7399490000     -0.2067070000     -0.2969100000
C                 -3.5621130000      1.0275210000      0.3879420000
C                 -2.2896790000      1.4833270000      0.6653620000
C                 -1.1286960000      0.7755360000      0.2774250000
C                  0.1810540000      1.3282550000      0.5870350000
O                  0.3301290000      2.4381490000      1.1978340000
C                  1.3072360000      0.5208640000      0.1491100000
C                  2.6257140000      0.9756110000      0.4042400000
C                  3.7405960000      0.2655880000      0.0080940000
N                  5.0660850000      0.7567120000      0.2071280000
C                  3.5626590000     -0.9802050000     -0.6554300000
C                  2.2899980000     -1.4542320000     -0.8992520000
C                  1.1291320000     -0.7369390000     -0.5287890000
C                 -0.1806340000     -1.2905330000     -0.8367850000
O                 -0.3297670000     -2.4065730000     -1.4362800000
C                 -1.3067140000     -0.4772290000     -0.4097430000
C                 -2.6252190000     -0.9317770000     -0.6652780000
H                 -5.7142900000     -0.4920170000      0.1620580000
H                 -5.0893520000     -1.6157560000     -0.8718720000
H                 -4.4349510000      1.6126380000      0.6695980000
H                 -2.1362420000      2.4225340000      1.1872270000
H                  2.7214820000      1.9192960000      0.9348370000
H                  5.7088450000      0.0254010000      0.5164250000
H                  5.0881950000      1.5077030000      0.8903340000
H                  4.4358040000     -1.5400280000     -0.9836900000
H                  2.1364520000     -2.4027540000     -1.4039580000
H                 -2.7211290000     -1.8903940000     -1.1683750000
$end
$rem
MAX_SCF_CYCLES=200
BASIS  =  6-311++G(d,p)
GUI  =  2
JOB_TYPE  =  SP
METHOD  =  B3LYP
SOLVENT_METHOD = COSMO
$end
$solvent
dielectric 37.219
opticaldielectric 1.43
$end

--------------------------------------------------------------

             Standard Nuclear Orientation (Angstroms)
    I     Atom           X                Y                Z
 ----------------------------------------------------------------
    1      N       5.0940859211    -0.6001082879     0.0870796423
    2      C       3.7486593082    -0.1279069549     0.0202643017
    3      C       3.5134778653     1.2751290732     0.0081707665
    4      C       2.2202861816     1.7558573199    -0.0109308720
    5      C       1.0931378249     0.9021696253    -0.0009989039
    6      C      -0.2413257130     1.4818314891    -0.0019461217
    7      O      -0.4418547778     2.7415574361    -0.0084344056
    8      C      -1.3291915913     0.5182680961     0.0042059601
    9      C      -2.6678089519     0.9855730164     0.0044521300
   10      C      -3.7486209833     0.1278893202     0.0202704067
   11      N      -5.0940747174     0.6001304226     0.0872106511
   12      C      -3.5134776068    -1.2751379055     0.0081020070
   13      C      -2.2202779642    -1.7558518552    -0.0110178368
   14      C      -1.0931335273    -0.9021492179    -0.0010590500
   15      C       0.2413354737    -1.4818099146    -0.0019478184
   16      O       0.4418493722    -2.7415454734    -0.0083264213
   17      C       1.3291699677    -0.5182427480     0.0042860863
   18      C       2.6678176254    -0.9855647592     0.0044906325
   19      H       5.7195463040    -0.0794876164    -0.5304950131
   20      H       5.1575088361    -1.5844625939    -0.1543138195
   21      H       4.3593725265     1.9587172653     0.0347712539
   22      H       2.0232090018     2.8231256723    -0.0206586227
   23      H      -2.8076270196     2.0632806563    -0.0111432630
   24      H      -5.7196919015     0.0790664634    -0.5298114879
   25      H      -5.1576599989     1.5843101439    -0.1548512433
   26      H      -4.3593760866    -1.9587284524     0.0345280553
   27      H      -2.0232033402    -2.8231213236    -0.0208147469
   28      H       2.8075990423    -2.0632783678    -0.0112066799
 ----------------------------------------------------------------

   16    -799.6745897124      9.28e-07  Convergence criterion met
 Total energy in the final basis set =     -799.6745897124
    6    -799.9576283478      4.53e-06  Convergence criterion met
 Total energy in the final basis set =     -799.9576283478

                    Orbital Energies (a.u.)
 --------------------------------------------------------------

 Alpha MOs
 -- Occupied --
-19.0236 -19.0236 -14.3006 -14.3006 -10.1860 -10.1860 -10.1728 -10.1727
-10.1483 -10.1483 -10.1475 -10.1475 -10.1374 -10.1374 -10.1339 -10.1339
-10.1327 -10.1326  -0.9475  -0.9446  -0.8943  -0.8942  -0.8179  -0.8077
 -0.7417  -0.7214  -0.7161  -0.6949  -0.6295  -0.6127  -0.5813  -0.5698
 -0.5291  -0.5120  -0.5020  -0.4837  -0.4705  -0.4611  -0.4387  -0.4204
 -0.4199  -0.3998  -0.3982  -0.3889  -0.3854  -0.3732  -0.3716  -0.3633
 -0.3558  -0.3408  -0.3308  -0.3224  -0.3220  -0.3022  -0.2886  -0.2723
 -0.2325  -0.2250  -0.2073  -0.2064  -0.1986  -0.1912  -0.1012

          Ground-State Mulliken Net Atomic Charges

     Atom                 Charge (a.u.)
  ----------------------------------------
      1 N                    -0.443940
      2 C                    -0.530934
      3 C                    -0.247578
      4 C                     0.032552
      5 C                     0.142181
      6 C                    -0.643780
      7 O                    -0.699555
      8 C                     0.408369
      9 C                    -0.068656
     10 C                    -0.530188
     11 N                    -0.443944
     12 C                    -0.247464
     13 C                     0.032489
     14 C                     0.144222
     15 C                    -0.643932
     16 O                    -0.699586
     17 C                     0.410057
     18 C                    -0.067213
     19 H                     0.271143
     20 H                     0.282287
     21 H                     0.196123
     22 H                     0.158519
     23 H                     0.140405
     24 H                     0.271153
     25 H                     0.282283
     26 H                     0.196130
     27 H                     0.158500
     28 H                     0.140355
  ----------------------------------------
  Sum of atomic charges =    -2.000000

                    Cartesian Multipole Moments
 -----------------------------------------------------------------
    Charge (ESU x 10^10)
                -9.6064
    Dipole Moment (Debye)
         X       0.0004      Y      -0.0034      Z      -3.2372
       Tot       3.2372
    Quadrupole Moments (Debye-Ang)
        XX    -119.8086     XY       3.0664     YY    -163.1418
        XZ       0.0049     YZ      -0.0012     ZZ    -119.3163

 Total job time:  99.81s(wall), 721.79s(cpu)
        *  Thank you very much for using Q-Chem.  Have a nice day.  *
