 Gaussian 16, Revision A.03,
 Gaussian 16:  ES64L-G16RevA.03 25-Dec-2016

 --------------------------------------
 #P UB3LYP/6-311++G(d,p) nosym opt freq
 --------------------------------------

 -------
 Reduced
 -------
 Symbolic Z-matrix:
 Charge = -2 Multiplicity = 1

 SCF Done:  E(UB3LYP) =  -534.197205765     A.U. after   42 cycles
 SCF Done:  E(UB3LYP) =  -534.230500406     A.U. after   24 cycles
 SCF Done:  E(UB3LYP) =  -534.237143520     A.U. after   21 cycles
 SCF Done:  E(UB3LYP) =  -534.237960844     A.U. after   17 cycles
 SCF Done:  E(UB3LYP) =  -534.238288178     A.U. after   19 cycles
 SCF Done:  E(UB3LYP) =  -534.238317706     A.U. after   17 cycles
 SCF Done:  E(UB3LYP) =  -534.238312869     A.U. after   16 cycles
 SCF Done:  E(UB3LYP) =  -534.238313344     A.U. after   16 cycles
 SCF Done:  E(UB3LYP) =  -534.238319887     A.U. after   16 cycles
 SCF Done:  E(UB3LYP) =  -534.238320785     A.U. after   16 cycles
 SCF Done:  E(UB3LYP) =  -534.238320746     A.U. after   16 cycles
 Optimization completed.
    -- Stationary point found.
 Normal termination of Gaussian 16 at Sun Dec 17 21:15:00 2023.

 ----------------------------------------------------------------------
 #P Geom=AllCheck Guess=TCheck SCRF=Check GenChk UB3LYP/6-311++G(d,p) F
 req
 ----------------------------------------------------------------------

 Structure from the checkpoint file:  "056-an.chk"
 -------
 Reduced
 -------
 Charge = -2 Multiplicity = 1

                          Input orientation:
 ---------------------------------------------------------------------
 Center     Atomic      Atomic             Coordinates (Angstroms)
 Number     Number       Type             X           Y           Z
 ---------------------------------------------------------------------
      1          6           0       -0.547808    1.163299   -0.279885
      2          6           0       -1.413057    0.107164   -0.780218
      3          6           0       -1.149823   -1.236538   -0.661520
      4          6           0        0.033819   -1.766783   -0.016696
      5          6           0        0.886254   -0.761424    0.476196
      6          6           0        0.667497    0.668887    0.383872
      7          8           0       -0.884818    2.378262   -0.441043
      8          8           0        0.242552   -3.051213    0.073702
      9          6           0        1.629186    1.600475    0.935900
     10          6           0        2.914422    1.071349    1.633086
     11          8           0        1.560455    2.846146    0.925422
     12          1           0       -2.321026    0.452776   -1.275977
     13          1           0       -1.852151   -1.969670   -1.065126
     14          1           0        1.779603   -1.134164    0.964522
     15          1           0        3.040711   -0.009317    1.676964
     16          1           0        2.922561    1.472235    2.654099
     17          1           0        3.774283    1.509085    1.111311
 ---------------------------------------------------------------------

 SCF Done:  E(UB3LYP) =  -534.238320746     A.U. after    1 cycles

 Alpha  occ. eigenvalues --  -18.79966 -18.75972 -18.73928  -9.95934  -9.92383
 Alpha  occ. eigenvalues --   -9.91411  -9.90254  -9.87960  -9.87244  -9.87237
 Alpha  occ. eigenvalues --   -9.85496  -0.72539  -0.67731  -0.64731  -0.51878
 Alpha  occ. eigenvalues --   -0.47853  -0.43915  -0.38656  -0.32965  -0.28307
 Alpha  occ. eigenvalues --   -0.22979  -0.18363  -0.17497  -0.17281  -0.16254
 Alpha  occ. eigenvalues --   -0.14979  -0.11824  -0.10210  -0.09643  -0.08697
 Alpha  occ. eigenvalues --   -0.06758  -0.06193  -0.05160  -0.04111   0.03250
 Alpha  occ. eigenvalues --    0.03756   0.04462   0.08049   0.08361   0.14503
 Alpha virt. eigenvalues --    0.17863   0.19666   0.20957   0.21392   0.21924
 Alpha virt. eigenvalues --    0.24002   0.24025   0.27273   0.28042   0.28662
 Alpha virt. eigenvalues --    0.28871   0.30124   0.30300   0.31276   0.31390

  Beta  occ. eigenvalues --  -18.79966 -18.75972 -18.73928  -9.95934  -9.92383
  Beta  occ. eigenvalues --   -9.91411  -9.90254  -9.87960  -9.87244  -9.87237
  Beta  occ. eigenvalues --   -9.85496  -0.72539  -0.67731  -0.64731  -0.51878
  Beta  occ. eigenvalues --   -0.47853  -0.43915  -0.38656  -0.32965  -0.28307
  Beta  occ. eigenvalues --   -0.22979  -0.18363  -0.17497  -0.17281  -0.16254
  Beta  occ. eigenvalues --   -0.14979  -0.11824  -0.10210  -0.09643  -0.08697
  Beta  occ. eigenvalues --   -0.06758  -0.06193  -0.05160  -0.04111   0.03250
  Beta  occ. eigenvalues --    0.03756   0.04462   0.08049   0.08361   0.14503
  Beta virt. eigenvalues --    0.17863   0.19666   0.20957   0.21392   0.21924
  Beta virt. eigenvalues --    0.24002   0.24025   0.27273   0.28042   0.28662
  Beta virt. eigenvalues --    0.28871   0.30124   0.30300   0.31276   0.31390

 Mulliken charges and spin densities:
               1          2
     1  C   -0.830280  -0.000000
     2  C    0.207937  -0.000000
     3  C    0.364665   0.000000
     4  C   -1.036420  -0.000000
     5  C   -0.871695   0.000000
     6  C    1.899764   0.000000
     7  O   -0.461386  -0.000000
     8  O   -0.603159   0.000000
     9  C   -0.403379  -0.000000
    10  C   -0.242199   0.000000
    11  O   -0.371738   0.000000
    12  H    0.055605  -0.000000
    13  H    0.052943   0.000000
    14  H   -0.026622   0.000000
    15  H    0.118724   0.000000
    16  H    0.073402  -0.000000
    17  H    0.073839  -0.000000
 Sum of Mulliken charges =  -2.00000   0.00000

 Dipole moment (field-independent basis, Debye):
    X=             -2.1332    Y=             -1.6885    Z=             -1.2283  Tot=              2.9850
 Quadrupole moment (field-independent basis, Debye-Ang):
   XX=            -87.9709   YY=           -146.7181   ZZ=            -77.8856
   XY=             -2.3342   XZ=             -8.1895   YZ=             -2.8004

  Exact polarizability: 206.364  30.686 187.098  56.507  18.630 137.425
 Approx polarizability: 301.753  39.540 295.195  95.231  25.273 184.760

 ******    1 imaginary frequencies (negative Signs) ******

                      1                      2                      3
                      A                      A                      A
 Frequencies --   -138.2643                20.9931                77.6724
 Red. masses --      1.0501                 3.6916                 6.1201
 Frc consts  --      0.0118                 0.0010                 0.0218
 IR Inten    --      0.8329                 4.0136                 2.3365

                      4                      5                      6
                      A                      A                      A
 Frequencies --    152.5383               208.2027               320.8176
 Red. masses --      8.0855                 7.1266                 6.1529
 Frc consts  --      0.1108                 0.1820                 0.3731
 IR Inten    --      6.5073                 1.5598                 0.0780

                      7                      8                      9
                      A                      A                      A
 Frequencies --    327.0394               406.4580               423.8689
 Red. masses --      9.2728                 4.6506                 7.7601
 Frc consts  --      0.5843                 0.4527                 0.8214
 IR Inten    --      0.5546                27.9111                 4.3379

                     10                     11                     12
                      A                      A                      A
 Frequencies --    425.1558               472.4433               516.5724
 Red. masses --      3.7207                 9.7627                 2.0238
 Frc consts  --      0.3963                 1.2839                 0.3182
 IR Inten    --      0.1932                13.7833                24.0832

                     13                     14                     15
                      A                      A                      A
 Frequencies --    517.8918               612.7777               624.0965
 Red. masses --      4.1866                 4.0687                 2.9835
 Frc consts  --      0.6616                 0.9001                 0.6847
 IR Inten    --      6.3032                 9.8835                 0.5992

                     16                     17                     18
                      A                      A                      A
 Frequencies --    690.8425               709.8639               783.6228
 Red. masses --      6.4563                 1.6626                 2.6318
 Frc consts  --      1.8155                 0.4936                 0.9522
 IR Inten    --     13.8329                 1.8911                14.3695

                     19                     20                     21
                      A                      A                      A
 Frequencies --    800.3368               825.4997               888.5740
 Red. masses --      5.2984                 2.6319                 5.3363
 Frc consts  --      1.9996                 1.0567                 2.4824
 IR Inten    --     44.8000                40.1636                44.3348

                     22                     23                     24
                      A                      A                      A
 Frequencies --    906.5576               917.5274              1017.4218
 Red. masses --      1.2575                 2.8167                 1.6915
 Frc consts  --      0.6089                 1.3971                 1.0316
 IR Inten    --      0.4497                24.9971                 1.3683

                     25                     26                     27
                      A                      A                      A
 Frequencies --   1035.2217              1100.9162              1170.3640
 Red. masses --      1.9105                 1.6133                 2.3325
 Frc consts  --      1.2063                 1.1521                 1.8824
 IR Inten    --     18.8990                 5.4465               251.3157

                     28                     29                     30
                      A                      A                      A
 Frequencies --   1219.4761              1254.3332              1309.7621
 Red. masses --      1.8397                 4.3230                 2.6017
 Frc consts  --      1.6119                 4.0074                 2.6296
 IR Inten    --    129.4810               137.8480                71.6701

                     31                     32                     33
                      A                      A                      A
 Frequencies --   1337.1153              1352.6116              1415.0037
 Red. masses --      1.6036                 2.5447                 5.3969
 Frc consts  --      1.6892                 2.7431                 6.3666
 IR Inten    --     68.5273               163.3965               268.5492

                     34                     35                     36
                      A                      A                      A
 Frequencies --   1446.3154              1473.3081              1475.8261
 Red. masses --      2.2697                 1.0501                 1.7539
 Frc consts  --      2.7973                 1.3429                 2.2507
 IR Inten    --    238.2421                 0.0443                49.8706

                     37                     38                     39
                      A                      A                      A
 Frequencies --   1480.6871              1579.4243              1630.8045
 Red. masses --      2.8577                 7.7087                 7.5552
 Frc consts  --      3.6915                11.3300                11.8386
 IR Inten    --    304.4380               853.4781               110.5070

                     40                     41                     42
                      A                      A                      A
 Frequencies --   2992.7231              3032.9406              3058.1282
 Red. masses --      1.0397                 1.0994                 1.0833
 Frc consts  --      5.4863                 5.9586                 5.9692
 IR Inten    --    185.0623               148.6764                79.1190

                     43                     44                     45
                      A                      A                      A
 Frequencies --   3094.7088              3111.1015              3163.3506
 Red. masses --      1.0923                 1.0949                 1.0831
 Frc consts  --      6.1638                 6.2437                 6.3858
 IR Inten    --    169.1332                17.3701                58.8302

 - Thermochemistry -
 -------------------
 Temperature   298.150 Kelvin.  Pressure   1.00000 Atm.
 Atom     1 has atomic number  6 and mass  12.00000

 Molecular mass:   150.03169 amu.
 Principal axes and moments of inertia in atomic units:
                           1         2         3
     Eigenvalues --  1042.976941980.898533012.69171
           X            0.40621   0.77492  -0.48424
           Y            0.88091  -0.47294  -0.01788
           Z            0.24287   0.41932   0.87475
 This molecule is an asymmetric top.
 Rotational symmetry number  1.
 Warning -- assumption of classical behavior for rotation
           may cause significant error
 Rotational temperatures (Kelvin)      0.08304     0.04372     0.02875
 Rotational constants (GHZ):           1.73037     0.91107     0.59905
    1 imaginary frequencies ignored.
 Zero-point vibrational energy     307326.0 (Joules/Mol)
                                   73.45268 (Kcal/Mol)
 Warning -- explicit consideration of  13 degrees of freedom as
           vibrations may cause significant error
 Vibrational temperatures:     30.20   111.75   219.47   299.56   461.58
          (Kelvin)            470.54   584.80   609.85   611.70   679.74
                              743.23   745.13   881.65   897.94   993.97
                             1021.34  1127.46  1151.51  1187.71  1278.46
                             1304.33  1320.12  1463.84  1489.45  1583.97
                             1683.89  1754.55  1804.71  1884.46  1923.81
                             1946.11  2035.87  2080.93  2119.76  2123.38
                             2130.38  2272.44  2346.36  4305.86  4363.73
                             4399.96  4452.60  4476.18  4551.36

 Zero-point correction=                           0.117054 (Hartree/Particle)
 Thermal correction to Energy=                    0.126198
 Thermal correction to Enthalpy=                  0.127142
 Thermal correction to Gibbs Free Energy=         0.081271
 Sum of electronic and zero-point Energies=           -534.121266
 Sum of electronic and thermal Energies=              -534.112123
 Sum of electronic and thermal Enthalpies=            -534.111179
 Sum of electronic and thermal Free Energies=         -534.157050

                     E (Thermal)             CV                S
                      KCal/Mol        Cal/Mol-Kelvin    Cal/Mol-Kelvin
 Total                   79.190             34.489             96.545
 Electronic               0.000              0.000              0.000
 Translational            0.889              2.981             40.927
 Rotational               0.889              2.981             30.210
 Vibrational             77.413             28.527             25.407
 Vibration     1          0.593              1.986              6.538
 Vibration     2          0.599              1.964              3.949
 Vibration     3          0.619              1.900              2.640
 Vibration     4          0.642              1.828              2.059
 Vibration     5          0.706              1.634              1.306
 Vibration     6          0.711              1.621              1.275
 Vibration     7          0.771              1.456              0.939
 Vibration     8          0.786              1.418              0.879
 Vibration     9          0.787              1.416              0.875
 Vibration    10          0.829              1.311              0.731
 Vibration    11          0.872              1.213              0.618
 Vibration    12          0.873              1.210              0.615
 Vibration    13          0.972              1.005              0.428

                           ! Non-Optimized Parameters !
 Normal termination of Gaussian 16 at Sun Dec 17 21:26:15 2023.
