 Q-Chem 5.4, Q-Chem, Inc., Pleasanton, CA (2021)
 Q-Chem 5.4.0 for Intel X86 EM64T Linux

User input:
--------------------------------------------------------------
$molecule
-2 1
C                 -4.6669330000      0.2851680000     -0.0836420000
C                 -3.2005000000     -0.0720180000     -0.0282860000
C                 -2.8173040000     -1.4475410000     -0.0613090000
C                 -1.4849920000     -1.8080800000     -0.0132010000
O                 -1.1385140000     -3.1226100000     -0.0454700000
C                 -0.4458520000     -0.8114360000      0.0712490000
C                  0.9168750000     -1.1997900000      0.1195300000
O                  1.2732450000     -2.5052570000      0.0875190000
C                  1.8954630000     -0.1747720000      0.2025200000
C                  3.2970090000     -0.5097260000      0.2546160000
O                  3.6678700000     -1.8190230000      0.2232900000
C                  4.2625650000      0.4758070000      0.3354600000
C                  3.8776990000      1.8454950000      0.3684900000
C                  2.5486130000      2.2010250000      0.3206230000
C                  1.5215190000      1.2216190000      0.2371350000
C                  0.1341890000      1.6468490000      0.1891840000
O                 -0.2033640000      2.8833900000      0.2196200000
C                 -0.8394280000      0.5774600000      0.1046440000
C                 -2.2260550000      0.8963670000      0.0524470000
H                 -5.1469640000     -0.0847230000     -1.0034350000
H                 -5.2297850000     -0.1513560000      0.7565480000
H                 -4.8051790000      1.3704690000     -0.0490400000
H                 -3.5653710000     -2.2347120000     -0.1243200000
H                 -0.1159750000     -3.1149180000      0.0016740000
H                  2.7835750000     -2.3296040000      0.1636280000
H                  5.3075340000      0.1796930000      0.3725780000
H                  4.6482400000      2.6125280000      0.4322860000
H                  2.2316590000      3.2379970000      0.3445130000
H                 -2.4798380000      1.9516990000      0.0796440000
$end
$rem
MAX_SCF_CYCLES=200
BASIS  =  6-311++G(d,p)
GUI  =  2
JOB_TYPE  =  SP
METHOD  =  B3LYP
SOLVENT_METHOD = COSMO
$end
$solvent
dielectric 37.219
opticaldielectric 1.43
$end

--------------------------------------------------------------

             Standard Nuclear Orientation (Angstroms)
    I     Atom           X                Y                Z
 ----------------------------------------------------------------
    1      C       4.8778086105    -1.0245895239    -0.0009647796
    2      C       3.4663311739    -0.4871862281     0.0000413981
    3      C       3.2594928239     0.9260409580     0.0002256769
    4      C       1.9817039924     1.4500769430     0.0002881223
    5      O       1.8036207848     2.7981732470     0.0006623410
    6      C       0.8236606132     0.5903220576     0.0000164821
    7      C      -0.4808141033     1.1457682351    -0.0001204021
    8      O      -0.6698409283     2.4861178924    -0.0002780661
    9      C      -1.5823122989     0.2502876718    -0.0001121805
   10      C      -2.9320937587     0.7575640945    -0.0001969450
   11      O      -3.1350380682     2.1035178237    -0.0001958367
   12      C      -4.0156548517    -0.1003431192    -0.0002742454
   13      C      -3.8064356102    -1.5079955379    -0.0001593611
   14      C      -2.5312321524    -2.0266654919     0.0000553060
   15      C      -1.3873199221    -1.1825131055     0.0000970332
   16      C      -0.0630719322    -1.7776362738     0.0003336410
   17      O       0.1159674994    -3.0472215741     0.0005978320
   18      C       1.0391015978    -0.8374855434     0.0001872944
   19      C       2.3761017581    -1.3269660822     0.0000774590
   20      H       5.4457625662    -0.6899941904    -0.8834286841
   21      H       5.4476832540    -0.6886702822     0.8797599029
   22      H       4.8779625995    -2.1192067112    -0.0001250401
   23      H       4.1019446510     1.6141451768     0.0007814086
   24      H       0.7870108367     2.9180560360     0.0004163500
   25      H      -2.1921904538     2.5000887919    -0.0002413821
   26      H      -5.0161691754     0.3239121585    -0.0003464803
   27      H      -4.6686906148    -2.1733219905    -0.0002216668
   28      H      -2.3474333110    -3.0955712234     0.0002038997
   29      H       2.4948497047    -2.4062112006    -0.0000554672
 ----------------------------------------------------------------

   11    -878.8032611285      7.50e-06  Convergence criterion met
 Total energy in the final basis set =     -878.8032611285
    6    -879.0634467728      2.21e-06  Convergence criterion met
 Total energy in the final basis set =     -879.0634467728

                    Orbital Energies (a.u.)
 --------------------------------------------------------------

 Alpha MOs
 -- Occupied --
-19.1144 -19.1142 -19.0658 -19.0324 -10.2155 -10.2155 -10.1939 -10.1870
-10.1617 -10.1539 -10.1535 -10.1527 -10.1525 -10.1461 -10.1452 -10.1441
-10.1427 -10.1416 -10.1381  -1.0357  -1.0286  -0.9589  -0.9517  -0.8354
 -0.8224  -0.7725  -0.7316  -0.7224  -0.7167  -0.6807  -0.6446  -0.6135
 -0.5949  -0.5664  -0.5566  -0.5121  -0.4987  -0.4906  -0.4753  -0.4528
 -0.4438  -0.4433  -0.4143  -0.4131  -0.4016  -0.3990  -0.3927  -0.3863
 -0.3851  -0.3805  -0.3729  -0.3585  -0.3574  -0.3401  -0.3356  -0.3348
 -0.3270  -0.3166  -0.3110  -0.2924  -0.2447  -0.2422  -0.2213  -0.2121
 -0.2095  -0.2072  -0.1223

          Ground-State Mulliken Net Atomic Charges

     Atom                 Charge (a.u.)
  ----------------------------------------
      1 C                    -0.336097
      2 C                     0.344334
      3 C                    -0.415394
      4 C                     0.015773
      5 O                    -0.492320
      6 C                     0.371317
      7 C                    -0.375254
      8 O                    -0.777957
      9 C                     0.497993
     10 C                    -0.089902
     11 O                    -0.490950
     12 C                    -0.358083
     13 C                    -0.448402
     14 C                    -0.227205
     15 C                     0.220363
     16 C                    -0.426459
     17 O                    -0.667560
     18 C                    -0.130883
     19 C                    -0.416042
     20 H                     0.162277
     21 H                     0.162151
     22 H                     0.166370
     23 H                     0.174878
     24 H                     0.453927
     25 H                     0.451628
     26 H                     0.181057
     27 H                     0.189334
     28 H                     0.146725
     29 H                     0.114381
  ----------------------------------------
  Sum of atomic charges =    -2.000000

                    Cartesian Multipole Moments
 -----------------------------------------------------------------
    Charge (ESU x 10^10)
                -9.6064
    Dipole Moment (Debye)
         X       3.4535      Y       1.1267      Z      -0.0013
       Tot       3.6326
    Quadrupole Moments (Debye-Ang)
        XX    -149.2234     XY       3.4273     YY    -177.9041
        XZ      -0.0050     YZ       0.0049     ZZ    -122.1971

 Total job time:  84.05s(wall), 645.36s(cpu)
        *  Thank you very much for using Q-Chem.  Have a nice day.  *
