 Q-Chem 5.4, Q-Chem, Inc., Pleasanton, CA (2021)
 Q-Chem 5.4.0 for Intel X86 EM64T Linux

User input:
--------------------------------------------------------------
$molecule
-2 1
N                 -2.9383260000     -1.8691260000     -0.2485970000
C                 -2.5475880000     -0.5257520000     -0.1053160000
C                 -3.5047510000      0.4749300000     -0.0038190000
C                 -3.1212970000      1.8225890000      0.2152850000
C                 -1.7907440000      2.1482970000      0.3398470000
C                 -0.7702140000      1.1650880000      0.2264390000
C                  0.6081750000      1.6260360000      0.3465550000
O                  0.8680000000      2.8574630000      0.5641410000
C                  1.6181410000      0.5954150000      0.1922920000
C                  3.0244550000      0.8116870000      0.2914510000
Cl                 3.7199980000      2.4245740000      0.6943630000
C                  3.9818860000     -0.1622920000      0.1101680000
C                  3.5763220000     -1.4904630000     -0.1972710000
C                  2.2377860000     -1.7771870000     -0.2968170000
C                  1.2312560000     -0.7926440000     -0.1073590000
C                 -0.1328810000     -1.2220850000     -0.2287260000
O                 -0.4169430000     -2.4676810000     -0.5274730000
C                 -1.1384920000     -0.2110890000     -0.0221520000
H                 -3.7401230000     -1.9865930000     -0.8540540000
H                 -2.0992940000     -2.4336230000     -0.4962930000
H                 -4.5581610000      0.2008310000     -0.0528580000
H                 -3.8877340000      2.5923480000      0.2968140000
H                 -1.4610590000      3.1651610000      0.5198380000
H                  5.0305520000      0.0937920000      0.2095710000
H                  4.3285010000     -2.2631270000     -0.3431600000
H                  1.8825350000     -2.7765500000     -0.5228700000
$end

$rem
BASIS  =  6-311++G(d,p)
GUI  =  2
JOB_TYPE  =  SP
METHOD  =  B3LYP
SCF_CONVERGENCE  = 8
SOLVENT_METHOD = sm12
$end

$smx
solvent dimethylformamide
charges CM5
$end

--------------------------------------------------------------

             Standard Nuclear Orientation (Angstroms)
    I     Atom           X                Y                Z
 ----------------------------------------------------------------
    1      N      -2.9383260000    -1.8691260000    -0.2485970000
    2      C      -2.5475880000    -0.5257520000    -0.1053160000
    3      C      -3.5047510000     0.4749300000    -0.0038190000
    4      C      -3.1212970000     1.8225890000     0.2152850000
    5      C      -1.7907440000     2.1482970000     0.3398470000
    6      C      -0.7702140000     1.1650880000     0.2264390000
    7      C       0.6081750000     1.6260360000     0.3465550000
    8      O       0.8680000000     2.8574630000     0.5641410000
    9      C       1.6181410000     0.5954150000     0.1922920000
   10      C       3.0244550000     0.8116870000     0.2914510000
   11      Cl      3.7199980000     2.4245740000     0.6943630000
   12      C       3.9818860000    -0.1622920000     0.1101680000
   13      C       3.5763220000    -1.4904630000    -0.1972710000
   14      C       2.2377860000    -1.7771870000    -0.2968170000
   15      C       1.2312560000    -0.7926440000    -0.1073590000
   16      C      -0.1328810000    -1.2220850000    -0.2287260000
   17      O      -0.4169430000    -2.4676810000    -0.5274730000
   18      C      -1.1384920000    -0.2110890000    -0.0221520000
   19      H      -3.7401230000    -1.9865930000    -0.8540540000
   20      H      -2.0992940000    -2.4336230000    -0.4962930000
   21      H      -4.5581610000     0.2008310000    -0.0528580000
   22      H      -3.8877340000     2.5923480000     0.2968140000
   23      H      -1.4610590000     3.1651610000     0.5198380000
   24      H       5.0305520000     0.0937920000     0.2095710000
   25      H       4.3285010000    -2.2631270000    -0.3431600000
   26      H       1.8825350000    -2.7765500000    -0.5228700000
 ----------------------------------------------------------------

   18   -1203.9204524083      7.73e-09  Convergence criterion met
 Total energy in the final basis set =    -1204.1952454317

                    Orbital Energies (a.u.)
 --------------------------------------------------------------

 Alpha MOs
 -- Occupied --
******** -19.0363 -19.0257 -14.2983 -10.2276 -10.2106 -10.1949 -10.1930
-10.1732 -10.1718 -10.1715 -10.1680 -10.1650 -10.1621 -10.1618 -10.1588
-10.1562 -10.1543  -9.4476  -7.2122  -7.2030  -7.2020  -0.9537  -0.9494
 -0.8996  -0.8683  -0.8286  -0.8152  -0.7722  -0.7286  -0.7255  -0.7185
 -0.6552  -0.6267  -0.6170  -0.5698  -0.5403  -0.5368  -0.5167  -0.4868
 -0.4672  -0.4609  -0.4562  -0.4387  -0.4272  -0.4161  -0.4040  -0.4009
 -0.3848  -0.3779  -0.3755  -0.3682  -0.3503  -0.3420  -0.3399  -0.3365
 -0.3239  -0.3082  -0.2954  -0.2944  -0.2407  -0.2384  -0.2353  -0.2181
 -0.2059  -0.1965  -0.1198

          Ground-State Mulliken Net Atomic Charges

     Atom                 Charge (a.u.)
  ----------------------------------------
      1 N                    -0.209849
      2 C                    -0.603735
      3 C                     2.028444
      4 C                     1.209638
      5 C                    -0.580231
      6 C                    -1.614748
      7 C                    -3.622261
      8 O                    -0.206256
      9 C                    -1.406855
     10 C                     1.164737
     11 Cl                    0.964707
     12 C                     2.583903
     13 C                     1.125088
     14 C                     0.805028
     15 C                    -0.868984
     16 C                    -3.011267
     17 O                    -0.280725
     18 C                    -1.829978
     19 H                     0.377167
     20 H                     0.283008
     21 H                     0.319364
     22 H                     0.384545
     23 H                     0.086117
     24 H                     0.384274
     25 H                     0.375224
     26 H                     0.143643
  ----------------------------------------
  Sum of atomic charges =    -2.000000

                    Cartesian Multipole Moments
 -----------------------------------------------------------------
    Charge (ESU x 10^10)
                -9.6064
    Dipole Moment (Debye)
         X      -2.6283      Y      -3.8382      Z      -1.8428
       Tot       5.0036
    Quadrupole Moments (Debye-Ang)
        XX    -161.6719     XY     -10.4603     YY    -171.3135
        XZ       0.5696     YZ      -6.7592     ZZ    -127.1352

 Total job time:  700.56s(wall), 5294.87s(cpu)
        *  Thank you very much for using Q-Chem.  Have a nice day.  *
