 Gaussian 16, Revision A.03,
 Gaussian 16:  ES64L-G16RevA.03 25-Dec-2016

 ----------------------------------------------------------------
 #P UB3LYP/6-311++G(d,p) SCRF=(PCM,Solvent=n,n-DiMethylFormamide)
 ----------------------------------------------------------------

 -------
 Reduced
 -------
 Symbolic Z-matrix:
 Charge = -2 Multiplicity = 1

                         Standard orientation:
 ---------------------------------------------------------------------
 Center     Atomic      Atomic             Coordinates (Angstroms)
 Number     Number       Type             X           Y           Z
 ---------------------------------------------------------------------
      1          6           0       -1.211210    1.360945    0.466002
      2          6           0       -2.417092    1.894993   -0.113570
      3          6           0       -3.383192    1.124456   -0.728836
      4          6           0       -3.309286   -0.314242   -0.866933
      5          6           0       -2.131466   -0.868389   -0.299205
      6          6           0       -1.147013   -0.075668    0.346450
      7          8           0       -0.311641    2.112127    0.992604
      8          8           0       -4.242645   -0.997736   -1.445208
      9         16           0        0.270507   -0.909199    0.999437
     10          6           0        1.703243   -0.285476    0.071355
     11          6           0        2.247428   -1.080208   -0.942513
     12          6           0        2.246760    0.974555    0.359747
     13          6           0        3.343594    1.420541   -0.376167
     14          6           0        3.347605   -0.624755   -1.665209
     15          6           0        3.904553    0.629136   -1.383177
     16          8           0        0.535917   -0.598551    2.423483
     17          8           0        0.199038   -2.354104    0.646625
     18          1           0       -2.526943    2.977543   -0.055652
     19          1           0       -4.268383    1.602645   -1.150359
     20          1           0       -1.995294   -1.942420   -0.340082
     21          1           0        1.800218   -2.047282   -1.139038
     22          1           0        1.758128    1.586400    1.107682
     23          1           0        3.761515    2.401199   -0.164208
     24          1           0        3.772689   -1.247041   -2.448422
     25          1           0        4.761059    0.986938   -1.948609
 ---------------------------------------------------------------------

 SCF Done:  E(UB3LYP) =  -1161.60254467     A.U. after   18 cycles

 The electronic state is 1-A.
 Alpha  occ. eigenvalues --  -89.03164 -19.10000 -19.09828 -19.03070 -19.01885
 Alpha  occ. eigenvalues --  -10.19884 -10.19501 -10.18295 -10.18138 -10.17989
 Alpha  occ. eigenvalues --  -10.17887 -10.17827 -10.17635 -10.16544 -10.13984
 Alpha  occ. eigenvalues --  -10.13751 -10.13487  -8.09531  -6.05845  -6.05715
 Alpha  occ. eigenvalues --   -6.05582  -1.08722  -0.98220  -0.95024  -0.93258
 Alpha  occ. eigenvalues --   -0.86353  -0.79901  -0.76747  -0.75221  -0.73211
 Alpha  occ. eigenvalues --   -0.67647  -0.64624  -0.61132  -0.60077  -0.56379
 Alpha  occ. eigenvalues --   -0.54837  -0.51940  -0.47451  -0.46868  -0.46182
 Alpha  occ. eigenvalues --   -0.44858  -0.44426  -0.43624  -0.42744  -0.42432
 Alpha  occ. eigenvalues --   -0.40050  -0.38015  -0.37594  -0.36697  -0.36433
 Alpha  occ. eigenvalues --   -0.35012  -0.34442  -0.33117  -0.32645  -0.32031
 Alpha  occ. eigenvalues --   -0.30833  -0.29227  -0.28448  -0.26576  -0.26073
 Alpha  occ. eigenvalues --   -0.23793  -0.23131  -0.20784  -0.19954  -0.13139
 Alpha virt. eigenvalues --   -0.03529  -0.01642  -0.00056   0.00145   0.01016
 Alpha virt. eigenvalues --    0.01513   0.02216   0.02742   0.03447   0.04086
 Alpha virt. eigenvalues --    0.04314   0.04671   0.05431   0.05983   0.06564

  Beta  occ. eigenvalues --  -89.03164 -19.10000 -19.09828 -19.03070 -19.01885
  Beta  occ. eigenvalues --  -10.19884 -10.19501 -10.18295 -10.18138 -10.17989
  Beta  occ. eigenvalues --  -10.17887 -10.17827 -10.17635 -10.16544 -10.13984
  Beta  occ. eigenvalues --  -10.13751 -10.13487  -8.09531  -6.05845  -6.05715
  Beta  occ. eigenvalues --   -6.05582  -1.08722  -0.98220  -0.95024  -0.93258
  Beta  occ. eigenvalues --   -0.86353  -0.79901  -0.76747  -0.75221  -0.73211
  Beta  occ. eigenvalues --   -0.67647  -0.64624  -0.61132  -0.60077  -0.56379
  Beta  occ. eigenvalues --   -0.54837  -0.51940  -0.47451  -0.46868  -0.46182
  Beta  occ. eigenvalues --   -0.44858  -0.44426  -0.43624  -0.42744  -0.42432
  Beta  occ. eigenvalues --   -0.40050  -0.38015  -0.37594  -0.36697  -0.36433
  Beta  occ. eigenvalues --   -0.35012  -0.34442  -0.33117  -0.32645  -0.32031
  Beta  occ. eigenvalues --   -0.30833  -0.29227  -0.28448  -0.26576  -0.26073
  Beta  occ. eigenvalues --   -0.23793  -0.23131  -0.20784  -0.19954  -0.13139
  Beta virt. eigenvalues --   -0.03529  -0.01642  -0.00056   0.00145   0.01016
  Beta virt. eigenvalues --    0.01513   0.02216   0.02742   0.03447   0.04086
  Beta virt. eigenvalues --    0.04314   0.04671   0.05431   0.05983   0.06564

 Mulliken charges and spin densities:
               1          2
     1  C   -0.655528  -0.000000
     2  C    0.102700   0.000000
     3  C    0.003840  -0.000000
     4  C   -0.548314  -0.000000
     5  C   -0.233776   0.000000
     6  C    0.396367  -0.000000
     7  O   -0.576114   0.000000
     8  O   -0.715238   0.000000
     9  S    0.231095   0.000000
    10  C    0.193711   0.000000
    11  C    0.245667  -0.000000
    12  C   -0.330303  -0.000000
    13  C   -0.425527  -0.000000
    14  C   -0.451779   0.000000
    15  C   -0.325311   0.000000
    16  O   -0.233307   0.000000
    17  O   -0.314335   0.000000
    18  H    0.161327   0.000000
    19  H    0.158036  -0.000000
    20  H    0.209483   0.000000
    21  H    0.240253   0.000000
    22  H    0.278891  -0.000000
    23  H    0.203501  -0.000000
    24  H    0.202058   0.000000
    25  H    0.182603  -0.000000
 Sum of Mulliken charges =  -2.00000   0.00000

 Dipole moment (field-independent basis, Debye):
    X=             18.1622    Y=              2.2611    Z=             -3.2306  Tot=             18.5853
 Quadrupole moment (field-independent basis, Debye-Ang):
   XX=           -180.3582   YY=           -139.2080   ZZ=           -136.9003
   XY=            -10.9017   XZ=            -29.2269   YZ=             -4.9030

 Normal termination of Gaussian 16 at Wed Jan 24 22:53:29 2024.
