 Gaussian 16, Revision A.03,
 Gaussian 16:  ES64L-G16RevA.03 25-Dec-2016

 ----------------------------------------------------------------
 #P UB3LYP/6-311++G(d,p) SCRF=(PCM,Solvent=n,n-DiMethylFormamide)
 ----------------------------------------------------------------

 ------------------
 Quinone PCM in DMF
 ------------------
 Symbolic Z-matrix:
 Charge =  0 Multiplicity = 1

                         Standard orientation:
 ---------------------------------------------------------------------
 Center     Atomic      Atomic             Coordinates (Angstroms)
 Number     Number       Type             X           Y           Z
 ---------------------------------------------------------------------
      1          6           0      -16.779830   -1.546005   -0.956325
      2          6           0      -15.974280   -0.428347   -0.426038
      3          6           0      -16.495621    0.529616    0.355037
      4          6           0      -17.952814    0.467404    0.700518
      5          6           0      -18.786282   -0.655027    0.167863
      6          6           0      -18.233874   -1.612346   -0.612536
      7          8           0      -16.257833   -2.395971   -1.664719
      8          8           0      -18.447258    1.330957    1.409718
      9          6           0      -19.020609   -2.764620   -1.169368
     10          6           0      -20.241029   -0.661600    0.548140
     11          1           0      -14.929002   -0.427664   -0.713502
     12          1           0      -19.483026   -3.348015   -0.366845
     13          1           0      -18.374964   -3.419497   -1.751988
     14          1           0      -19.831993   -2.409925   -1.813379
     15          1           0      -20.484725    0.214135    1.146750
     16          1           0      -20.489281   -1.558107    1.125814
     17          1           0      -20.878162   -0.669559   -0.341663
     18          6           0      -15.721311    1.699904    0.916079
     19          6           0      -14.228562    1.607245    0.766410
     20          6           0      -13.424416    2.354250   -0.003048
     21          6           0      -11.927423    2.121391    0.015360
     22          6           0      -11.350346    1.563931   -1.310139
     23          6           0       -9.856395    1.401510   -1.251325
     24          6           0       -9.128434    0.278621   -1.332249
     25          6           0       -7.617585    0.345820   -1.233225
     26          6           0       -7.036779   -0.279672    0.059627
     27          6           0       -5.534052   -0.232971    0.088956
     28          6           0       -4.729812    0.406639    0.950020
     29          6           0       -3.225183    0.317271    0.794846
     30          6           0      -13.900541    3.460344   -0.911875
     31          6           0       -9.704591   -1.101586   -1.534407
     32          6           0       -5.214730    1.243671    2.109098
     33          6           0       -2.515435   -0.468667    1.926026
     34          6           0       -1.021735   -0.487723    1.753967
     35          6           0       -0.213032   -1.533756    1.532092
     36          6           0        1.278846   -1.320074    1.371351
     37          6           0        1.803888   -1.562749   -0.066401
     38          6           0        3.295049   -1.394715   -0.163593
     39          6           0        3.995772   -0.480018   -0.848990
     40          6           0        5.510348   -0.483412   -0.792124
     41          6           0        6.119432    0.715204   -0.021455
     42          6           0        7.622887    0.704493   -0.047618
     43          6           0        8.481510    0.560238    0.971888
     44          6           0        9.975058    0.564958    0.713987
     45          6           0       10.659439   -0.810570    0.916874
     46          6           0       12.147531   -0.741131    0.712027
     47          6           0       12.895936   -1.331479   -0.230769
     48          6           0       -0.676544   -2.966990    1.436198
     49          6           0        3.382415    0.590789   -1.718139
     50          6           0        8.073797    0.399289    2.416190
     51          6           0       12.354852   -2.246510   -1.302306
     52          6           0       14.394754   -1.108360   -0.261344
     53          6           0       14.886404   -0.259887   -1.461324
     54          6           0       16.383154   -0.116671   -1.481945
     55          6           0       17.124800    0.991467   -1.342443
     56          6           0       16.560806    2.378929   -1.155045
     57          6           0       18.637381    0.903514   -1.380797
     58          6           0       19.324833    1.174975   -0.018974
     59          6           0       20.824547    1.135152   -0.120456
     60          6           0       21.681360    0.286509    0.463181
     61          6           0       21.287046   -0.837861    1.387802
     62          6           0       23.168040    0.405424    0.228979
     63          1           0      -15.982128    1.783203    1.977855
     64          1           0      -16.122932    2.613064    0.466996
     65          1           0      -13.759573    0.839890    1.380663
     66          1           0      -11.673889    1.429820    0.823708
     67          1           0      -11.420182    3.068540    0.243286
     68          1           0      -11.595214    2.254468   -2.126228
     69          1           0      -11.848962    0.620448   -1.543193
     70          1           0       -9.310399    2.335337   -1.114633
     71          1           0       -7.292277    1.388507   -1.290765
     72          1           0       -7.174375   -0.168199   -2.096911
     73          1           0       -7.353984   -1.327722    0.124304
     74          1           0       -7.473181    0.226366    0.923751
     75          1           0       -5.053053   -0.791946   -0.714204
     76          1           0       -2.803491    1.331107    0.759930
     77          1           0       -2.982364   -0.154998   -0.161396
     78          1           0      -14.972374    3.643439   -0.840550
     79          1           0      -13.675302    3.233430   -1.959013
     80          1           0      -13.382171    4.396690   -0.676003
     81          1           0      -10.787887   -1.101209   -1.649882
     82          1           0       -9.462591   -1.759555   -0.693087
     83          1           0       -9.272579   -1.566674   -2.428207
     84          1           0       -6.294831    1.387439    2.107327
     85          1           0       -4.743828    2.233196    2.086888
     86          1           0       -4.943932    0.790470    3.069012
     87          1           0       -2.930578   -1.478268    1.965306
     88          1           0       -2.750284    0.001037    2.888974
     89          1           0       -0.552564    0.494998    1.809973
     90          1           0        1.817560   -1.989626    2.055565
     91          1           0        1.537265   -0.299068    1.666538
     92          1           0        1.276704   -0.892738   -0.749148
     93          1           0        1.546820   -2.583716   -0.373734
     94          1           0        3.866049   -2.118232    0.419039
     95          1           0        5.912088   -0.479350   -1.814502
     96          1           0        5.858216   -1.408864   -0.324239
     97          1           0        5.733141    0.707165    1.000153
     98          1           0        5.769298    1.649031   -0.477870
     99          1           0        8.053918    0.821082   -1.042411
    100          1           0       10.456179    1.293924    1.380162
    101          1           0       10.169952    0.901100   -0.308460
    102          1           0       10.192799   -1.535866    0.246680
    103          1           0       10.463445   -1.160731    1.937625
    104          1           0       12.669333   -0.110358    1.432339
    105          1           0       -1.749304   -3.079936    1.589302
    106          1           0       -0.163419   -3.583690    2.183600
    107          1           0       -0.435417   -3.397429    0.458469
    108          1           0        2.294981    0.537101   -1.758129
    109          1           0        3.761099    0.511627   -2.744071
    110          1           0        3.650679    1.591609   -1.363428
    111          1           0        6.994399    0.429877    2.561041
    112          1           0        8.517883    1.193584    3.027864
    113          1           0        8.435365   -0.549299    2.827142
    114          1           0       11.280368   -2.408359   -1.222851
    115          1           0       12.847007   -3.224987   -1.251499
    116          1           0       12.555719   -1.848358   -2.302582
    117          1           0       14.906041   -2.080175   -0.290476
    118          1           0       14.711598   -0.617043    0.663090
    119          1           0       14.388031    0.711521   -1.430589
    120          1           0       14.569078   -0.741790   -2.394074
    121          1           0       16.920569   -1.055365   -1.619852
    122          1           0       15.471596    2.402115   -1.165725
    123          1           0       16.919264    3.045822   -1.948146
    124          1           0       16.891075    2.816635   -0.207025
    125          1           0       19.024365    1.623584   -2.114601
    126          1           0       18.938632   -0.088523   -1.729303
    127          1           0       18.951275    0.455113    0.712757
    128          1           0       19.025286    2.166401    0.342207
    129          1           0       21.251174    1.899534   -0.770267
    130          1           0       20.210217   -0.922955    1.530172
    131          1           0       21.748011   -0.703977    2.373711
    132          1           0       21.653095   -1.796614    1.002035
    133          1           0       23.408441    1.230591   -0.444427
    134          1           0       23.572600   -0.517614   -0.203385
    135          1           0       23.702496    0.568241    1.172678
 ---------------------------------------------------------------------

 SCF Done:  E(UB3LYP) =  -2218.76748731     A.U. after   14 cycles

 Alpha virt. eigenvalues --    0.23297   0.23361   0.23526   0.23581   0.23659
 Alpha virt. eigenvalues --    0.23774   0.23835   0.23869   0.24029   0.24093
 Alpha virt. eigenvalues --    0.24175   0.24305   0.24416   0.24652   0.24813

  Beta  occ. eigenvalues --  -19.13962 -19.13672 -10.28347 -10.28084 -10.21689
  Beta  occ. eigenvalues --  -10.21079 -10.20996 -10.19861 -10.18706 -10.18313
  Beta  occ. eigenvalues --  -10.17703 -10.17605 -10.17549 -10.17548 -10.17547
  Beta  occ. eigenvalues --  -10.17546 -10.17546 -10.17539 -10.17336 -10.17324
  Beta  occ. eigenvalues --  -10.17064 -10.16986 -10.16851 -10.16843 -10.16829
  Beta  occ. eigenvalues --  -10.16828 -10.16827 -10.16827 -10.16826 -10.16808
  Beta  occ. eigenvalues --  -10.16788 -10.16782 -10.16781 -10.16781 -10.16780
  Beta  occ. eigenvalues --  -10.16780 -10.16754 -10.16510 -10.16189 -10.16187
  Beta  occ. eigenvalues --  -10.16181 -10.16170 -10.16164 -10.16164 -10.16163
  Beta  occ. eigenvalues --  -10.16163 -10.16160 -10.16133 -10.16130 -10.16130
  Beta  occ. eigenvalues --  -10.16129 -10.16128 -10.16121 -10.16107 -10.16045
  Beta  occ. eigenvalues --   -1.07140  -1.06692  -0.86807  -0.83725  -0.83304
  Beta  occ. eigenvalues --   -0.83140  -0.82884  -0.82549  -0.82146  -0.81692
  Beta  occ. eigenvalues --   -0.81218  -0.80781  -0.80487  -0.77877  -0.77292
  Beta  occ. eigenvalues --   -0.76521  -0.75679  -0.74937  -0.74782  -0.73985
  Beta  occ. eigenvalues --   -0.73253  -0.72642  -0.72227  -0.69293  -0.69235
  Beta  occ. eigenvalues --   -0.69152  -0.68953  -0.68905  -0.68814  -0.68663
  Beta  occ. eigenvalues --   -0.68428  -0.68067  -0.67553  -0.66964  -0.65431
  Beta  occ. eigenvalues --   -0.64435  -0.63402  -0.62309  -0.61261  -0.60329
  Beta  occ. eigenvalues --   -0.59579  -0.59178  -0.58754  -0.58435  -0.57752
  Beta  occ. eigenvalues --   -0.53991  -0.52467  -0.52374  -0.52270  -0.52125
  Beta  occ. eigenvalues --   -0.51946  -0.51737  -0.51545  -0.51376  -0.51266
  Beta  occ. eigenvalues --   -0.49548  -0.48291  -0.48097  -0.48028  -0.47943
  Beta  occ. eigenvalues --   -0.47879  -0.47833  -0.47541  -0.47085  -0.46902
  Beta  occ. eigenvalues --   -0.46499  -0.46242  -0.45148  -0.44824  -0.44660
  Beta  occ. eigenvalues --   -0.44452  -0.44182  -0.43875  -0.43699  -0.43470
  Beta  occ. eigenvalues --   -0.43446  -0.43199  -0.43117  -0.42946  -0.42832
  Beta  occ. eigenvalues --   -0.42324  -0.42263  -0.41923  -0.41782  -0.41757
  Beta  occ. eigenvalues --   -0.41645  -0.41407  -0.41263  -0.41161  -0.41094
  Beta  occ. eigenvalues --   -0.40926  -0.40728  -0.40504  -0.40423  -0.40350
  Beta  occ. eigenvalues --   -0.40222  -0.40046  -0.39730  -0.39432  -0.39242
  Beta  occ. eigenvalues --   -0.38950  -0.38494  -0.38327  -0.37729  -0.37541
  Beta  occ. eigenvalues --   -0.37473  -0.37429  -0.37362  -0.37342  -0.37241
  Beta  occ. eigenvalues --   -0.37182  -0.37118  -0.37082  -0.37015  -0.36822
  Beta  occ. eigenvalues --   -0.36679  -0.36613  -0.36417  -0.36223  -0.36063
  Beta  occ. eigenvalues --   -0.35773  -0.35759  -0.35561  -0.35164  -0.34587
  Beta  occ. eigenvalues --   -0.33981  -0.33893  -0.33780  -0.33597  -0.33555
  Beta  occ. eigenvalues --   -0.33275  -0.32978  -0.32941  -0.32899  -0.32758
  Beta  occ. eigenvalues --   -0.32250  -0.31706  -0.31256  -0.30974  -0.29979
  Beta  occ. eigenvalues --   -0.29164  -0.27604  -0.27330  -0.25494  -0.25311
  Beta  occ. eigenvalues --   -0.25048  -0.24701  -0.24235  -0.23695  -0.23211
  Beta  occ. eigenvalues --   -0.22817  -0.22496
  Beta virt. eigenvalues --   -0.12923  -0.02072  -0.01127  -0.01003  -0.00878
  Beta virt. eigenvalues --   -0.00668  -0.00370  -0.00100  -0.00028   0.00019
  Beta virt. eigenvalues --    0.00099   0.00141   0.00263   0.00310   0.00402

 Mulliken charges and spin densities:
               1          2
     1  C   -1.124129   0.000000
     2  C   -0.942721  -0.000000
     3  C    1.120746  -0.000000
     4  C   -0.848801   0.000000
     5  C    0.367731  -0.000000
     6  C    1.130204  -0.000000
     7  O   -0.279258   0.000000
     8  O   -0.248007   0.000000
     9  C   -0.381916  -0.000000
    10  C   -0.502145   0.000000
    11  H    0.164736   0.000000
    12  H    0.172981  -0.000000
    13  H    0.197795   0.000000
    14  H    0.176854  -0.000000
    15  H    0.200607   0.000000
    16  H    0.177412  -0.000000
    17  H    0.170824  -0.000000
    18  C   -0.102988   0.000000
    19  C   -0.291221   0.000000
    20  C    0.667355  -0.000000
    21  C   -0.796244   0.000000
    22  C   -0.228404   0.000000
    23  C   -0.081424  -0.000000
    24  C    0.478651   0.000000
    25  C   -0.596475   0.000000
    26  C   -0.304157  -0.000000
    27  C   -0.339261  -0.000000
    28  C    0.603582   0.000000
    29  C   -0.399069   0.000000
    30  C   -0.666134  -0.000000
    31  C   -0.747637  -0.000000
    32  C   -0.707614   0.000000
    33  C   -0.375227   0.000000
    34  C   -0.317614  -0.000000
    35  C    0.538501  -0.000000
    36  C   -0.431967   0.000000
    37  C   -0.266839  -0.000000
    38  C   -0.301702   0.000000
    39  C    0.465662   0.000000
    40  C   -0.412706  -0.000000
    41  C   -0.273971   0.000000
    42  C   -0.299465  -0.000000
    43  C    0.493266   0.000000
    44  C   -0.442578   0.000000
    45  C   -0.250384  -0.000000
    46  C   -0.396311   0.000000
    47  C    0.525914  -0.000000
    48  C   -0.698612   0.000000
    49  C   -0.721331  -0.000000
    50  C   -0.717095   0.000000
    51  C   -0.714270   0.000000
    52  C   -0.394077   0.000000
    53  C   -0.194966  -0.000000
    54  C   -0.201569   0.000000
    55  C    0.449127  -0.000000
    56  C   -0.752164   0.000000
    57  C   -0.580446  -0.000000
    58  C   -0.253659   0.000000
    59  C    0.039077  -0.000000
    60  C    0.273558   0.000000
    61  C   -0.685166   0.000000
    62  C   -0.622651  -0.000000
    63  H    0.217073  -0.000000
    64  H    0.228423   0.000000
    65  H    0.176579   0.000000
    66  H    0.218059  -0.000000
    67  H    0.130639   0.000000
    68  H    0.133721  -0.000000
    69  H    0.175284  -0.000000
    70  H    0.210551  -0.000000
    71  H    0.162874  -0.000000
    72  H    0.139916   0.000000
    73  H    0.135202   0.000000
    74  H    0.140840   0.000000
    75  H    0.204464  -0.000000
    76  H    0.154276  -0.000000
    77  H    0.165485   0.000000
    78  H    0.116838  -0.000000
    79  H    0.179810   0.000000
    80  H    0.173098   0.000000
    81  H    0.119787   0.000000
    82  H    0.169676  -0.000000
    83  H    0.162258  -0.000000
    84  H    0.129821   0.000000
    85  H    0.162904  -0.000000
    86  H    0.173376  -0.000000
    87  H    0.135166   0.000000
    88  H    0.133979   0.000000
    89  H    0.183637  -0.000000
    90  H    0.138284   0.000000
    91  H    0.177111   0.000000
    92  H    0.140707  -0.000000
    93  H    0.127888   0.000000
    94  H    0.192588  -0.000000
    95  H    0.139447  -0.000000
    96  H    0.174465  -0.000000
    97  H    0.139917   0.000000
    98  H    0.127695  -0.000000
    99  H    0.192479   0.000000
   100  H    0.140591   0.000000
   101  H    0.170685   0.000000
   102  H    0.134946  -0.000000
   103  H    0.128550  -0.000000
   104  H    0.186869   0.000000
   105  H    0.128304  -0.000000
   106  H    0.161990  -0.000000
   107  H    0.168116  -0.000000
   108  H    0.129922  -0.000000
   109  H    0.162508  -0.000000
   110  H    0.168380   0.000000
   111  H    0.130084   0.000000
   112  H    0.162343   0.000000
   113  H    0.168501   0.000000
   114  H    0.131986   0.000000
   115  H    0.162598  -0.000000
   116  H    0.168155  -0.000000
   117  H    0.134738  -0.000000
   118  H    0.178511   0.000000
   119  H    0.142548  -0.000000
   120  H    0.124350   0.000000
   121  H    0.206360  -0.000000
   122  H    0.128432   0.000000
   123  H    0.163568   0.000000
   124  H    0.170563   0.000000
   125  H    0.137566  -0.000000
   126  H    0.164580  -0.000000
   127  H    0.134235   0.000000
   128  H    0.125047  -0.000000
   129  H    0.193262  -0.000000
   130  H    0.140880   0.000000
   131  H    0.145862   0.000000
   132  H    0.148400  -0.000000
   133  H    0.151542   0.000000
   134  H    0.151396   0.000000
   135  H    0.147106   0.000000
 Sum of Mulliken charges =  -0.00000  -0.00000

 Dipole moment (field-independent basis, Debye):
    X=             -0.6296    Y=              0.2919    Z=              0.3966  Tot=              0.7993
 Quadrupole moment (field-independent basis, Debye-Ang):
   XX=           -309.3230   YY=           -346.8812   ZZ=           -354.3932
   XY=              1.6809   XZ=              7.3311   YZ=             -9.0229

 Normal termination of Gaussian 16 at Sun Jan 28 05:26:54 2024.
