 Gaussian 16, Revision A.03,
 Gaussian 16:  ES64L-G16RevA.03 25-Dec-2016

 ----------------------------------------------------------------------
 #P UB3LYP/6-311++G(d,p) nosym opt freq SCRF=(PCM,Solvent=n,n-DiMethylF
 ormamide)
 ----------------------------------------------------------------------

 --------
 Oxidized
 --------
 Symbolic Z-matrix:
 Charge =  0 Multiplicity = 1

 SCF Done:  E(UB3LYP) =  -846.479575317     A.U. after   15 cycles
 SCF Done:  E(UB3LYP) =  -846.479648758     A.U. after   11 cycles
 SCF Done:  E(UB3LYP) =  -846.479638476     A.U. after   11 cycles
 SCF Done:  E(UB3LYP) =  -846.479637681     A.U. after   11 cycles
 SCF Done:  E(UB3LYP) =  -846.479657934     A.U. after   11 cycles
 SCF Done:  E(UB3LYP) =  -846.479659529     A.U. after   10 cycles
 SCF Done:  E(UB3LYP) =  -846.479659437     A.U. after   10 cycles
 SCF Done:  E(UB3LYP) =  -846.479659774     A.U. after    8 cycles
 SCF Done:  E(UB3LYP) =  -846.479659805     A.U. after    9 cycles
 SCF Done:  E(UB3LYP) =  -846.479659808     A.U. after    8 cycles
 Optimization completed.
    -- Stationary point found.
 Normal termination of Gaussian 16 at Sun Feb 11 01:13:48 2024.

 ----------------------------------------------------------------------
 #P Geom=AllCheck Guess=TCheck SCRF=Check GenChk UB3LYP/6-311++G(d,p) F
 req
 ----------------------------------------------------------------------

 Structure from the checkpoint file:  "284.chk"
 --------
 Oxidized
 --------
 Charge =  0 Multiplicity = 1

                          Input orientation:
 ---------------------------------------------------------------------
 Center     Atomic      Atomic             Coordinates (Angstroms)
 Number     Number       Type             X           Y           Z
 ---------------------------------------------------------------------
      1          6           0       -0.168344    3.858809   -0.044667
      2          6           0       -1.412431    3.247934   -0.178830
      3          6           0       -1.491443    1.891244   -0.495752
      4          6           0        0.996611    3.110421   -0.228508
      5          6           0        0.920634    1.743178   -0.547677
      6          6           0       -0.329573    1.141524   -0.679154
      7          6           0        2.318892    3.742887   -0.090068
      8          6           0        3.530377    2.899070   -0.307643
      9          6           0        3.482166    1.576789   -0.604313
     10          6           0        2.164622    0.928173   -0.746002
     11          8           0        2.491463    4.924362    0.193553
     12          8           0        2.080266   -0.265992   -1.018715
     13          1           0       -0.088726    4.910402    0.200949
     14          1           0       -2.317218    3.826730   -0.037196
     15          1           0       -2.459653    1.415880   -0.600308
     16          1           0       -0.382533    0.088658   -0.925004
     17          8           0        4.691289    3.559720   -0.174101
     18          6           0        4.723597    0.756900   -0.821680
     19          6           0        5.164733    0.710097   -2.300581
     20          6           0        6.423927   -0.137359   -2.510453
     21          6           0        6.878941   -0.198000   -3.972762
     22          6           0        8.139069   -1.044381   -4.187495
     23          6           0        8.586221   -1.102589   -5.651244
     24          1           0        4.463581    4.481141    0.054116
     25          1           0        4.534058   -0.261774   -0.474723
     26          1           0        5.535541    1.169521   -0.217494
     27          1           0        5.345890    1.731267   -2.654394
     28          1           0        4.346118    0.307660   -2.907027
     29          1           0        6.238325   -1.155882   -2.146219
     30          1           0        7.237735    0.265830   -1.894183
     31          1           0        7.062964    0.820891   -4.337674
     32          1           0        6.064856   -0.601450   -4.588893
     33          1           0        7.955858   -2.061911   -3.821272
     34          1           0        8.952989   -0.640482   -3.573121
     35          1           0        7.805336   -1.534574   -6.285431
     36          1           0        9.486252   -1.712642   -5.770006
     37          1           0        8.809207   -0.102104   -6.035828
 ---------------------------------------------------------------------

 SCF Done:  E(UB3LYP) =  -846.479659808     A.U. after    2 cycles

 Alpha  occ. eigenvalues --  -19.18101 -19.15111 -19.13025 -10.29533 -10.28225
 Alpha  occ. eigenvalues --  -10.26928 -10.21326 -10.21213 -10.20548 -10.20382
 Alpha  occ. eigenvalues --  -10.20192 -10.20023 -10.20005 -10.17804 -10.16914
 Alpha  occ. eigenvalues --  -10.16301 -10.16242 -10.16100 -10.15564  -1.11025
 Alpha  occ. eigenvalues --   -1.06872  -1.06154  -0.89494  -0.84622  -0.80982
 Alpha  occ. eigenvalues --   -0.79033  -0.78241  -0.76240  -0.72204  -0.69379
 Alpha  occ. eigenvalues --   -0.66398  -0.65185  -0.62157  -0.60732  -0.58813
 Alpha  occ. eigenvalues --   -0.57746  -0.57549  -0.54493  -0.52087  -0.49994
 Alpha  occ. eigenvalues --   -0.48311  -0.47834  -0.47315  -0.46891  -0.45615
 Alpha  occ. eigenvalues --   -0.45484  -0.44051  -0.43814  -0.43240  -0.42378
 Alpha  occ. eigenvalues --   -0.41281  -0.40866  -0.40051  -0.39471  -0.38541
 Alpha  occ. eigenvalues --   -0.38132  -0.37843  -0.37244  -0.35739  -0.34950
 Alpha  occ. eigenvalues --   -0.33217  -0.32934  -0.32279  -0.32208  -0.30431
 Alpha  occ. eigenvalues --   -0.29183  -0.28236  -0.28058  -0.25864
 Alpha virt. eigenvalues --   -0.12791  -0.05861  -0.02808  -0.00975  -0.00182
 Alpha virt. eigenvalues --    0.00248   0.00837   0.01118   0.01736   0.02061
 Alpha virt. eigenvalues --    0.02224   0.02749   0.02958   0.03687   0.04316

  Beta  occ. eigenvalues --  -19.18101 -19.15111 -19.13025 -10.29533 -10.28225
  Beta  occ. eigenvalues --  -10.26928 -10.21326 -10.21213 -10.20548 -10.20382
  Beta  occ. eigenvalues --  -10.20192 -10.20023 -10.20005 -10.17804 -10.16914
  Beta  occ. eigenvalues --  -10.16301 -10.16242 -10.16100 -10.15564  -1.11025
  Beta  occ. eigenvalues --   -1.06872  -1.06154  -0.89494  -0.84622  -0.80982
  Beta  occ. eigenvalues --   -0.79033  -0.78241  -0.76240  -0.72204  -0.69379
  Beta  occ. eigenvalues --   -0.66398  -0.65185  -0.62157  -0.60732  -0.58813
  Beta  occ. eigenvalues --   -0.57746  -0.57549  -0.54493  -0.52087  -0.49994
  Beta  occ. eigenvalues --   -0.48311  -0.47834  -0.47315  -0.46891  -0.45615
  Beta  occ. eigenvalues --   -0.45484  -0.44051  -0.43814  -0.43240  -0.42378
  Beta  occ. eigenvalues --   -0.41281  -0.40866  -0.40051  -0.39471  -0.38541
  Beta  occ. eigenvalues --   -0.38132  -0.37843  -0.37244  -0.35739  -0.34950
  Beta  occ. eigenvalues --   -0.33217  -0.32934  -0.32279  -0.32208  -0.30431
  Beta  occ. eigenvalues --   -0.29183  -0.28236  -0.28058  -0.25864
  Beta virt. eigenvalues --   -0.12791  -0.05861  -0.02808  -0.00975  -0.00182
  Beta virt. eigenvalues --    0.00248   0.00837   0.01118   0.01736   0.02061
  Beta virt. eigenvalues --    0.02224   0.02749   0.02958   0.03687   0.04316

 Mulliken charges and spin densities:
               1          2
     1  C    0.204145  -0.000000
     2  C   -0.376899   0.000000
     3  C   -0.389059  -0.000000
     4  C    0.480434   0.000000
     5  C   -0.087040   0.000000
     6  C    0.179687  -0.000000
     7  C   -0.799397   0.000000
     8  C   -0.464990  -0.000000
     9  C    1.894598   0.000000
    10  C   -0.808036  -0.000000
    11  O   -0.313769  -0.000000
    12  O   -0.279612  -0.000000
    13  H    0.191298   0.000000
    14  H    0.211392   0.000000
    15  H    0.207674  -0.000000
    16  H    0.191127   0.000000
    17  O   -0.219759   0.000000
    18  C   -0.348332  -0.000000
    19  C   -0.541699   0.000000
    20  C   -0.099249  -0.000000
    21  C   -0.219355   0.000000
    22  C   -0.203715   0.000000
    23  C   -0.678628   0.000000
    24  H    0.307880   0.000000
    25  H    0.217649  -0.000000
    26  H    0.229138   0.000000
    27  H    0.171532  -0.000000
    28  H    0.172867  -0.000000
    29  H    0.117589  -0.000000
    30  H    0.116883  -0.000000
    31  H    0.122621   0.000000
    32  H    0.122355   0.000000
    33  H    0.132989   0.000000
    34  H    0.132903   0.000000
    35  H    0.140831  -0.000000
    36  H    0.143343  -0.000000
    37  H    0.140600   0.000000
 Sum of Mulliken charges =  -0.00000   0.00000

 Dipole moment (field-independent basis, Debye):
    X=             -2.5557    Y=              1.5190    Z=              0.2142  Tot=              2.9807
 Quadrupole moment (field-independent basis, Debye-Ang):
   XX=           -108.2268   YY=           -117.0966   ZZ=           -117.0699
   XY=             -4.4024   XZ=              0.7466   YZ=             -1.8012

  Exact polarizability: 327.472  -5.391 322.637 -11.748  41.844 189.210
 Approx polarizability: 347.419  14.255 414.142   0.925  52.927 207.925

                      1                      2                      3
                      A                      A                      A
 Frequencies --     18.6590                28.8119                47.5884
 Red. masses --      4.9626                 5.4525                 1.5637
 Frc consts  --      0.0010                 0.0027                 0.0021
 IR Inten    --      0.2611                 2.0204                 0.0824

                      4                      5                      6
                      A                      A                      A
 Frequencies --     64.3069                71.0365                95.7520
 Red. masses --      4.9428                 3.8100                 4.9747
 Frc consts  --      0.0120                 0.0113                 0.0269
 IR Inten    --      4.4173                 2.2614                 0.0930

                      7                      8                      9
                      A                      A                      A
 Frequencies --    120.9519               127.5951               139.8259
 Red. masses --      5.2327                 1.6603                 4.8871
 Frc consts  --      0.0451                 0.0159                 0.0563
 IR Inten    --      0.0276                 0.0055                 0.5304

                     10                     11                     12
                      A                      A                      A
 Frequencies --    143.5620               179.6579               229.4231
 Red. masses --      2.2802                 6.2477                 3.7553
 Frc consts  --      0.0277                 0.1188                 0.1165
 IR Inten    --      0.1342                 0.8706                 0.1672

                     13                     14                     15
                      A                      A                      A
 Frequencies --    244.3844               253.6409               303.3789
 Red. masses --      1.1279                 4.0794                 2.9322
 Frc consts  --      0.0397                 0.1546                 0.1590
 IR Inten    --      0.0166                 0.3944                 5.8582

                     16                     17                     18
                      A                      A                      A
 Frequencies --    312.0898               342.3763               386.4944
 Red. masses --      4.4680                 5.4898                 9.4070
 Frc consts  --      0.2564                 0.3792                 0.8279
 IR Inten    --      0.2480                20.0830                25.5920

                     19                     20                     21
                      A                      A                      A
 Frequencies --    398.3186               410.4537               419.4104
 Red. masses --      3.9113                 4.4303                 8.6135
 Frc consts  --      0.3656                 0.4398                 0.8927
 IR Inten    --      5.1460                24.9969                10.1634

                     22                     23                     24
                      A                      A                      A
 Frequencies --    441.3982               451.7157               480.5401
 Red. masses --      3.8767                 3.9615                 6.1156
 Frc consts  --      0.4450                 0.4763                 0.8320
 IR Inten    --      5.9905                 1.2360                 8.6950

                     25                     26                     27
                      A                      A                      A
 Frequencies --    526.8483               582.0400               605.1308
 Red. masses --      6.8025                 2.7501                 1.4051
 Frc consts  --      1.1125                 0.5489                 0.3032
 IR Inten    --      5.7753                67.2741                76.3624

                     28                     29                     30
                      A                      A                      A
 Frequencies --    653.2779               676.1953               705.7132
 Red. masses --      6.3648                 5.9720                 3.0941
 Frc consts  --      1.6004                 1.6089                 0.9079
 IR Inten    --      8.9533                 5.2288                 3.5335

                     31                     32                     33
                      A                      A                      A
 Frequencies --    711.2123               730.4719               734.3104
 Red. masses --      4.6517                 1.1006                 2.4080
 Frc consts  --      1.3863                 0.3460                 0.7650
 IR Inten    --      9.0442                13.8393               112.4118

                     34                     35                     36
                      A                      A                      A
 Frequencies --    743.1719               771.0923               787.6479
 Red. masses --      1.2490                 7.4830                 1.3520
 Frc consts  --      0.4064                 2.6214                 0.4942
 IR Inten    --      0.8137                 2.1728                 1.8714

                     37                     38                     39
                      A                      A                      A
 Frequencies --    806.1131               851.0777               893.5305
 Red. masses --      1.9589                 2.0402                 1.9840
 Frc consts  --      0.7500                 0.8707                 0.9333
 IR Inten    --     16.7738                19.3124                 2.2224

                     40                     41                     42
                      A                      A                      A
 Frequencies --    907.5411               911.0292               947.3703
 Red. masses --      1.6529                 1.3392                 5.6102
 Frc consts  --      0.8021                 0.6549                 2.9666
 IR Inten    --     11.9151                 0.0207                72.7864

                     43                     44                     45
                      A                      A                      A
 Frequencies --    992.8131               998.1981              1003.4438
 Red. masses --      1.7758                 1.3889                 2.7993
 Frc consts  --      1.0313                 0.8154                 1.6607
 IR Inten    --     13.7289                 1.9618                26.8313

                     46                     47                     48
                      A                      A                      A
 Frequencies --   1018.5308              1022.1233              1036.1237
 Red. masses --      3.2699                 1.3329                 2.8585
 Frc consts  --      1.9986                 0.8204                 1.8081
 IR Inten    --      6.8128                 0.0986                66.3372

                     49                     50                     51
                      A                      A                      A
 Frequencies --   1048.8683              1055.9492              1063.6667
 Red. masses --      2.7142                 1.9856                 2.2915
 Frc consts  --      1.7593                 1.3044                 1.5275
 IR Inten    --      0.4267                 3.9477                 0.2560

                     52                     53                     54
                      A                      A                      A
 Frequencies --   1109.5479              1127.3298              1130.1464
 Red. masses --      2.1659                 2.2471                 1.7354
 Frc consts  --      1.5710                 1.6826                 1.3059
 IR Inten    --      5.5023                24.4525                65.1904

                     55                     56                     57
                      A                      A                      A
 Frequencies --   1179.0940              1192.5938              1217.3797
 Red. masses --      1.1826                 2.2468                 1.7310
 Frc consts  --      0.9687                 1.8828                 1.5115
 IR Inten    --     43.8121                57.2812                10.9819

                     58                     59                     60
                      A                      A                      A
 Frequencies --   1230.1647              1252.5449              1273.8156
 Red. masses --      2.3873                 1.2708                 1.4203
 Frc consts  --      2.1286                 1.1746                 1.3579
 IR Inten    --    227.4531                 2.5637               195.2038

                     61                     62                     63
                      A                      A                      A
 Frequencies --   1281.2464              1302.2262              1310.3058
 Red. masses --      2.0009                 1.7330                 1.5465
 Frc consts  --      1.9352                 1.7315                 1.5644
 IR Inten    --    175.8510               244.7622                77.8152

                     64                     65                     66
                      A                      A                      A
 Frequencies --   1315.5857              1328.0943              1329.2991
 Red. masses --      1.4935                 1.3016                 1.1390
 Frc consts  --      1.5230                 1.3527                 1.1858
 IR Inten    --      9.0895                52.8585                16.7515

                     67                     68                     69
                      A                      A                      A
 Frequencies --   1338.3574              1357.1546              1367.3684
 Red. masses --      1.6720                 1.4018                 6.4019
 Frc consts  --      1.7646                 1.5213                 7.0523
 IR Inten    --     83.2931                 2.3192               121.2985

                     70                     71                     72
                      A                      A                      A
 Frequencies --   1378.4881              1382.3021              1394.9981
 Red. masses --      2.0689                 1.5542                 1.5910
 Frc consts  --      2.3163                 1.7496                 1.8242
 IR Inten    --    531.1793                78.7274                 3.0776

                     73                     74                     75
                      A                      A                      A
 Frequencies --   1404.1015              1469.9869              1472.0333
 Red. masses --      1.2570                 1.1132                 1.0696
 Frc consts  --      1.4601                 1.4173                 1.3655
 IR Inten    --      2.4557                10.5518                 1.7963

                     76                     77                     78
                      A                      A                      A
 Frequencies --   1478.3964              1483.9642              1488.0862
 Red. masses --      1.0793                 2.2922                 1.0617
 Frc consts  --      1.3899                 2.9740                 1.3851
 IR Inten    --      1.5181                 5.6531                11.2701

                     79                     80                     81
                      A                      A                      A
 Frequencies --   1488.1895              1498.3191              1504.9575
 Red. masses --      1.0636                 1.0918                 2.6541
 Frc consts  --      1.3879                 1.4442                 3.5417
 IR Inten    --      4.8457                 0.9746                 6.9273

                     82                     83                     84
                      A                      A                      A
 Frequencies --   1506.4659              1610.2847              1619.0207
 Red. masses --      1.1031                 6.6256                 6.0543
 Frc consts  --      1.4750                10.1223                 9.3501
 IR Inten    --     22.4110                28.6300               306.6194

                     85                     86                     87
                      A                      A                      A
 Frequencies --   1673.4308              1686.5815              1688.3249
 Red. masses --     10.5170                12.0111                 7.5663
 Frc consts  --     17.3524                20.1302                12.7070
 IR Inten    --    598.8700               373.4678               136.4527

                     88                     89                     90
                      A                      A                      A
 Frequencies --   2991.2582              2995.3676              3003.8509
 Red. masses --      1.0573                 1.0582                 1.0595
 Frc consts  --      5.5740                 5.5939                 5.6326
 IR Inten    --      3.9346                26.6554               132.2800

                     91                     92                     93
                      A                      A                      A
 Frequencies --   3009.2536              3013.4795              3016.5175
 Red. masses --      1.0993                 1.0357                 1.0591
 Frc consts  --      5.8652                 5.5414                 5.6782
 IR Inten    --      0.0220                47.0823                70.1729

                     94                     95                     96
                      A                      A                      A
 Frequencies --   3023.0619              3038.9307              3046.1437
 Red. masses --      1.1018                 1.1048                 1.0590
 Frc consts  --      5.9328                 6.0112                 5.7897
 IR Inten    --      2.3340                64.4584                59.8589

                     97                     98                     99
                      A                      A                      A
 Frequencies --   3054.3907              3072.3735              3077.3462
 Red. masses --      1.1042                 1.1027                 1.1011
 Frc consts  --      6.0696                 6.1325                 6.1438
 IR Inten    --    104.2532               117.9777                72.3768

                    100                    101                    102
                      A                      A                      A
 Frequencies --   3091.8416              3180.1344              3191.9472
 Red. masses --      1.1051                 1.0875                 1.0910
 Frc consts  --      6.2245                 6.4798                 6.5493
 IR Inten    --     36.5199                 3.0632                 7.9962

                    103                    104                    105
                      A                      A                      A
 Frequencies --   3202.6603              3206.6934              3617.5120
 Red. masses --      1.0935                 1.0953                 1.0645
 Frc consts  --      6.6086                 6.6357                 8.2079
 IR Inten    --      5.5564                14.2108               280.1684

 - Thermochemistry -
 -------------------
 Temperature   298.150 Kelvin.  Pressure   1.00000 Atm.
 Atom     1 has atomic number  6 and mass  12.00000

 Molecular mass:   258.12559 amu.
 Principal axes and moments of inertia in atomic units:
                           1         2         3
     Eigenvalues --  2310.02442********************
           X            0.81533   0.53686   0.21686
           Y           -0.39154   0.78714  -0.47657
           Z           -0.42654   0.30365   0.85197
 This molecule is an asymmetric top.
 Rotational symmetry number  1.
 Warning -- assumption of classical behavior for rotation
           may cause significant error
 Rotational temperatures (Kelvin)      0.03749     0.00723     0.00642
 Rotational constants (GHZ):           0.78126     0.15056     0.13380
 Zero-point vibrational energy     802681.2 (Joules/Mol)
                                  191.84540 (Kcal/Mol)
 Warning -- explicit consideration of  27 degrees of freedom as
           vibrations may cause significant error
 Vibrational temperatures:     26.85    41.45    68.47    92.52   102.21
          (Kelvin)            137.77   174.02   183.58   201.18   206.55
                              258.49   330.09   351.61   364.93   436.49
                              449.03   492.60   556.08   573.09   590.55
                              603.44   635.07   649.92   691.39   758.02
                              837.43   870.65   939.92   972.89  1015.36
                             1023.28  1050.99  1056.51  1069.26  1109.43
                             1133.25  1159.82  1224.51  1285.59  1305.75
                             1310.77  1363.05  1428.44  1436.18  1443.73
                             1465.44  1470.61  1490.75  1509.09  1519.28
                             1530.38  1596.39  1621.98  1626.03  1696.45
                             1715.88  1751.54  1769.93  1802.13  1832.74
                             1843.43  1873.61  1885.24  1892.83  1910.83
                             1912.56  1925.60  1952.64  1967.34  1983.34
                             1988.82  2007.09  2020.19  2114.98  2117.93
                             2127.08  2135.09  2141.02  2141.17  2155.75
                             2165.30  2167.47  2316.84  2329.41  2407.69
                             2426.61  2429.12  4303.75  4309.67  4321.87
                             4329.64  4335.72  4340.10  4349.51  4372.34
                             4382.72  4394.59  4420.46  4427.61  4448.47
                             4575.50  4592.50  4607.91  4613.72  5204.79

 Zero-point correction=                           0.305725 (Hartree/Particle)
 Thermal correction to Energy=                    0.323948
 Thermal correction to Enthalpy=                  0.324892
 Thermal correction to Gibbs Free Energy=         0.257255
 Sum of electronic and zero-point Energies=           -846.173935
 Sum of electronic and thermal Energies=              -846.155712
 Sum of electronic and thermal Enthalpies=            -846.154768
 Sum of electronic and thermal Free Energies=         -846.222405

                     E (Thermal)             CV                S
                      KCal/Mol        Cal/Mol-Kelvin    Cal/Mol-Kelvin
 Total                  203.280             68.620            142.354
 Electronic               0.000              0.000              0.000
 Translational            0.889              2.981             42.545
 Rotational               0.889              2.981             34.279
 Vibrational            201.503             62.659             65.531
 Vibration     1          0.593              1.986              6.772
 Vibration     2          0.593              1.984              5.910
 Vibration     3          0.595              1.978              4.915
 Vibration     4          0.597              1.971              4.320
 Vibration     5          0.598              1.968              4.124
 Vibration     6          0.603              1.952              3.539
 Vibration     7          0.609              1.932              3.085
 Vibration     8          0.611              1.926              2.982
 Vibration     9          0.615              1.913              2.806
 Vibration    10          0.616              1.910              2.756
 Vibration    11          0.629              1.867              2.332
 Vibration    12          0.652              1.796              1.883
 Vibration    13          0.660              1.772              1.771
 Vibration    14          0.665              1.757              1.705
 Vibration    15          0.695              1.667              1.398
 Vibration    16          0.700              1.651              1.351
 Vibration    17          0.722              1.591              1.201
 Vibration    18          0.755              1.499              1.014
 Vibration    19          0.765              1.474              0.969
 Vibration    20          0.775              1.448              0.925
 Vibration    21          0.782              1.428              0.894
 Vibration    22          0.801              1.380              0.822
 Vibration    23          0.810              1.357              0.791
 Vibration    24          0.837              1.293              0.709
 Vibration    25          0.882              1.191              0.594
 Vibration    26          0.939              1.070              0.482
 Vibration    27          0.964              1.021              0.441

 Optimization completed.
    -- Stationary point found.
 Normal termination of Gaussian 16 at Sun Feb 11 02:11:55 2024.
