 Q-Chem 5.4, Q-Chem, Inc., Pleasanton, CA (2021)
 Q-Chem 5.4.0 for Intel X86 EM64T Linux

User input:
--------------------------------------------------------------
$molecule
-2 1
C                  1.3350070000      1.0093560000     -2.7794220000
C                 -0.0613510000      1.3655750000     -2.9252910000
C                 -1.0596340000      0.9642850000     -2.0679510000
C                 -0.7891010000      0.1035750000     -0.9151040000
C                  0.5591110000     -0.2843460000     -0.7854230000
O                  2.2152360000      1.5314470000     -3.5404450000
O                 -1.7544120000     -0.2530930000     -0.1293010000
H                 -0.2880100000      2.0309090000     -3.7591710000
C                  1.6073800000      0.0824230000     -1.6839990000
C                  2.9362730000     -0.4290630000     -1.4059890000
C                  3.9989360000     -0.5399400000     -2.4840130000
C                  5.3470740000     -0.4768200000     -2.1018010000
C                  3.7120460000     -0.8701240000     -3.8164360000
C                  6.3748040000     -0.7135670000     -3.0160200000
C                  6.0749000000     -1.0517450000     -4.3353820000
C                  4.7322960000     -1.1356270000     -4.7253540000
O                  3.2788450000     -0.8873110000     -0.2891790000
H                  5.5675470000     -0.2549640000     -1.0637530000
H                  2.6770940000     -0.9109200000     -4.1295240000
H                  7.4130610000     -0.6492770000     -2.6951790000
H                  6.8718030000     -1.2562130000     -5.0472600000
H                  4.4825500000     -1.3980770000     -5.7503500000
C                 -2.4878280000      1.3951810000     -2.2770680000
H                  0.8168850000     -0.9409450000      0.0392810000
H                 -2.5894940000      2.0242310000     -3.1697070000
H                 -2.8603400000      1.9439900000     -1.4028610000
H                 -3.1450260000      0.5213290000     -2.3708090000
$end
$rem
MAX_SCF_CYCLES=200
BASIS  =  6-311++G(d,p)
GUI  =  2
JOB_TYPE  =  SP
METHOD  =  B3LYP
SOLVENT_METHOD = PCM
$end
$pcm
theory = CPCM
$end
$solvent
dielectric 37.219
opticaldielectric 1.43
$end

--------------------------------------------------------------

             Standard Nuclear Orientation (Angstroms)
    I     Atom           X                Y                Z
 ----------------------------------------------------------------
    1      C       1.3350070000     1.0093560000    -2.7794220000
    2      C      -0.0613510000     1.3655750000    -2.9252910000
    3      C      -1.0596340000     0.9642850000    -2.0679510000
    4      C      -0.7891010000     0.1035750000    -0.9151040000
    5      C       0.5591110000    -0.2843460000    -0.7854230000
    6      O       2.2152360000     1.5314470000    -3.5404450000
    7      O      -1.7544120000    -0.2530930000    -0.1293010000
    8      H      -0.2880100000     2.0309090000    -3.7591710000
    9      C       1.6073800000     0.0824230000    -1.6839990000
   10      C       2.9362730000    -0.4290630000    -1.4059890000
   11      C       3.9989360000    -0.5399400000    -2.4840130000
   12      C       5.3470740000    -0.4768200000    -2.1018010000
   13      C       3.7120460000    -0.8701240000    -3.8164360000
   14      C       6.3748040000    -0.7135670000    -3.0160200000
   15      C       6.0749000000    -1.0517450000    -4.3353820000
   16      C       4.7322960000    -1.1356270000    -4.7253540000
   17      O       3.2788450000    -0.8873110000    -0.2891790000
   18      H       5.5675470000    -0.2549640000    -1.0637530000
   19      H       2.6770940000    -0.9109200000    -4.1295240000
   20      H       7.4130610000    -0.6492770000    -2.6951790000
   21      H       6.8718030000    -1.2562130000    -5.0472600000
   22      H       4.4825500000    -1.3980770000    -5.7503500000
   23      C      -2.4878280000     1.3951810000    -2.2770680000
   24      H       0.8168850000    -0.9409450000     0.0392810000
   25      H      -2.5894940000     2.0242310000    -3.1697070000
   26      H      -2.8603400000     1.9439900000    -1.4028610000
   27      H      -3.1450260000     0.5213290000    -2.3708090000
 ----------------------------------------------------------------

    9    -765.6489562669      7.05e-06  Convergence criterion met
 Total energy in the final basis set =     -765.6489562669

                    Orbital Energies (a.u.)
 --------------------------------------------------------------

 Alpha MOs
 -- Occupied --
-19.0735 -19.0343 -19.0201 -10.2264 -10.1939 -10.1735 -10.1706 -10.1697
-10.1677 -10.1666 -10.1657 -10.1651 -10.1504 -10.1448 -10.1342 -10.1303
-10.1189  -0.9981  -0.9557  -0.9340  -0.8487  -0.7919  -0.7530  -0.7393
 -0.7355  -0.6741  -0.6567  -0.6108  -0.5968  -0.5661  -0.5491  -0.5236
 -0.4870  -0.4556  -0.4502  -0.4390  -0.4267  -0.4146  -0.4128  -0.4051
 -0.3999  -0.3885  -0.3791  -0.3667  -0.3656  -0.3589  -0.3496  -0.3395
 -0.3356  -0.3278  -0.3191  -0.3170  -0.2543  -0.2520  -0.2330  -0.2314
 -0.2182  -0.2041  -0.1990  -0.1293

          Ground-State Mulliken Net Atomic Charges

     Atom                 Charge (a.u.)
  ----------------------------------------
      1 C                    -1.009795
      2 C                    -0.581745
      3 C                     0.744717
      4 C                    -0.467357
      5 C                    -0.061069
      6 O                    -0.574382
      7 O                    -0.733010
      8 H                     0.146621
      9 C                     1.268864
     10 C                    -0.903418
     11 C                     1.238414
     12 C                     0.180393
     13 C                    -0.885717
     14 C                    -0.393853
     15 C                    -0.379974
     16 C                    -0.310408
     17 O                    -0.435167
     18 H                     0.210540
     19 H                     0.179641
     20 H                     0.199436
     21 H                     0.187988
     22 H                     0.205323
     23 C                    -0.433761
     24 H                     0.148802
     25 H                     0.142403
     26 H                     0.159514
     27 H                     0.157002
  ----------------------------------------
  Sum of atomic charges =    -2.000000

                    Cartesian Multipole Moments
 -----------------------------------------------------------------
    Charge (ESU x 10^10)
                -9.6064
    Dipole Moment (Debye)
         X      -8.3604      Y      -1.5950      Z      12.1462
       Tot      14.8314
    Quadrupole Moments (Debye-Ang)
        XX    -156.0846     XY      -5.9512     YY    -120.3169
        XZ      27.1431     YZ      19.1731     ZZ    -144.2900

 Total job time:  42.37s(wall), 306.37s(cpu)
        *  Thank you very much for using Q-Chem.  Have a nice day.  *
