 Gaussian 16, Revision A.03,
 Gaussian 16:  ES64L-G16RevA.03 25-Dec-2016

 ----------------------------------------------------------------------
 #P UB3LYP/6-311++G(d,p) nosym opt freq SCRF=(PCM,Solvent=n,n-DiMethylF
 ormamide)
 ----------------------------------------------------------------------

 -------
 Reduced
 -------
 Symbolic Z-matrix:
 Charge = -3 Multiplicity = 1

 SCF Done:  E(UB3LYP) =  -1463.18678736     A.U. after   16 cycles
 SCF Done:  E(UB3LYP) =  -1463.18860548     A.U. after   13 cycles
 SCF Done:  E(UB3LYP) =  -1463.18850721     A.U. after   13 cycles
 SCF Done:  E(UB3LYP) =  -1463.18921765     A.U. after   14 cycles
 SCF Done:  E(UB3LYP) =  -1463.18985321     A.U. after   13 cycles
 SCF Done:  E(UB3LYP) =  -1463.18972627     A.U. after   13 cycles
 SCF Done:  E(UB3LYP) =  -1463.18992076     A.U. after   13 cycles
 SCF Done:  E(UB3LYP) =  -1463.18991960     A.U. after   12 cycles
 SCF Done:  E(UB3LYP) =  -1463.18995465     A.U. after   12 cycles
 SCF Done:  E(UB3LYP) =  -1463.18996322     A.U. after   12 cycles
 SCF Done:  E(UB3LYP) =  -1463.18996596     A.U. after   10 cycles
 SCF Done:  E(UB3LYP) =  -1463.18996693     A.U. after   10 cycles
 SCF Done:  E(UB3LYP) =  -1463.18996773     A.U. after    9 cycles
 SCF Done:  E(UB3LYP) =  -1463.18996794     A.U. after    9 cycles
 Optimization completed.
    -- Stationary point found.
 Normal termination of Gaussian 16 at Sun Feb 11 00:11:41 2024.

 ----------------------------------------------------------------------
 #P Geom=AllCheck Guess=TCheck SCRF=Check GenChk UB3LYP/6-311++G(d,p) F
 req
 ----------------------------------------------------------------------

 Structure from the checkpoint file:  "194-an.chk"
 -------
 Reduced
 -------
 Charge = -3 Multiplicity = 1

                          Input orientation:
 ---------------------------------------------------------------------
 Center     Atomic      Atomic             Coordinates (Angstroms)
 Number     Number       Type             X           Y           Z
 ---------------------------------------------------------------------
      1          6           0        5.030077   -2.914836   -0.351412
      2          6           0        5.798146   -2.067845   -1.114973
      3          6           0        5.253095   -0.836015   -1.573204
      4          6           0        3.687146   -2.598032    0.002298
      5          6           0        3.133574   -1.346246   -0.461728
      6          6           0        3.960666   -0.495455   -1.250342
      7          6           0        2.915875   -3.500709    0.794546
      8          6           0        1.579378   -3.119350    1.115060
      9          6           0        1.030127   -1.868770    0.650402
     10          6           0        1.794283   -0.965765   -0.143002
     11          6           0        0.761864   -4.004026    1.916686
     12          6           0       -0.537001   -3.641878    2.231343
     13          6           0       -0.327760   -1.543395    1.008511
     14          6           0       -1.078994   -2.400546    1.770275
     15          8           0        3.418849   -4.653395    1.218673
     16          8           0        1.276001    0.179695   -0.565118
     17          8           0        1.311418   -5.167772    2.331815
     18          1           0        5.434592   -3.855548    0.003934
     19          1           0        6.818697   -2.335270   -1.369890
     20          1           0        5.859934   -0.168161   -2.176394
     21          1           0        2.282816   -5.136524    1.929303
     22          8           0       -0.852739   -0.358347    0.571620
     23          1           0       -2.095776   -2.140480    2.031571
     24          1           0       -0.073959    0.061458    0.034319
     25          1           0        3.536244    0.440907   -1.593910
     26         16           0       -1.604735   -4.715682    3.209536
     27          8           0       -1.792361   -5.993004    2.448784
     28          8           0       -0.946922   -4.942009    4.535842
     29          8           0       -2.896113   -3.970615    3.356428
 ---------------------------------------------------------------------

 SCF Done:  E(UB3LYP) =  -1463.18996794     A.U. after    2 cycles

 Alpha  occ. eigenvalues --  -89.02546 -19.09507 -19.09451 -19.06924 -19.06886
 Alpha  occ. eigenvalues --  -19.06883 -19.04724 -19.04273 -10.21032 -10.19927
 Alpha  occ. eigenvalues --  -10.19022 -10.18779 -10.16185 -10.15519 -10.15471
 Alpha  occ. eigenvalues --  -10.15382 -10.15356 -10.15076 -10.14880 -10.14862
 Alpha  occ. eigenvalues --  -10.14839 -10.13959  -8.08414  -6.04705  -6.04686
 Alpha  occ. eigenvalues --   -6.04562  -1.08415  -1.01820  -1.01199  -0.95048
 Alpha  occ. eigenvalues --   -0.94671  -0.94597  -0.94491  -0.83720  -0.81886
 Alpha  occ. eigenvalues --   -0.76733  -0.73330  -0.72128  -0.70743  -0.65851
 Alpha  occ. eigenvalues --   -0.62705  -0.61001  -0.58207  -0.55674  -0.54723
 Alpha  occ. eigenvalues --   -0.51510  -0.49910  -0.48708  -0.47745  -0.46120
 Alpha  occ. eigenvalues --   -0.44567  -0.43654  -0.43320  -0.43038  -0.41095
 Alpha  occ. eigenvalues --   -0.40626  -0.40242  -0.39672  -0.38613  -0.38484
 Alpha  occ. eigenvalues --   -0.37366  -0.36965  -0.36617  -0.34881  -0.33555
 Alpha  occ. eigenvalues --   -0.32734  -0.32578  -0.31941  -0.31375  -0.31335
 Alpha  occ. eigenvalues --   -0.30777  -0.28744  -0.27716  -0.27003  -0.26835
 Alpha  occ. eigenvalues --   -0.23810  -0.23602  -0.23452  -0.22800  -0.22221
 Alpha  occ. eigenvalues --   -0.21592  -0.18721  -0.12066
 Alpha virt. eigenvalues --   -0.02734  -0.00643   0.00292   0.01310   0.01698
 Alpha virt. eigenvalues --    0.02618   0.02888   0.03114   0.04652   0.04931
 Alpha virt. eigenvalues --    0.05018   0.05132   0.05820   0.06666   0.06737

  Beta  occ. eigenvalues --  -89.02546 -19.09507 -19.09451 -19.06924 -19.06886
  Beta  occ. eigenvalues --  -19.06883 -19.04724 -19.04273 -10.21032 -10.19927
  Beta  occ. eigenvalues --  -10.19022 -10.18779 -10.16185 -10.15519 -10.15471
  Beta  occ. eigenvalues --  -10.15382 -10.15356 -10.15076 -10.14880 -10.14862
  Beta  occ. eigenvalues --  -10.14839 -10.13959  -8.08414  -6.04705  -6.04686
  Beta  occ. eigenvalues --   -6.04562  -1.08415  -1.01820  -1.01199  -0.95048
  Beta  occ. eigenvalues --   -0.94671  -0.94597  -0.94491  -0.83720  -0.81886
  Beta  occ. eigenvalues --   -0.76733  -0.73330  -0.72128  -0.70743  -0.65851
  Beta  occ. eigenvalues --   -0.62705  -0.61001  -0.58207  -0.55674  -0.54723
  Beta  occ. eigenvalues --   -0.51510  -0.49910  -0.48708  -0.47745  -0.46120
  Beta  occ. eigenvalues --   -0.44567  -0.43654  -0.43320  -0.43038  -0.41095
  Beta  occ. eigenvalues --   -0.40626  -0.40242  -0.39672  -0.38613  -0.38484
  Beta  occ. eigenvalues --   -0.37366  -0.36965  -0.36617  -0.34881  -0.33555
  Beta  occ. eigenvalues --   -0.32734  -0.32578  -0.31941  -0.31375  -0.31335
  Beta  occ. eigenvalues --   -0.30777  -0.28744  -0.27716  -0.27003  -0.26835
  Beta  occ. eigenvalues --   -0.23810  -0.23602  -0.23452  -0.22800  -0.22221
  Beta  occ. eigenvalues --   -0.21592  -0.18721  -0.12066
  Beta virt. eigenvalues --   -0.02734  -0.00643   0.00292   0.01310   0.01698
  Beta virt. eigenvalues --    0.02618   0.02888   0.03114   0.04652   0.04931
  Beta virt. eigenvalues --    0.05018   0.05132   0.05820   0.06666   0.06737

 Mulliken charges and spin densities:
               1          2
     1  C   -0.157270  -0.000000
     2  C   -0.460673   0.000000
     3  C   -0.501090   0.000000
     4  C    0.229246   0.000000
     5  C    0.158498   0.000000
     6  C   -0.144317   0.000000
     7  C   -0.218917  -0.000000
     8  C    0.236967  -0.000000
     9  C    0.718732  -0.000000
    10  C   -0.286009   0.000000
    11  C   -0.579930  -0.000000
    12  C   -0.348659   0.000000
    13  C   -0.354848   0.000000
    14  C   -0.231731  -0.000000
    15  O   -0.668491  -0.000000
    16  O   -0.670486   0.000000
    17  O   -0.475395  -0.000000
    18  H    0.154543   0.000000
    19  H    0.166470  -0.000000
    20  H    0.164178   0.000000
    21  H    0.452383   0.000000
    22  O   -0.495250  -0.000000
    23  H    0.207005  -0.000000
    24  H    0.389290  -0.000000
    25  H    0.159415   0.000000
    26  S    0.825050   0.000000
    27  O   -0.428219  -0.000000
    28  O   -0.427655  -0.000000
    29  O   -0.412835  -0.000000
 Sum of Mulliken charges =  -3.00000  -0.00000

 Dipole moment (field-independent basis, Debye):
    X=             -3.9565    Y=             49.1336    Z=            -25.4920  Tot=             55.4942
 Quadrupole moment (field-independent basis, Debye-Ang):
   XX=           -226.1833   YY=           -388.7479   ZZ=           -238.1996
   XY=             -5.1233   XZ=             30.1893   YZ=            129.7202

  Exact polarizability: 533.251  17.954 367.195-145.491-104.686 301.359
 Approx polarizability: 586.739 -10.555 437.030-141.155-117.670 332.504

                      1                      2                      3
                      A                      A                      A
 Frequencies --     39.8965                69.6292                83.4044
 Red. masses --      8.6666                11.7213                 8.5152
 Frc consts  --      0.0081                 0.0335                 0.0349
 IR Inten    --      0.0451                 0.5758                 2.9480

                      4                      5                      6
                      A                      A                      A
 Frequencies --     95.3188               120.9908               141.0745
 Red. masses --      9.7087                10.8598                 9.7104
 Frc consts  --      0.0520                 0.0937                 0.1139
 IR Inten    --      4.9026                 0.4692                 0.8461

                      7                      8                      9
                      A                      A                      A
 Frequencies --    145.6737               180.9044               209.0772
 Red. masses --      5.4665                 8.8159                 7.4481
 Frc consts  --      0.0683                 0.1700                 0.1918
 IR Inten    --      0.1626                 2.6102                 6.7085

                     10                     11                     12
                      A                      A                      A
 Frequencies --    231.4538               252.3476               297.1411
 Red. masses --      9.3530                 8.2199                 9.5661
 Frc consts  --      0.2952                 0.3084                 0.4976
 IR Inten    --      1.4531                 0.5973                 9.3447

                     13                     14                     15
                      A                      A                      A
 Frequencies --    298.2930               341.6926               350.9726
 Red. masses --      8.0779                 6.6666                 5.5600
 Frc consts  --      0.4235                 0.4586                 0.4035
 IR Inten    --      7.3134                50.2350                44.1061

                     16                     17                     18
                      A                      A                      A
 Frequencies --    384.9516               405.6822               413.6698
 Red. masses --     10.4372                11.6218                 8.3493
 Frc consts  --      0.9113                 1.1269                 0.8418
 IR Inten    --      0.8898                 7.5827                 2.6744

                     19                     20                     21
                      A                      A                      A
 Frequencies --    423.7570               447.6001               475.1008
 Red. masses --      7.7616                 3.3446                12.4423
 Frc consts  --      0.8212                 0.3948                 1.6547
 IR Inten    --    250.6735                 4.0300                50.6936

                     22                     23                     24
                      A                      A                      A
 Frequencies --    483.5482               488.4080               494.8412
 Red. masses --     10.6274                 6.6895                13.8253
 Frc consts  --      1.4640                 0.9402                 1.9946
 IR Inten    --      7.2253                 8.4893                55.3855

                     25                     26                     27
                      A                      A                      A
 Frequencies --    538.3338               539.4038               552.2680
 Red. masses --      7.9950                 8.5227                 8.9854
 Frc consts  --      1.3651                 1.4610                 1.6147
 IR Inten    --     58.5655                29.3685                 2.5943

                     28                     29                     30
                      A                      A                      A
 Frequencies --    595.6456               609.7065               647.6904
 Red. masses --     14.1642                 3.9229                 5.8479
 Frc consts  --      2.9609                 0.8592                 1.4454
 IR Inten    --    475.0180                21.5231                 1.4400

                     31                     32                     33
                      A                      A                      A
 Frequencies --    649.3543               687.9166               715.3689
 Red. masses --      6.5817                 7.2236                 4.1586
 Frc consts  --      1.6351                 2.0141                 1.2539
 IR Inten    --      4.3009               139.3641                11.7760

                     34                     35                     36
                      A                      A                      A
 Frequencies --    726.2004               727.4073               775.1543
 Red. masses --      6.0429                 4.3795                 1.9296
 Frc consts  --      1.8776                 1.3653                 0.6831
 IR Inten    --     30.6104                45.2282                68.4794

                     37                     38                     39
                      A                      A                      A
 Frequencies --    781.6745               787.3027               822.5400
 Red. masses --      4.9960                 8.1897                 1.4279
 Frc consts  --      1.7986                 2.9909                 0.5692
 IR Inten    --      0.3868                80.1581                51.4011

                     40                     41                     42
                      A                      A                      A
 Frequencies --    855.3782               890.3562               904.2264
 Red. masses --      1.5512                 8.6064                 8.7240
 Frc consts  --      0.6687                 4.0197                 4.2026
 IR Inten    --      0.0453               107.3194               251.4059

                     43                     44                     45
                      A                      A                      A
 Frequencies --    952.7108               975.9038               985.2606
 Red. masses --     13.2521                 1.3511                 1.2582
 Frc consts  --      7.0869                 0.7582                 0.7196
 IR Inten    --    668.7778                 5.1980                 0.1114

                     46                     47                     48
                      A                      A                      A
 Frequencies --    995.4065              1009.6978              1020.0489
 Red. masses --      7.3041                 1.0495                 2.2387
 Frc consts  --      4.2640                 0.6304                 1.3724
 IR Inten    --    709.8395               126.8837                26.8160

                     49                     50                     51
                      A                      A                      A
 Frequencies --   1052.2295              1079.5167              1083.2999
 Red. masses --      1.0491                 4.1935                15.4235
 Frc consts  --      0.6843                 2.8793                10.6642
 IR Inten    --    145.3132               181.0907               464.4026

                     52                     53                     54
                      A                      A                      A
 Frequencies --   1085.4702              1092.6789              1138.6938
 Red. masses --      9.1470                 4.7568                 1.4625
 Frc consts  --      6.3498                 3.3462                 1.1173
 IR Inten    --    220.8069               627.5123               240.6991

                     55                     56                     57
                      A                      A                      A
 Frequencies --   1158.6745              1185.0299              1228.0095
 Red. masses --      1.5582                 1.9366                 4.7200
 Frc consts  --      1.2325                 1.6023                 4.1937
 IR Inten    --    242.9399               118.6145               234.2475

                     58                     59                     60
                      A                      A                      A
 Frequencies --   1242.1543              1253.8775              1282.9250
 Red. masses --      2.5803                 4.3383                 6.5192
 Frc consts  --      2.3457                 4.0187                 6.3219
 IR Inten    --      7.8588                37.0551               155.3870

                     61                     62                     63
                      A                      A                      A
 Frequencies --   1288.8730              1328.9357              1369.5891
 Red. masses --      4.5155                 3.0065                 8.4127
 Frc consts  --      4.4195                 3.1284                 9.2975
 IR Inten    --    270.5741               528.5116               323.0589

                     64                     65                     66
                      A                      A                      A
 Frequencies --   1383.7666              1428.6940              1445.5965
 Red. masses --      3.5444                 8.3283                 3.3062
 Frc consts  --      3.9987                10.0157                 4.0708
 IR Inten    --   1356.7129                76.0513               599.0643

                     67                     68                     69
                      A                      A                      A
 Frequencies --   1476.7876              1506.1691              1538.4122
 Red. masses --      2.7106                 3.6158                 6.4377
 Frc consts  --      3.4830                 4.8328                 8.9769
 IR Inten    --     13.6908               269.5083                60.3860

                     70                     71                     72
                      A                      A                      A
 Frequencies --   1550.4885              1583.2952              1617.6312
 Red. masses --      4.1976                 3.5463                 5.3126
 Frc consts  --      5.9455                 5.2379                 8.1906
 IR Inten    --    204.2899               207.9073                14.8458

                     73                     74                     75
                      A                      A                      A
 Frequencies --   1656.2369              1664.0015              2203.3942
 Red. masses --      1.6033                 1.9147                 1.0990
 Frc consts  --      2.5913                 3.1236                 3.1436
 IR Inten    --    705.8922                37.0296              1424.5792

                     76                     77                     78
                      A                      A                      A
 Frequencies --   2457.7468              3146.3260              3160.8944
 Red. masses --      1.0859                 1.0851                 1.0892
 Frc consts  --      3.8648                 6.3289                 6.4118
 IR Inten    --   1648.1461                19.5806                27.1937

                     79                     80                     81
                      A                      A                      A
 Frequencies --   3178.4370              3183.0699              3202.5506
 Red. masses --      1.0920                 1.0940                 1.0889
 Frc consts  --      6.5001                 6.5305                 6.5798
 IR Inten    --     36.4737                68.3705                25.6817

 - Thermochemistry -
 -------------------
 Temperature   298.150 Kelvin.  Pressure   1.00000 Atm.
 Atom     1 has atomic number  6 and mass  12.00000

 Molecular mass:   318.99125 amu.
 Principal axes and moments of inertia in atomic units:
                           1         2         3
     Eigenvalues --  3092.85509********************
           X            0.75209  -0.57325   0.32518
           Y            0.41015   0.79333   0.44990
           Z           -0.51588  -0.20499   0.83177
 This molecule is an asymmetric top.
 Rotational symmetry number  1.
 Warning -- assumption of classical behavior for rotation
           may cause significant error
 Rotational temperatures (Kelvin)      0.02800     0.00791     0.00633
 Rotational constants (GHZ):           0.58352     0.16478     0.13181
 Zero-point vibrational energy     483733.0 (Joules/Mol)
                                  115.61496 (Kcal/Mol)
 Warning -- explicit consideration of  29 degrees of freedom as
           vibrations may cause significant error
 Vibrational temperatures:     57.40   100.18   120.00   137.14   174.08
          (Kelvin)            202.97   209.59   260.28   300.82   333.01
                              363.07   427.52   429.18   491.62   504.97
                              553.86   583.69   595.18   609.69   644.00
                              683.56   695.72   702.71   711.97   774.54
                              776.08   794.59   857.00   877.23   931.88
                              934.28   989.76  1029.26  1044.84  1046.58
                             1115.27  1124.66  1132.75  1183.45  1230.70
                             1281.02  1300.98  1370.74  1404.11  1417.57
                             1432.17  1452.73  1467.62  1513.92  1553.18
                             1558.63  1561.75  1572.12  1638.33  1667.07
                             1704.99  1766.83  1787.18  1804.05  1845.84
                             1854.40  1912.04  1970.53  1990.93  2055.57
                             2079.89  2124.77  2167.04  2213.43  2230.81
                             2278.01  2327.41  2382.96  2394.13  3170.19
                             3536.15  4526.86  4547.82  4573.06  4579.73
                             4607.76

 Zero-point correction=                           0.184244 (Hartree/Particle)
 Thermal correction to Energy=                    0.201028
 Thermal correction to Enthalpy=                  0.201972
 Thermal correction to Gibbs Free Energy=         0.139845
 Sum of electronic and zero-point Energies=          -1463.005724
 Sum of electronic and thermal Energies=             -1462.988940
 Sum of electronic and thermal Enthalpies=           -1462.987996
 Sum of electronic and thermal Free Energies=        -1463.050123

                     E (Thermal)             CV                S
                      KCal/Mol        Cal/Mol-Kelvin    Cal/Mol-Kelvin
 Total                  126.147             66.880            130.759
 Electronic               0.000              0.000              0.000
 Translational            0.889              2.981             43.176
 Rotational               0.889              2.981             34.494
 Vibrational            124.370             60.918             53.089
 Vibration     1          0.594              1.981              5.264
 Vibration     2          0.598              1.969              4.164
 Vibration     3          0.600              1.961              3.809
 Vibration     4          0.603              1.953              3.548
 Vibration     5          0.609              1.932              3.084
 Vibration     6          0.615              1.912              2.789
 Vibration     7          0.617              1.907              2.728
 Vibration     8          0.630              1.866              2.319
 Vibration     9          0.642              1.827              2.052
 Vibration    10          0.653              1.793              1.868
 Vibration    11          0.664              1.759              1.714
 Vibration    12          0.691              1.679              1.433
 Vibration    13          0.691              1.677              1.426
 Vibration    14          0.721              1.592              1.204
 Vibration    15          0.728              1.573              1.162
 Vibration    16          0.754              1.502              1.020
 Vibration    17          0.771              1.458              0.942
 Vibration    18          0.777              1.441              0.914
 Vibration    19          0.786              1.419              0.879
 Vibration    20          0.807              1.366              0.803
 Vibration    21          0.832              1.305              0.723
 Vibration    22          0.840              1.287              0.701
 Vibration    23          0.844              1.276              0.688
 Vibration    24          0.850              1.261              0.671
 Vibration    25          0.893              1.165              0.569
 Vibration    26          0.894              1.163              0.567
 Vibration    27          0.908              1.135              0.539
 Vibration    28          0.953              1.041              0.457
 Vibration    29          0.969              1.011              0.433

 Optimization completed.
    -- Stationary point found.
 Normal termination of Gaussian 16 at Sun Feb 11 01:12:47 2024.
