 Q-Chem 5.4, Q-Chem, Inc., Pleasanton, CA (2021)
 Q-Chem 5.4.0 for Intel X86 EM64T Linux

User input:
--------------------------------------------------------------
$molecule
-1 2
C                 -2.2423380000      3.2265720000      4.1201040000
C                 -3.4673690000      2.6687570000      4.3917830000
C                 -3.9038660000      1.5331800000      3.6795740000
C                 -3.0979880000      0.9686160000      2.6991420000
C                 -1.8107940000      1.5196750000      2.3890060000
C                 -1.4006160000      2.6754760000      3.1260920000
C                 -0.1182190000      3.3425820000      2.9019260000
C                 -0.9235710000      0.9416450000      1.3740540000
C                  0.7495030000      2.8020550000      1.8686280000
C                  0.3673780000      1.6291970000      1.1538770000
C                  2.0207410000      3.4041640000      1.5697720000
C                  2.8593190000      2.8093690000      0.6257440000
C                  2.4678390000      1.6471710000     -0.0522940000
C                  1.2381170000      1.0694230000      0.1979570000
O                  0.1990580000      4.3513260000      3.6105010000
O                 -1.1999940000     -0.0802360000      0.7083490000
N                  2.3947630000      4.5908210000      2.1811890000
O                 -3.4980420000     -0.1294800000      1.9915810000
C                 -4.7565900000     -0.6981940000      2.2678120000
H                 -1.8804740000      4.0993490000      4.6478620000
H                 -4.1114850000      3.0966050000      5.1544370000
H                 -4.8729320000      1.1099320000      3.9058010000
H                  3.8176360000      3.2747120000      0.4088640000
H                  3.1385370000      1.2062690000     -0.7846820000
H                  0.9080030000      0.1775520000     -0.3184800000
H                  1.8064240000      4.8283160000      2.9828070000
H                  3.3862150000      4.7592120000      2.2514320000
H                 -4.8500980000     -1.5473020000      1.5895870000
H                 -5.5785480000      0.0056490000      2.0789020000
H                 -4.8299120000     -1.0555830000      3.3039140000
$end
$rem
MAX_SCF_CYCLES=200
BASIS  =  6-311++G(d,p)
GUI  =  2
JOB_TYPE  =  SP
METHOD  =  B3LYP
SOLVENT_METHOD = PCM
$end
$pcm
theory = CPCM
$end
$solvent
dielectric 37.219
opticaldielectric 1.43
$end

--------------------------------------------------------------

             Standard Nuclear Orientation (Angstroms)
    I     Atom           X                Y                Z
 ----------------------------------------------------------------
    1      C      -2.2423380000     3.2265720000     4.1201040000
    2      C      -3.4673690000     2.6687570000     4.3917830000
    3      C      -3.9038660000     1.5331800000     3.6795740000
    4      C      -3.0979880000     0.9686160000     2.6991420000
    5      C      -1.8107940000     1.5196750000     2.3890060000
    6      C      -1.4006160000     2.6754760000     3.1260920000
    7      C      -0.1182190000     3.3425820000     2.9019260000
    8      C      -0.9235710000     0.9416450000     1.3740540000
    9      C       0.7495030000     2.8020550000     1.8686280000
   10      C       0.3673780000     1.6291970000     1.1538770000
   11      C       2.0207410000     3.4041640000     1.5697720000
   12      C       2.8593190000     2.8093690000     0.6257440000
   13      C       2.4678390000     1.6471710000    -0.0522940000
   14      C       1.2381170000     1.0694230000     0.1979570000
   15      O       0.1990580000     4.3513260000     3.6105010000
   16      O      -1.1999940000    -0.0802360000     0.7083490000
   17      N       2.3947630000     4.5908210000     2.1811890000
   18      O      -3.4980420000    -0.1294800000     1.9915810000
   19      C      -4.7565900000    -0.6981940000     2.2678120000
   20      H      -1.8804740000     4.0993490000     4.6478620000
   21      H      -4.1114850000     3.0966050000     5.1544370000
   22      H      -4.8729320000     1.1099320000     3.9058010000
   23      H       3.8176360000     3.2747120000     0.4088640000
   24      H       3.1385370000     1.2062690000    -0.7846820000
   25      H       0.9080030000     0.1775520000    -0.3184800000
   26      H       1.8064240000     4.8283160000     2.9828070000
   27      H       3.3862150000     4.7592120000     2.2514320000
   28      H      -4.8500980000    -1.5473020000     1.5895870000
   29      H      -5.5785480000     0.0056490000     2.0789020000
   30      H      -4.8299120000    -1.0555830000     3.3039140000
 ----------------------------------------------------------------

    8    -859.0287808120      7.46e-06  Convergence criterion met
 Total energy in the final basis set =     -859.0287808120

                    Orbital Energies (a.u.)
 --------------------------------------------------------------

 Alpha MOs
 -- Occupied --
-19.1494 -19.0760 -19.0694 -14.3009 -10.2370 -10.2255 -10.2253 -10.2135
-10.2127 -10.1754 -10.1728 -10.1710 -10.1703 -10.1691 -10.1680 -10.1657
-10.1600 -10.1593 -10.1543  -1.0686  -1.0029  -0.9999  -0.9093  -0.8547
 -0.8339  -0.7812  -0.7573  -0.7382  -0.7261  -0.6943  -0.6634  -0.6288
 -0.6224  -0.5776  -0.5564  -0.5455  -0.5276  -0.5042  -0.4851  -0.4807
 -0.4663  -0.4647  -0.4615  -0.4447  -0.4383  -0.4234  -0.4214  -0.4125
 -0.4027  -0.3932  -0.3843  -0.3756  -0.3745  -0.3595  -0.3534  -0.3493
 -0.3421  -0.3316  -0.3182  -0.3063  -0.2667  -0.2475  -0.2450  -0.2300
 -0.2294  -0.2096  -0.1365

 Beta MOs
 -- Occupied --
-19.1494 -19.0713 -19.0646 -14.3007 -10.2370 -10.2238 -10.2231 -10.2134
-10.2127 -10.1749 -10.1719 -10.1705 -10.1703 -10.1682 -10.1676 -10.1650
-10.1598 -10.1584 -10.1540  -1.0685  -0.9944  -0.9912  -0.9084  -0.8523
 -0.8323  -0.7774  -0.7558  -0.7363  -0.7238  -0.6933  -0.6566  -0.6269
 -0.6201  -0.5768  -0.5547  -0.5433  -0.5262  -0.5034  -0.4833  -0.4794
 -0.4656  -0.4629  -0.4604  -0.4437  -0.4371  -0.4221  -0.4108  -0.4088
 -0.4008  -0.3913  -0.3776  -0.3741  -0.3590  -0.3579  -0.3495  -0.3440
 -0.3396  -0.3310  -0.3128  -0.3002  -0.2481  -0.2423  -0.2408  -0.2250
 -0.2232  -0.2026

          Ground-State Mulliken Net Atomic Charges

     Atom                 Charge (a.u.)    Spin (a.u.)
  --------------------------------------------------------
      1 C                    -0.225863       0.031332
      2 C                    -0.463947       0.046482
      3 C                    -0.209976       0.061853
      4 C                     0.008341       0.014158
      5 C                     0.143785       0.030619
      6 C                     0.244726       0.028221
      7 C                    -0.446039       0.118513
      8 C                    -0.492983       0.076249
      9 C                     0.181931      -0.017388
     10 C                     0.577956       0.061595
     11 C                     0.177461       0.026065
     12 C                    -0.233678       0.072134
     13 C                    -0.469318       0.041523
     14 C                    -0.142452       0.050619
     15 O                    -0.488538       0.179304
     16 O                    -0.484808       0.190393
     17 N                    -0.449989       0.011215
     18 O                    -0.160427       0.000038
     19 C                    -0.303469      -0.000237
     20 H                     0.161835      -0.001652
     21 H                     0.208251      -0.003495
     22 H                     0.201889      -0.004087
     23 H                     0.179696      -0.005091
     24 H                     0.198008      -0.003067
     25 H                     0.160207      -0.002941
     26 H                     0.317623      -0.002219
     27 H                     0.280422      -0.000621
     28 H                     0.200557      -0.000159
     29 H                     0.163959       0.000284
     30 H                     0.164841       0.000360
  --------------------------------------------------------
  Sum of atomic charges =    -1.000000

                    Cartesian Multipole Moments
 -----------------------------------------------------------------
    Charge (ESU x 10^10)
                -4.8032
    Dipole Moment (Debye)
         X       1.6301      Y     -10.0583      Z      -8.2668
       Tot      13.1212
    Quadrupole Moments (Debye-Ang)
        XX     -93.9577     XY       7.3407     YY    -156.0626
        XZ      -4.5461     YZ     -29.1546     ZZ    -138.2121

 Total job time:  130.14s(wall), 433.45s(cpu)
        *  Thank you very much for using Q-Chem.  Have a nice day.  *
