 Gaussian 16, Revision A.03,
 Gaussian 16:  ES64L-G16RevA.03 25-Dec-2016

 ----------------------------------------------------------------------
 #P UB3LYP/6-311++G(d,p) nosym opt freq SCRF=(PCM,Solvent=n,n-DiMethylF
 ormamide)
 ----------------------------------------------------------------------

 --------
 Oxidized
 --------
 Symbolic Z-matrix:
 Charge =  0 Multiplicity = 1

 SCF Done:  E(UB3LYP) =  -807.155185471     A.U. after   15 cycles
 SCF Done:  E(UB3LYP) =  -807.155257994     A.U. after   11 cycles
 SCF Done:  E(UB3LYP) =  -807.155259474     A.U. after   10 cycles
 SCF Done:  E(UB3LYP) =  -807.155266988     A.U. after   10 cycles
 SCF Done:  E(UB3LYP) =  -807.155267384     A.U. after    9 cycles
 SCF Done:  E(UB3LYP) =  -807.155267606     A.U. after    9 cycles
 Optimization completed.
    -- Stationary point found.
 Normal termination of Gaussian 16 at Sun Feb 11 00:48:51 2024.

 ----------------------------------------------------------------------
 #P Geom=AllCheck Guess=TCheck SCRF=Check GenChk UB3LYP/6-311++G(d,p) F
 req
 ----------------------------------------------------------------------

 Structure from the checkpoint file:  "283.chk"
 --------
 Oxidized
 --------
 Charge =  0 Multiplicity = 1

                          Input orientation:
 ---------------------------------------------------------------------
 Center     Atomic      Atomic             Coordinates (Angstroms)
 Number     Number       Type             X           Y           Z
 ---------------------------------------------------------------------
      1          6           0       -1.951436    3.067528    0.047411
      2          6           0       -2.930555    2.358823   -0.643828
      3          6           0       -2.651784    1.081363   -1.131423
      4          6           0       -0.692894    2.496580    0.249825
      5          6           0       -0.408614    1.209611   -0.239981
      6          6           0       -1.395915    0.508673   -0.930071
      7          6           0        0.351699    3.234302    0.979285
      8          6           0        1.680820    2.580535    1.160410
      9          6           0        1.975348    1.337590    0.705051
     10          6           0        0.938914    0.585194   -0.027571
     11          8           0        0.200686    4.357255    1.450696
     12          8           0        1.168987   -0.541638   -0.457699
     13          1           0       -2.150668    4.059629    0.432795
     14          1           0       -3.907228    2.800110   -0.802190
     15          1           0       -3.413777    0.529846   -1.669490
     16          1           0       -1.172073   -0.481818   -1.305049
     17          6           0        3.329750    0.713033    0.894932
     18          8           0        2.574438    3.328459    1.826894
     19          1           0        3.203525   -0.365852    1.013482
     20          1           0        3.776963    1.099215    1.814332
     21          1           0        2.123578    4.162857    2.058112
     22          6           0        4.286965    0.980869   -0.286622
     23          6           0        5.659523    0.329210   -0.090339
     24          6           0        6.625979    0.585012   -1.252476
     25          6           0        7.996562   -0.068690   -1.051726
     26          1           0        4.408690    2.062675   -0.412340
     27          1           0        3.831630    0.606292   -1.209794
     28          1           0        5.531030   -0.752887    0.041183
     29          1           0        6.107423    0.700668    0.840408
     30          1           0        6.753153    1.666384   -1.383908
     31          1           0        6.177430    0.214320   -2.182077
     32          1           0        8.484732    0.308043   -0.147170
     33          1           0        8.661447    0.131745   -1.896667
     34          1           0        7.904601   -1.154873   -0.950760
 ---------------------------------------------------------------------

 SCF Done:  E(UB3LYP) =  -807.155267606     A.U. after    1 cycles

 Alpha  occ. eigenvalues --  -19.18097 -19.15109 -19.13026 -10.29529 -10.28228
 Alpha  occ. eigenvalues --  -10.26928 -10.21324 -10.21213 -10.20551 -10.20379
 Alpha  occ. eigenvalues --  -10.20194 -10.20023 -10.20007 -10.17811 -10.16915
 Alpha  occ. eigenvalues --  -10.16345 -10.16297 -10.15608  -1.11022  -1.06869
 Alpha  occ. eigenvalues --   -1.06151  -0.89494  -0.84621  -0.80770  -0.78574
 Alpha  occ. eigenvalues --   -0.78210  -0.75000  -0.70734  -0.68158  -0.65742
 Alpha  occ. eigenvalues --   -0.63530  -0.60851  -0.59938  -0.57912  -0.57594
 Alpha  occ. eigenvalues --   -0.54494  -0.52083  -0.49991  -0.48242  -0.47624
 Alpha  occ. eigenvalues --   -0.47268  -0.46883  -0.45539  -0.45226  -0.44125
 Alpha  occ. eigenvalues --   -0.42898  -0.42696  -0.41831  -0.41543  -0.40463
 Alpha  occ. eigenvalues --   -0.40062  -0.38629  -0.37897  -0.37584  -0.37277
 Alpha  occ. eigenvalues --   -0.36212  -0.34021  -0.33351  -0.32950  -0.32482
 Alpha  occ. eigenvalues --   -0.30442  -0.29186  -0.28236  -0.28064  -0.25873
 Alpha virt. eigenvalues --   -0.12790  -0.05861  -0.02807  -0.00974  -0.00118
 Alpha virt. eigenvalues --    0.00306   0.01070   0.01206   0.01897   0.02176
 Alpha virt. eigenvalues --    0.02524   0.02983   0.03417   0.03860   0.04527

  Beta  occ. eigenvalues --  -19.18097 -19.15109 -19.13026 -10.29529 -10.28228
  Beta  occ. eigenvalues --  -10.26928 -10.21324 -10.21213 -10.20551 -10.20379
  Beta  occ. eigenvalues --  -10.20194 -10.20023 -10.20007 -10.17811 -10.16915
  Beta  occ. eigenvalues --  -10.16345 -10.16297 -10.15608  -1.11022  -1.06869
  Beta  occ. eigenvalues --   -1.06151  -0.89494  -0.84621  -0.80770  -0.78574
  Beta  occ. eigenvalues --   -0.78210  -0.75000  -0.70734  -0.68158  -0.65742
  Beta  occ. eigenvalues --   -0.63530  -0.60851  -0.59938  -0.57912  -0.57594
  Beta  occ. eigenvalues --   -0.54494  -0.52083  -0.49991  -0.48242  -0.47624
  Beta  occ. eigenvalues --   -0.47268  -0.46883  -0.45539  -0.45226  -0.44125
  Beta  occ. eigenvalues --   -0.42898  -0.42696  -0.41831  -0.41543  -0.40463
  Beta  occ. eigenvalues --   -0.40062  -0.38629  -0.37897  -0.37584  -0.37277
  Beta  occ. eigenvalues --   -0.36212  -0.34021  -0.33351  -0.32950  -0.32482
  Beta  occ. eigenvalues --   -0.30442  -0.29186  -0.28236  -0.28064  -0.25873
  Beta virt. eigenvalues --   -0.12790  -0.05861  -0.02807  -0.00974  -0.00118
  Beta virt. eigenvalues --    0.00306   0.01070   0.01206   0.01897   0.02176
  Beta virt. eigenvalues --    0.02524   0.02983   0.03417   0.03860   0.04527

 Mulliken charges and spin densities:
               1          2
     1  C    0.256633   0.000000
     2  C   -0.394195   0.000000
     3  C   -0.372514   0.000000
     4  C    0.311303   0.000000
     5  C    0.036747  -0.000000
     6  C    0.193846   0.000000
     7  C   -0.706811  -0.000000
     8  C   -0.484835   0.000000
     9  C    1.845197   0.000000
    10  C   -0.842707  -0.000000
    11  O   -0.313725   0.000000
    12  O   -0.280464   0.000000
    13  H    0.192626   0.000000
    14  H    0.210675   0.000000
    15  H    0.207726  -0.000000
    16  H    0.190539  -0.000000
    17  C   -0.341335   0.000000
    18  O   -0.220565  -0.000000
    19  H    0.213761  -0.000000
    20  H    0.225683  -0.000000
    21  H    0.308267  -0.000000
    22  C   -0.468427  -0.000000
    23  C   -0.180596   0.000000
    24  C   -0.177124  -0.000000
    25  C   -0.662136   0.000000
    26  H    0.165356   0.000000
    27  H    0.166595  -0.000000
    28  H    0.115166   0.000000
    29  H    0.114588  -0.000000
    30  H    0.131803   0.000000
    31  H    0.131664   0.000000
    32  H    0.141121   0.000000
    33  H    0.144805  -0.000000
    34  H    0.141333   0.000000
 Sum of Mulliken charges =  -0.00000   0.00000

 Dipole moment (field-independent basis, Debye):
    X=             -2.6999    Y=              1.2270    Z=             -0.7117  Tot=              3.0498
 Quadrupole moment (field-independent basis, Debye-Ang):
   XX=            -96.5780   YY=           -112.2876   ZZ=           -108.2368
   XY=             -1.4473   XZ=              4.4981   YZ=             -3.0886

  Exact polarizability: 305.846 -25.047 288.744  32.781  56.363 197.085
 Approx polarizability: 315.317 -26.149 374.614  36.700  82.957 230.542

                      1                      2                      3
                      A                      A                      A
 Frequencies --     23.5463                34.2835                50.0887
 Red. masses --      4.7413                 5.4967                 1.6758
 Frc consts  --      0.0015                 0.0038                 0.0025
 IR Inten    --      0.4052                 2.6348                 0.1040

                      4                      5                      6
                      A                      A                      A
 Frequencies --     71.0270                98.7275               107.3451
 Red. masses --      6.9076                 2.5615                 4.4374
 Frc consts  --      0.0205                 0.0147                 0.0301
 IR Inten    --      5.8390                 0.3209                 0.1593

                      7                      8                      9
                      A                      A                      A
 Frequencies --    122.9779               137.3679               156.2997
 Red. masses --      5.9616                 1.8233                 4.3521
 Frc consts  --      0.0531                 0.0203                 0.0626
 IR Inten    --      0.0288                 0.0222                 0.5553

                     10                     11                     12
                      A                      A                      A
 Frequencies --    183.5930               243.6827               253.3698
 Red. masses --      5.6319                 1.1264                 4.2550
 Frc consts  --      0.1118                 0.0394                 0.1609
 IR Inten    --      0.6771                 0.0239                 0.4966

                     13                     14                     15
                      A                      A                      A
 Frequencies --    282.2332               306.8299               343.6560
 Red. masses --      4.6905                 2.9195                 4.8285
 Frc consts  --      0.2201                 0.1619                 0.3360
 IR Inten    --      0.7845                 5.5418                13.0480

                     16                     17                     18
                      A                      A                      A
 Frequencies --    354.7643               387.1981               411.4096
 Red. masses --      4.0616                 9.9256                 3.5350
 Frc consts  --      0.3012                 0.8767                 0.3525
 IR Inten    --     10.9543                33.6680                 3.2660

                     19                     20                     21
                      A                      A                      A
 Frequencies --    418.9932               437.4328               446.1961
 Red. masses --      9.5889                 4.0986                 5.1298
 Frc consts  --      0.9918                 0.4621                 0.6017
 IR Inten    --     14.6255                10.0111                 8.4349

                     22                     23                     24
                      A                      A                      A
 Frequencies --    477.0961               523.5387               581.6550
 Red. masses --      5.5271                 7.6070                 2.4116
 Frc consts  --      0.7412                 1.2285                 0.4807
 IR Inten    --      9.1726                 5.5304                76.3873

                     25                     26                     27
                      A                      A                      A
 Frequencies --    604.2024               652.0966               675.6852
 Red. masses --      1.5038                 6.3646                 6.0413
 Frc consts  --      0.3234                 1.5946                 1.6251
 IR Inten    --     67.2928                 8.3570                 5.5083

                     28                     29                     30
                      A                      A                      A
 Frequencies --    705.7976               711.0959               731.5616
 Red. masses --      3.1778                 4.5625                 1.1393
 Frc consts  --      0.9327                 1.3593                 0.3592
 IR Inten    --      3.9427                 8.5779                13.4506

                     31                     32                     33
                      A                      A                      A
 Frequencies --    734.4773               756.3479               771.2280
 Red. masses --      2.3829                 1.3004                 7.4664
 Frc consts  --      0.7574                 0.4383                 2.6165
 IR Inten    --    112.4139                 0.4800                 1.9949

                     34                     35                     36
                      A                      A                      A
 Frequencies --    806.1773               824.2380               883.9154
 Red. masses --      1.9678                 1.6648                 2.1034
 Frc consts  --      0.7535                 0.6664                 0.9683
 IR Inten    --     16.5740                 4.0378                30.7622

                     37                     38                     39
                      A                      A                      A
 Frequencies --    894.3122               910.7480               953.2934
 Red. masses --      2.0949                 1.3394                 4.3699
 Frc consts  --      0.9872                 0.6546                 2.3398
 IR Inten    --      3.0363                 0.0206                76.1634

                     40                     41                     42
                      A                      A                      A
 Frequencies --    975.0629               997.7151               999.4909
 Red. masses --      1.4847                 1.5912                 2.7540
 Frc consts  --      0.8317                 0.9332                 1.6209
 IR Inten    --      6.2392                 7.3430                16.4457

                     43                     44                     45
                      A                      A                      A
 Frequencies --   1021.9804              1024.9084              1038.2233
 Red. masses --      1.3329                 3.4467                 2.9980
 Frc consts  --      0.8202                 2.1331                 1.9040
 IR Inten    --      0.0890                49.0740                27.1659

                     46                     47                     48
                      A                      A                      A
 Frequencies --   1055.1096              1061.7540              1109.4584
 Red. masses --      2.0072                 2.3769                 2.1816
 Frc consts  --      1.3166                 1.5787                 1.5821
 IR Inten    --      2.1019                 0.5868                 6.6859

                     49                     50                     51
                      A                      A                      A
 Frequencies --   1122.5431              1129.4864              1179.2811
 Red. masses --      2.2605                 1.6939                 1.1874
 Frc consts  --      1.6782                 1.2732                 0.9730
 IR Inten    --     20.9845                72.7152                45.9777

                     52                     53                     54
                      A                      A                      A
 Frequencies --   1192.5921              1221.1705              1234.5784
 Red. masses --      2.2477                 1.9409                 1.9742
 Frc consts  --      1.8835                 1.7054                 1.7729
 IR Inten    --     60.4777                17.7330               257.8881

                     55                     56                     57
                      A                      A                      A
 Frequencies --   1263.8899              1280.7134              1289.2939
 Red. masses --      1.3003                 1.7285                 1.6802
 Frc consts  --      1.2238                 1.6704                 1.6456
 IR Inten    --     11.6664               121.9374               356.5140

                     58                     59                     60
                      A                      A                      A
 Frequencies --   1304.3736              1320.1415              1330.1570
 Red. masses --      1.7914                 1.7813                 1.0563
 Frc consts  --      1.7957                 1.8291                 1.1012
 IR Inten    --     88.4097               136.5730                 3.4986

                     61                     62                     63
                      A                      A                      A
 Frequencies --   1334.6928              1338.1536              1367.5306
 Red. masses --      1.4531                 1.7717                 6.3654
 Frc consts  --      1.5252                 1.8691                 7.0138
 IR Inten    --      2.6287               101.1362               121.7347

                     64                     65                     66
                      A                      A                      A
 Frequencies --   1371.4118              1379.3292              1392.8480
 Red. masses --      1.4232                 2.2096                 1.5840
 Frc consts  --      1.5771                 2.4768                 1.8106
 IR Inten    --      6.7854               595.5711                 6.3009

                     67                     68                     69
                      A                      A                      A
 Frequencies --   1403.7873              1470.4252              1473.4941
 Red. masses --      1.2423                 1.1069                 1.0759
 Frc consts  --      1.4424                 1.4101                 1.3763
 IR Inten    --      3.3370                 8.7121                 2.9807

                     70                     71                     72
                      A                      A                      A
 Frequencies --   1482.9171              1484.3325              1488.0320
 Red. masses --      1.1712                 1.9751                 1.0400
 Frc consts  --      1.5174                 2.5639                 1.3568
 IR Inten    --      2.9164                 7.5580                10.5395

                     73                     74                     75
                      A                      A                      A
 Frequencies --   1494.9299              1504.8869              1505.2455
 Red. masses --      1.0886                 2.1480                 1.2223
 Frc consts  --      1.4334                 2.8661                 1.6317
 IR Inten    --      1.6618                 6.2542                21.4564

                     76                     77                     78
                      A                      A                      A
 Frequencies --   1610.3467              1619.0816              1673.1655
 Red. masses --      6.6140                 6.0632                10.4998
 Frc consts  --     10.1054                 9.3647                17.3185
 IR Inten    --     29.6672               309.3374               593.4551

                     79                     80                     81
                      A                      A                      A
 Frequencies --   1686.6267              1688.0900              2993.8663
 Red. masses --     12.0006                 7.5509                 1.0575
 Frc consts  --     20.1136                12.6777                 5.5847
 IR Inten    --    378.5546               135.7821                21.6048

                     82                     83                     84
                      A                      A                      A
 Frequencies --   3003.8251              3014.0601              3014.3001
 Red. masses --      1.0592                 1.0574                 1.0724
 Frc consts  --      5.6308                 5.6595                 5.7410
 IR Inten    --     62.4022                56.5725                19.2822

                     85                     86                     87
                      A                      A                      A
 Frequencies --   3016.6837              3034.7679              3047.0040
 Red. masses --      1.0627                 1.1036                 1.0593
 Frc consts  --      5.6979                 5.9883                 5.7947
 IR Inten    --     54.8808                25.5743                57.3350

                     88                     89                     90
                      A                      A                      A
 Frequencies --   3053.9990              3073.3950              3078.3134
 Red. masses --      1.1038                 1.1027                 1.1011
 Frc consts  --      6.0654                 6.1370                 6.1478
 IR Inten    --     75.1592               115.0872                70.3799

                     91                     92                     93
                      A                      A                      A
 Frequencies --   3092.5912              3179.9501              3191.9155
 Red. masses --      1.1050                 1.0876                 1.0911
 Frc consts  --      6.2268                 6.4796                 6.5498
 IR Inten    --     35.8398                 3.2441                 8.6034

                     94                     95                     96
                      A                      A                      A
 Frequencies --   3202.9631              3206.7649              3616.9594
 Red. masses --      1.0934                 1.0952                 1.0646
 Frc consts  --      6.6090                 6.6358                 8.2056
 IR Inten    --      5.0870                14.4506               281.6531

 - Thermochemistry -
 -------------------
 Temperature   298.150 Kelvin.  Pressure   1.00000 Atm.
 Atom     1 has atomic number  6 and mass  12.00000

 Molecular mass:   244.10994 amu.
 Principal axes and moments of inertia in atomic units:
                           1         2         3
     Eigenvalues --  2158.110829028.82450**********
           X            0.97308   0.21263  -0.08893
           Y           -0.22559   0.79956  -0.55662
           Z           -0.04725   0.56169   0.82600
 This molecule is an asymmetric top.
 Rotational symmetry number  1.
 Warning -- assumption of classical behavior for rotation
           may cause significant error
 Rotational temperatures (Kelvin)      0.04013     0.00959     0.00815
 Rotational constants (GHZ):           0.83626     0.19989     0.16987
 Zero-point vibrational energy     728592.2 (Joules/Mol)
                                  174.13771 (Kcal/Mol)
 Warning -- explicit consideration of  25 degrees of freedom as
           vibrations may cause significant error
 Vibrational temperatures:     33.88    49.33    72.07   102.19   142.05
          (Kelvin)            154.45   176.94   197.64   224.88   264.15
                              350.61   364.54   406.07   441.46   494.44
                              510.43   557.09   591.93   602.84   629.37
                              641.98   686.43   753.26   836.87   869.31
                              938.22   972.16  1015.49  1023.11  1052.55
                             1056.75  1088.22  1109.63  1159.91  1185.89
                             1271.76  1286.72  1310.36  1371.58  1402.90
                             1435.49  1438.04  1470.40  1474.61  1493.77
                             1518.07  1527.63  1596.26  1615.09  1625.08
                             1696.72  1715.87  1756.99  1776.28  1818.46
                             1842.66  1855.01  1876.70  1899.39  1913.80
                             1920.33  1925.30  1967.57  1973.16  1984.55
                             2004.00  2019.74  2115.61  2120.03  2133.59
                             2135.62  2140.95  2150.87  2165.20  2165.71
                             2316.93  2329.50  2407.31  2426.68  2428.78
                             4307.51  4321.83  4336.56  4336.91  4340.33
                             4366.35  4383.96  4394.02  4421.93  4429.01
                             4449.55  4575.24  4592.45  4608.35  4613.82
                             5204.00

 Zero-point correction=                           0.277506 (Hartree/Particle)
 Thermal correction to Energy=                    0.294345
 Thermal correction to Enthalpy=                  0.295289
 Thermal correction to Gibbs Free Energy=         0.231336
 Sum of electronic and zero-point Energies=           -806.877762
 Sum of electronic and thermal Energies=              -806.860923
 Sum of electronic and thermal Enthalpies=            -806.859979
 Sum of electronic and thermal Free Energies=         -806.923932

                     E (Thermal)             CV                S
                      KCal/Mol        Cal/Mol-Kelvin    Cal/Mol-Kelvin
 Total                  184.704             63.727            134.601
 Electronic               0.000              0.000              0.000
 Translational            0.889              2.981             42.378
 Rotational               0.889              2.981             33.692
 Vibrational            182.927             57.765             58.530
 Vibration     1          0.593              1.985              6.310
 Vibration     2          0.594              1.983              5.565
 Vibration     3          0.595              1.978              4.814
 Vibration     4          0.598              1.968              4.125
 Vibration     5          0.604              1.950              3.479
 Vibration     6          0.606              1.943              3.316
 Vibration     7          0.610              1.930              3.053
 Vibration     8          0.614              1.916              2.840
 Vibration     9          0.620              1.896              2.594
 Vibration    10          0.631              1.862              2.292
 Vibration    11          0.659              1.773              1.776
 Vibration    12          0.665              1.757              1.707
 Vibration    13          0.681              1.707              1.520
 Vibration    14          0.697              1.661              1.379
 Vibration    15          0.722              1.588              1.195
 Vibration    16          0.731              1.565              1.145
 Vibration    17          0.756              1.498              1.011
 Vibration    18          0.775              1.445              0.922
 Vibration    19          0.782              1.429              0.895
 Vibration    20          0.798              1.389              0.835
 Vibration    21          0.805              1.369              0.807
 Vibration    22          0.834              1.301              0.718
 Vibration    23          0.878              1.198              0.602
 Vibration    24          0.938              1.071              0.482
 Vibration    25          0.963              1.023              0.442

                           ! Non-Optimized Parameters !
 Normal termination of Gaussian 16 at Sun Feb 11 01:41:47 2024.
