 Q-Chem 5.4, Q-Chem, Inc., Pleasanton, CA (2021)
 Q-Chem 5.4.0 for Intel X86 EM64T Linux

User input:
--------------------------------------------------------------
$molecule
-1 2
C                 -1.2353400000      2.8744710000     -0.0821850000
C                 -2.5335630000      2.3995080000     -0.0970400000
C                 -2.7785500000      1.0117980000     -0.0498620000
C                 -0.1359130000      1.9913970000     -0.0206610000
C                 -0.3853490000      0.5918420000      0.0271910000
C                 -1.7146740000      0.1292160000      0.0113380000
C                  1.2238420000      2.5457340000     -0.0048570000
C                  2.2856740000      1.5558200000      0.0583070000
C                  2.0462750000      0.1966260000      0.1039190000
C                  0.7260140000     -0.3721920000      0.0927030000
O                  1.4494500000      3.7825990000     -0.0402940000
O                  0.5300790000     -1.6156640000      0.1345420000
H                 -1.0204710000      3.9364780000     -0.1173830000
H                 -1.8683370000     -0.9435580000      0.0488750000
O                  3.5472650000      2.1036170000      0.0685430000
C                  4.6539500000      1.2356620000      0.2254420000
C                  5.8903870000      2.0788630000      0.3112520000
C                  7.0251600000      1.8266020000     -0.3363670000
H                 -3.3662660000      3.0956160000     -0.1452920000
H                 -3.7985990000      0.6388130000     -0.0615140000
H                  2.8562040000     -0.5213900000      0.1469570000
H                  4.7267710000      0.5248620000     -0.6086110000
H                  4.5396210000      0.6488940000      1.1503890000
H                  5.8133450000      2.9381850000      0.9729690000
H                  7.1161770000      0.9865070000     -1.0190310000
H                  7.9027570000      2.4514040000     -0.2100210000
$end
$rem
MAX_SCF_CYCLES=200
BASIS  =  6-311++G(d,p)
GUI  =  2
JOB_TYPE  =  SP
METHOD  =  B3LYP
SOLVENT_METHOD = COSMO
$end
$solvent
dielectric 37.219
opticaldielectric 1.43
$end

--------------------------------------------------------------

             Standard Nuclear Orientation (Angstroms)
    I     Atom           X                Y                Z
 ----------------------------------------------------------------
    1      C       2.5208074569    -1.6797861208    -0.0390867473
    2      C       3.8517983394    -1.3065134443    -0.0570939588
    3      C       4.2025345849     0.0591088635    -0.0505185206
    4      C       1.4922196741    -0.7134799437    -0.0145069661
    5      C       1.8482987697     0.6636264690    -0.0075834050
    6      C       3.2093558789     1.0221873632    -0.0259333354
    7      C       0.0937665556    -1.1611034475     0.0063499307
    8      C      -0.8891276796    -0.0911574232     0.0296102424
    9      C      -0.5461469751     1.2464265202     0.0354494350
   10      C       0.8140148306     1.7116548846     0.0183832353
   11      O      -0.2261166213    -2.3775178766     0.0070345085
   12      O       1.1047807791     2.9371308157     0.0236317154
   13      H       2.2250850436    -2.7227605376    -0.0434542015
   14      H       3.4448685023     2.0806604052    -0.0201004543
   15      O      -2.1891707825    -0.5399685935     0.0455678131
   16      C      -3.2267726650     0.4148210899     0.1658751752
   17      C      -4.5249551007    -0.3279350600     0.2666888789
   18      C      -5.6327566078    -0.0098189507    -0.3983928488
   19      H       4.6287601171    -2.0656193460    -0.0765237133
   20      H       5.2483141947     0.3521943569    -0.0646409545
   21      H      -1.2986833408     2.0254543299     0.0491942828
   22      H      -3.2393074148     1.1025816361    -0.6902861741
   23      H      -3.0735911545     1.0198325667     1.0732842873
   24      H      -4.5185306544    -1.1694397701     0.9552146279
   25      H      -5.6544589185     0.8129394725    -1.1073860976
   26      H      -6.5566257489    -0.5611826790    -0.2606205930
 ----------------------------------------------------------------

   10    -727.3012284261      9.23e-06  Convergence criterion met
 Total energy in the final basis set =     -727.3012284261
    5    -727.3932546275      4.99e-06  Convergence criterion met
 Total energy in the final basis set =     -727.3932546275

                    Orbital Energies (a.u.)
 --------------------------------------------------------------

 Alpha MOs
 -- Occupied --
-19.1571 -19.0828 -19.0792 -10.2317 -10.2280 -10.2266 -10.2266 -10.1796
-10.1758 -10.1737 -10.1724 -10.1715 -10.1701 -10.1698 -10.1688 -10.1603
 -1.0733  -1.0056  -1.0036  -0.8591  -0.8128  -0.7892  -0.7512  -0.7398
 -0.7074  -0.6646  -0.6213  -0.6047  -0.5717  -0.5594  -0.5292  -0.5158
 -0.4922  -0.4873  -0.4650  -0.4538  -0.4408  -0.4281  -0.4228  -0.4202
 -0.4125  -0.4091  -0.3999  -0.3848  -0.3698  -0.3588  -0.3550  -0.3421
 -0.3360  -0.3324  -0.2749  -0.2690  -0.2583  -0.2521  -0.2448  -0.2402
 -0.1534

 Beta MOs
 -- Occupied --
-19.1562 -19.0762 -19.0739 -10.2301 -10.2266 -10.2265 -10.2244 -10.1796
-10.1755 -10.1729 -10.1722 -10.1710 -10.1702 -10.1695 -10.1688 -10.1596
 -1.0712  -0.9953  -0.9932  -0.8568  -0.8098  -0.7872  -0.7491  -0.7380
 -0.7046  -0.6576  -0.6194  -0.6022  -0.5708  -0.5576  -0.5272  -0.5139
 -0.4896  -0.4855  -0.4627  -0.4527  -0.4388  -0.4253  -0.4192  -0.4138
 -0.4084  -0.4023  -0.3973  -0.3690  -0.3625  -0.3539  -0.3516  -0.3415
 -0.3333  -0.3205  -0.2737  -0.2515  -0.2497  -0.2465  -0.2395  -0.2321

          Ground-State Mulliken Net Atomic Charges

     Atom                 Charge (a.u.)    Spin (a.u.)
  --------------------------------------------------------
      1 C                     0.171913       0.065766
      2 C                    -0.450843       0.011621
      3 C                    -0.385553       0.049463
      4 C                     0.044203      -0.002276
      5 C                     0.464666       0.047711
      6 C                     0.181491       0.011636
      7 C                    -0.436491       0.140251
      8 C                    -0.522814       0.128253
      9 C                     0.331497       0.020966
     10 C                    -0.217303       0.089289
     11 O                    -0.525141       0.243388
     12 O                    -0.522521       0.187493
     13 H                     0.175133      -0.003336
     14 H                     0.172811      -0.000982
     15 O                    -0.140673       0.017823
     16 C                    -0.395211       0.001333
     17 C                     0.020637       0.000393
     18 C                    -0.503503      -0.000798
     19 H                     0.202940      -0.001436
     20 H                     0.203400      -0.003561
     21 H                     0.224686      -0.005545
     22 H                     0.170289       0.001367
     23 H                     0.187349       0.001190
     24 H                     0.213235      -0.000042
     25 H                     0.158773       0.000015
     26 H                     0.177030       0.000019
  --------------------------------------------------------
  Sum of atomic charges =    -1.000000

                    Cartesian Multipole Moments
 -----------------------------------------------------------------
    Charge (ESU x 10^10)
                -4.8032
    Dipole Moment (Debye)
         X      -2.9669      Y      -0.0094      Z       0.1752
       Tot       2.9721
    Quadrupole Moments (Debye-Ang)
        XX     -87.8312     XY     -15.2773     YY    -133.4895
        XZ      -0.3367     YZ      -1.5824     ZZ     -98.7638

 Total job time:  87.19s(wall), 495.17s(cpu)
        *  Thank you very much for using Q-Chem.  Have a nice day.  *
