 Gaussian 16, Revision A.03,
 Gaussian 16:  ES64L-G16RevA.03 25-Dec-2016

 --------------------------------------
 #P UB3LYP/6-311++G(d,p) nosym opt freq
 --------------------------------------

 -------
 Reduced
 -------
 Symbolic Z-matrix:
 Charge = -2 Multiplicity = 1

 SCF Done:  E(UB3LYP) =  -878.317386806     A.U. after   33 cycles
 Optimization completed.
    -- Stationary point found.
 Normal termination of Gaussian 16 at Wed Dec 27 21:15:02 2023.

 ----------------------------------------------------------------------
 #P Geom=AllCheck Guess=TCheck SCRF=Check GenChk UB3LYP/6-311++G(d,p) F
 req
 ----------------------------------------------------------------------

 Structure from the checkpoint file:  "172-an.chk"
 -------
 Reduced
 -------
 Charge = -2 Multiplicity = 1

                          Input orientation:
 ---------------------------------------------------------------------
 Center     Atomic      Atomic             Coordinates (Angstroms)
 Number     Number       Type             X           Y           Z
 ---------------------------------------------------------------------
      1          6           0       -1.367376    2.035707   -4.705827
      2          6           0       -1.380570    0.686993   -4.992949
      3          6           0       -1.284794   -0.258920   -3.932451
      4          6           0       -1.266847    2.523632   -3.375994
      5          6           0       -1.169856    1.566876   -2.303344
      6          6           0       -1.179913    0.185182   -2.631137
      7          6           0       -1.248817    3.941650   -3.137958
      8          6           0       -1.048834    1.970996   -0.928634
      9          6           0       -1.163635    4.360407   -1.760668
     10          6           0       -1.065122    3.390114   -0.672804
     11          6           0       -1.121308    5.778790   -1.433897
     12          6           0       -0.891020    6.184472   -0.131451
     13          6           0       -0.795014    5.240864    0.926434
     14          6           0       -0.928648    3.884322    0.690121
     15          8           0       -1.291731    4.769505   -4.151313
     16          8           0       -0.915678    1.062508    0.004597
     17          1           0       -1.433875    2.782610   -5.490182
     18          1           0       -1.463073    0.345470   -6.023624
     19          1           0       -1.293882   -1.325882   -4.149806
     20          1           0       -1.100543   -0.508460   -1.800438
     21          1           0       -0.666197    5.604530    1.941064
     22          1           0       -0.832876    7.242338    0.104863
     23          7           0       -1.334523    6.702729   -2.460526
     24          7           0       -0.953639    2.958832    1.737135
     25          6           0       -0.845513    8.045704   -2.354348
     26          6           0       -0.356453    3.265375    3.003486
     27          1           0       -1.285930    6.211604   -3.377028
     28          1           0       -0.857888    1.998954    1.346013
     29          1           0        0.214255    8.109660   -2.027683
     30          1           0       -1.426068    8.652422   -1.639352
     31          1           0       -0.927597    8.532706   -3.332783
     32          1           0       -0.947306    3.992408    3.585400
     33          1           0        0.666790    3.690007    2.922603
     34          1           0       -0.295419    2.347673    3.599611
 ---------------------------------------------------------------------

 SCF Done:  E(UB3LYP) =  -878.317386806     A.U. after    2 cycles

 Alpha  occ. eigenvalues --  -18.78937 -18.78935 -14.05647 -14.05643  -9.98243
 Alpha  occ. eigenvalues --   -9.98238  -9.95118  -9.95115  -9.94501  -9.94500
 Alpha  occ. eigenvalues --   -9.93211  -9.93167  -9.92317  -9.92316  -9.91124
 Alpha  occ. eigenvalues --   -9.91095  -9.91089  -9.91051  -9.90676  -9.90637
 Alpha  occ. eigenvalues --   -0.71089  -0.70672  -0.67382  -0.67022  -0.60023
 Alpha  occ. eigenvalues --   -0.57403  -0.52346  -0.50051  -0.49836  -0.48423
 Alpha  occ. eigenvalues --   -0.45724  -0.42604  -0.40752  -0.37507  -0.36488
 Alpha  occ. eigenvalues --   -0.32527  -0.30919  -0.28598  -0.27357  -0.25576
 Alpha  occ. eigenvalues --   -0.25437  -0.22381  -0.22106  -0.21524  -0.21171
 Alpha  occ. eigenvalues --   -0.21071  -0.20661  -0.17801  -0.17549  -0.17190
 Alpha  occ. eigenvalues --   -0.16234  -0.15168  -0.14838  -0.13096  -0.12567
 Alpha  occ. eigenvalues --   -0.12231  -0.11890  -0.10906  -0.09531  -0.09214
 Alpha  occ. eigenvalues --   -0.07638  -0.07310  -0.05781  -0.00629  -0.00218
 Alpha  occ. eigenvalues --    0.00981   0.01625   0.03028   0.03462   0.06831
 Alpha  occ. eigenvalues --    0.12754
 Alpha virt. eigenvalues --    0.14816   0.15003   0.15960   0.17470   0.17708
 Alpha virt. eigenvalues --    0.18408   0.18843   0.19443   0.20181   0.20813
 Alpha virt. eigenvalues --    0.21221   0.21396   0.22751   0.23018   0.23612

  Beta  occ. eigenvalues --  -18.78937 -18.78935 -14.05647 -14.05643  -9.98243
  Beta  occ. eigenvalues --   -9.98238  -9.95118  -9.95115  -9.94501  -9.94500
  Beta  occ. eigenvalues --   -9.93211  -9.93167  -9.92317  -9.92316  -9.91124
  Beta  occ. eigenvalues --   -9.91095  -9.91089  -9.91051  -9.90676  -9.90637
  Beta  occ. eigenvalues --   -0.71089  -0.70672  -0.67382  -0.67022  -0.60023
  Beta  occ. eigenvalues --   -0.57403  -0.52346  -0.50051  -0.49836  -0.48423
  Beta  occ. eigenvalues --   -0.45724  -0.42604  -0.40752  -0.37507  -0.36488
  Beta  occ. eigenvalues --   -0.32527  -0.30919  -0.28598  -0.27357  -0.25576
  Beta  occ. eigenvalues --   -0.25437  -0.22381  -0.22106  -0.21524  -0.21171
  Beta  occ. eigenvalues --   -0.21071  -0.20661  -0.17801  -0.17549  -0.17190
  Beta  occ. eigenvalues --   -0.16234  -0.15168  -0.14838  -0.13096  -0.12567
  Beta  occ. eigenvalues --   -0.12231  -0.11890  -0.10906  -0.09531  -0.09214
  Beta  occ. eigenvalues --   -0.07638  -0.07310  -0.05781  -0.00629  -0.00218
  Beta  occ. eigenvalues --    0.00981   0.01625   0.03028   0.03462   0.06831
  Beta  occ. eigenvalues --    0.12754
  Beta virt. eigenvalues --    0.14816   0.15003   0.15960   0.17470   0.17708
  Beta virt. eigenvalues --    0.18408   0.18843   0.19443   0.20181   0.20813
  Beta virt. eigenvalues --    0.21221   0.21396   0.22751   0.23018   0.23612

 Mulliken charges and spin densities:
               1          2
     1  C   -0.045114  -0.000000
     2  C   -0.546278   0.000000
     3  C   -0.546518   0.000000
     4  C    0.254295   0.000000
     5  C    0.254366  -0.000000
     6  C   -0.045158  -0.000000
     7  C   -0.555932  -0.000000
     8  C   -0.556768  -0.000000
     9  C    0.375548   0.000000
    10  C    0.376537   0.000000
    11  C   -0.154406   0.000000
    12  C   -0.107003  -0.000000
    13  C   -0.106743  -0.000000
    14  C   -0.153632   0.000000
    15  O   -0.499749   0.000000
    16  O   -0.499681   0.000000
    17  H    0.127611  -0.000000
    18  H    0.074512   0.000000
    19  H    0.074506   0.000000
    20  H    0.127661  -0.000000
    21  H    0.100317  -0.000000
    22  H    0.100407  -0.000000
    23  N   -0.230727   0.000000
    24  N   -0.230792   0.000000
    25  C   -0.259832  -0.000000
    26  C   -0.258283  -0.000000
    27  H    0.388958  -0.000000
    28  H    0.388977  -0.000000
    29  H   -0.007949   0.000000
    30  H    0.100824   0.000000
    31  H   -0.015619   0.000000
    32  H    0.100607   0.000000
    33  H   -0.008114  -0.000000
    34  H   -0.016827   0.000000
 Sum of Mulliken charges =  -2.00000  -0.00000

 Dipole moment (field-independent basis, Debye):
    X=             10.3784    Y=            -31.7687    Z=             16.5756  Tot=             37.3057
 Quadrupole moment (field-independent basis, Debye-Ang):
   XX=           -149.6057   YY=           -292.6921   ZZ=           -215.8439
   XY=             32.7597   XZ=            -23.8716   YZ=             55.9424

  Exact polarizability: 300.498  34.4492022.796 315.746********2286.991
 Approx polarizability: 335.797  86.2251070.274 153.303 -94.3681072.322

                      1                      2                      3
                      A                      A                      A
 Frequencies --     48.9015                49.6879                73.9959
 Red. masses --      4.7654                 4.4880                 3.8073
 Frc consts  --      0.0067                 0.0065                 0.0123
 IR Inten    --      5.6005                16.1895                 0.9403

                      4                      5                      6
                      A                      A                      A
 Frequencies --    105.6666               128.4868               135.8817
 Red. masses --      3.4525                 3.0811                 4.5823
 Frc consts  --      0.0227                 0.0300                 0.0498
 IR Inten    --     51.6709                 7.4513                 0.0103

                      7                      8                      9
                      A                      A                      A
 Frequencies --    175.4572               181.3312               195.9321
 Red. masses --      5.7269                 4.0675                 2.9922
 Frc consts  --      0.1039                 0.0788                 0.0677
 IR Inten    --      4.9489                51.7471                 0.5032

                     10                     11                     12
                      A                      A                      A
 Frequencies --    206.6628               228.1120               275.3861
 Red. masses --      1.0947                 1.2789                 4.8177
 Frc consts  --      0.0275                 0.0392                 0.2153
 IR Inten    --    107.3453                 3.9348                 3.3146

                     13                     14                     15
                      A                      A                      A
 Frequencies --    290.0697               317.3741               333.8828
 Red. masses --      3.7028                 4.6235                 4.8355
 Frc consts  --      0.1836                 0.2744                 0.3176
 IR Inten    --      0.0098               280.0948                15.9909

                     16                     17                     18
                      A                      A                      A
 Frequencies --    381.1506               388.8494               390.6084
 Red. masses --      5.3006                 8.9386                 6.5346
 Frc consts  --      0.4537                 0.7963                 0.5874
 IR Inten    --    143.3955                 4.2351                 3.3440

                     19                     20                     21
                      A                      A                      A
 Frequencies --    405.6302               437.5649               443.3713
 Red. masses --      8.4399                 8.6328                 3.6877
 Frc consts  --      0.8182                 0.9738                 0.4271
 IR Inten    --     12.5018                 3.8354                 2.1849

                     22                     23                     24
                      A                      A                      A
 Frequencies --    483.7402               492.1697               515.5337
 Red. masses --     10.7627                 4.2326                 6.1948
 Frc consts  --      1.4839                 0.6041                 0.9700
 IR Inten    --    171.3653                79.3770                47.7257

                     25                     26                     27
                      A                      A                      A
 Frequencies --    559.2845               610.7410               618.0781
 Red. masses --      4.2303                 2.7059                 4.6662
 Frc consts  --      0.7796                 0.5947                 1.0503
 IR Inten    --    140.8635                17.5209               205.6931

                     28                     29                     30
                      A                      A                      A
 Frequencies --    630.1444               659.0950               699.7469
 Red. masses --      4.5335                 5.6121                 1.5496
 Frc consts  --      1.0606                 1.4364                 0.4470
 IR Inten    --     91.5868                24.9594                15.0369

                     31                     32                     33
                      A                      A                      A
 Frequencies --    716.9996               724.5485               737.3671
 Red. masses --      3.8744                 3.7782                 4.8321
 Frc consts  --      1.1735                 1.1686                 1.5479
 IR Inten    --    105.7540                52.8669                71.6123

                     34                     35                     36
                      A                      A                      A
 Frequencies --    739.0987               766.8925               771.6711
 Red. masses --      1.7841                 3.8532                 1.4905
 Frc consts  --      0.5742                 1.3352                 0.5229
 IR Inten    --     68.6572                 3.1105               211.9062

                     37                     38                     39
                      A                      A                      A
 Frequencies --    784.6258               821.5482               842.9848
 Red. masses --      2.1078                 4.2088                 5.1009
 Frc consts  --      0.7646                 1.6737                 2.1357
 IR Inten    --      0.1449                 3.2897                36.9076

                     40                     41                     42
                      A                      A                      A
 Frequencies --    874.0315               915.7983               922.4472
 Red. masses --      5.1267                 1.2485                 1.3362
 Frc consts  --      2.3075                 0.6169                 0.6699
 IR Inten    --     61.9738                84.5581                36.0579

                     43                     44                     45
                      A                      A                      A
 Frequencies --    943.2254               952.7075               957.4662
 Red. masses --      4.0008                 1.2212                 1.3606
 Frc consts  --      2.0971                 0.6531                 0.7349
 IR Inten    --     30.7094                30.5558                 2.7294

                     46                     47                     48
                      A                      A                      A
 Frequencies --   1008.7683              1028.7992              1090.2232
 Red. masses --      2.5655                 2.6024                 2.0159
 Frc consts  --      1.5381                 1.6229                 1.4118
 IR Inten    --    200.8996                76.5980                 6.7852

                     49                     50                     51
                      A                      A                      A
 Frequencies --   1091.9511              1111.8650              1127.3474
 Red. masses --      2.3940                 2.0642                 1.3181
 Frc consts  --      1.6818                 1.5035                 0.9870
 IR Inten    --      1.3590               939.9268               172.8562

                     52                     53                     54
                      A                      A                      A
 Frequencies --   1136.3819              1139.2032              1156.4113
 Red. masses --      1.3275                 1.4827                 2.6925
 Frc consts  --      1.0101                 1.1337                 2.1214
 IR Inten    --      0.3065               102.2150                 2.1960

                     55                     56                     57
                      A                      A                      A
 Frequencies --   1170.9473              1175.3002              1184.2552
 Red. masses --      1.8599                 1.7837                 1.4726
 Frc consts  --      1.5025                 1.4517                 1.2168
 IR Inten    --    105.3535                 1.8103                19.0317

                     58                     59                     60
                      A                      A                      A
 Frequencies --   1224.5351              1241.3038              1241.5306
 Red. masses --      3.3317                 4.1378                 2.1590
 Frc consts  --      2.9434                 3.7564                 1.9607
 IR Inten    --    268.0086              1198.9550                53.3333

                     61                     62                     63
                      A                      A                      A
 Frequencies --   1263.7146              1277.5784              1326.9998
 Red. masses --      3.5941                 5.1624                 2.0024
 Frc consts  --      3.3817                 4.9645                 2.0775
 IR Inten    --    836.9066               198.5074                25.9262

                     64                     65                     66
                      A                      A                      A
 Frequencies --   1347.2248              1359.6307              1378.4413
 Red. masses --      5.0464                 4.1166                 2.8737
 Frc consts  --      5.3965                 4.4837                 3.2171
 IR Inten    --     24.6327               337.9962                43.1316

                     67                     68                     69
                      A                      A                      A
 Frequencies --   1429.6189              1433.2564              1441.8499
 Red. masses --      8.4351                 1.2739                 1.2354
 Frc consts  --     10.1574                 1.5419                 1.5132
 IR Inten    --    281.9564               960.5175                62.2646

                     70                     71                     72
                      A                      A                      A
 Frequencies --   1451.7172              1461.4639              1462.7021
 Red. masses --      3.0996                 1.0759                 1.1341
 Frc consts  --      3.8488                 1.3539                 1.4295
 IR Inten    --    765.8822                32.9290                10.0278

                     73                     74                     75
                      A                      A                      A
 Frequencies --   1467.1476              1486.5203              1507.8440
 Red. masses --      2.3633                 5.0399                 1.0788
 Frc consts  --      2.9972                 6.5617                 1.4452
 IR Inten    --     45.1000               138.8558                87.6012

                     76                     77                     78
                      A                      A                      A
 Frequencies --   1509.4174              1539.2905              1548.0423
 Red. masses --      1.0616                 5.2366                 2.0344
 Frc consts  --      1.4251                 7.3104                 2.8725
 IR Inten    --     90.4802                20.7841              1206.1477

                     79                     80                     81
                      A                      A                      A
 Frequencies --   1558.9748              1586.1325              1607.4657
 Red. masses --      4.1735                 5.1529                 1.7005
 Frc consts  --      5.9763                 7.6380                 2.5888
 IR Inten    --   1250.5097                64.8426               636.2015

                     82                     83                     84
                      A                      A                      A
 Frequencies --   1623.9508              2830.4365              2838.7837
 Red. masses --      2.3131                 1.0741                 1.0695
 Frc consts  --      3.5940                 5.0699                 5.0782
 IR Inten    --     16.7591              4329.6846               353.7157

                     85                     86                     87
                      A                      A                      A
 Frequencies --   2901.9371              2907.5699              3030.5797
 Red. masses --      1.0687                 1.0734                 1.0887
 Frc consts  --      5.3023                 5.3467                 5.8912
 IR Inten    --   5136.2979               365.5920               161.5216

                     88                     89                     90
                      A                      A                      A
 Frequencies --   3030.9038              3034.2380              3042.3101
 Red. masses --      1.0888                 1.0852                 1.0856
 Frc consts  --      5.8930                 5.8867                 5.9199
 IR Inten    --      7.9772               608.8105                95.9653

                     91                     92                     93
                      A                      A                      A
 Frequencies --   3089.7413              3113.7487              3131.5575
 Red. masses --      1.0827                 1.0909                 1.0835
 Frc consts  --      6.0896                 6.2314                 6.2601
 IR Inten    --     34.4570               235.2443               420.2531

                     94                     95                     96
                      A                      A                      A
 Frequencies --   3154.1589              3163.8761              3166.0934
 Red. masses --      1.0911                 1.0901                 1.0911
 Frc consts  --      6.3958                 6.4294                 6.4441
 IR Inten    --     15.8130                10.5616               126.2568

 - Thermochemistry -
 -------------------
 Temperature   298.150 Kelvin.  Pressure   1.00000 Atm.
 Atom     1 has atomic number  6 and mass  12.00000

 Molecular mass:   266.10553 amu.
 Principal axes and moments of inertia in atomic units:
                           1         2         3
     Eigenvalues --  3988.917145684.640749623.18180
           X            0.07398   0.06764   0.99496
           Y            0.74760  -0.66407  -0.01044
           Z            0.66002   0.74460  -0.09970
 This molecule is an asymmetric top.
 Rotational symmetry number  1.
 Warning -- assumption of classical behavior for rotation
           may cause significant error
 Rotational temperatures (Kelvin)      0.02171     0.01524     0.00900
 Rotational constants (GHZ):           0.45244     0.31748     0.18754
 Zero-point vibrational energy     685267.0 (Joules/Mol)
                                  163.78274 (Kcal/Mol)
 Warning -- explicit consideration of  27 degrees of freedom as
           vibrations may cause significant error
 Vibrational temperatures:     70.36    71.49   106.46   152.03   184.86
          (Kelvin)            195.50   252.44   260.90   281.90   297.34
                              328.20   396.22   417.35   456.63   480.38
                              548.39   559.47   562.00   583.61   629.56
                              637.91   695.99   708.12   741.74   804.69
                              878.72   889.28   906.64   948.29  1006.78
                             1031.60  1042.46  1060.91  1063.40  1103.39
                             1110.26  1128.90  1182.02  1212.87  1257.54
                             1317.63  1327.20  1357.09  1370.73  1377.58
                             1451.39  1480.21  1568.59  1571.07  1599.73
                             1622.00  1635.00  1639.06  1663.82  1684.73
                             1690.99  1703.88  1761.83  1785.96  1786.29
                             1818.20  1838.15  1909.26  1938.36  1956.21
                             1983.27  2056.90  2062.14  2074.50  2088.70
                             2102.72  2104.50  2110.90  2138.77  2169.45
                             2171.71  2214.70  2227.29  2243.02  2282.09
                             2312.78  2336.50  4072.37  4084.38  4175.24
                             4183.34  4360.33  4360.79  4365.59  4377.21
                             4445.45  4479.99  4505.61  4538.13  4552.11
                             4555.30

 Zero-point correction=                           0.261004 (Hartree/Particle)
 Thermal correction to Energy=                    0.277793
 Thermal correction to Enthalpy=                  0.278737
 Thermal correction to Gibbs Free Energy=         0.217042
 Sum of electronic and zero-point Energies=           -878.056382
 Sum of electronic and thermal Energies=              -878.039594
 Sum of electronic and thermal Enthalpies=            -878.038650
 Sum of electronic and thermal Free Energies=         -878.100345

                     E (Thermal)             CV                S
                      KCal/Mol        Cal/Mol-Kelvin    Cal/Mol-Kelvin
 Total                  174.317             66.800            129.848
 Electronic               0.000              0.000              0.000
 Translational            0.889              2.981             42.635
 Rotational               0.889              2.981             33.745
 Vibrational            172.540             60.838             53.468
 Vibration     1          0.595              1.978              4.861
 Vibration     2          0.595              1.978              4.830
 Vibration     3          0.599              1.966              4.044
 Vibration     4          0.605              1.945              3.347
 Vibration     5          0.611              1.925              2.969
 Vibration     6          0.614              1.918              2.861
 Vibration     7          0.627              1.873              2.376
 Vibration     8          0.630              1.865              2.315
 Vibration     9          0.636              1.846              2.171
 Vibration    10          0.641              1.830              2.073
 Vibration    11          0.651              1.798              1.894
 Vibration    12          0.677              1.719              1.562
 Vibration    13          0.686              1.692              1.474
 Vibration    14          0.704              1.640              1.324
 Vibration    15          0.715              1.608              1.241
 Vibration    16          0.751              1.510              1.035
 Vibration    17          0.757              1.494              1.005
 Vibration    18          0.758              1.490              0.998
 Vibration    19          0.771              1.458              0.942
 Vibration    20          0.798              1.388              0.834
 Vibration    21          0.803              1.376              0.816
 Vibration    22          0.840              1.286              0.700
 Vibration    23          0.848              1.267              0.678
 Vibration    24          0.871              1.216              0.620
 Vibration    25          0.915              1.119              0.525
 Vibration    26          0.970              1.009              0.432
 Vibration    27          0.978              0.994              0.420

                           ! Non-Optimized Parameters !
 Normal termination of Gaussian 16 at Wed Dec 27 23:34:22 2023.
