 Q-Chem 5.4, Q-Chem, Inc., Pleasanton, CA (2021)
 Q-Chem 5.4.0 for Intel X86 EM64T Linux

User input:
--------------------------------------------------------------
$molecule
-2 1
C                 -1.3673760000      2.0357070000     -4.7058270000
C                 -1.3805700000      0.6869930000     -4.9929490000
C                 -1.2847940000     -0.2589200000     -3.9324510000
C                 -1.2668470000      2.5236320000     -3.3759940000
C                 -1.1698560000      1.5668760000     -2.3033440000
C                 -1.1799130000      0.1851820000     -2.6311370000
C                 -1.2488170000      3.9416500000     -3.1379580000
C                 -1.0488340000      1.9709960000     -0.9286340000
C                 -1.1636350000      4.3604070000     -1.7606680000
C                 -1.0651220000      3.3901140000     -0.6728040000
C                 -1.1213080000      5.7787900000     -1.4338970000
C                 -0.8910200000      6.1844720000     -0.1314510000
C                 -0.7950140000      5.2408640000      0.9264340000
C                 -0.9286480000      3.8843220000      0.6901210000
O                 -1.2917310000      4.7695050000     -4.1513130000
O                 -0.9156780000      1.0625080000      0.0045970000
H                 -1.4338750000      2.7826100000     -5.4901820000
H                 -1.4630730000      0.3454700000     -6.0236240000
H                 -1.2938820000     -1.3258820000     -4.1498060000
H                 -1.1005430000     -0.5084600000     -1.8004380000
H                 -0.6661970000      5.6045300000      1.9410640000
H                 -0.8328760000      7.2423380000      0.1048630000
N                 -1.3345230000      6.7027290000     -2.4605260000
N                 -0.9536390000      2.9588320000      1.7371350000
C                 -0.8455130000      8.0457040000     -2.3543480000
C                 -0.3564530000      3.2653750000      3.0034860000
H                 -1.2859300000      6.2116040000     -3.3770280000
H                 -0.8578880000      1.9989540000      1.3460130000
H                  0.2142550000      8.1096600000     -2.0276830000
H                 -1.4260680000      8.6524220000     -1.6393520000
H                 -0.9275970000      8.5327060000     -3.3327830000
H                 -0.9473060000      3.9924080000      3.5854000000
H                  0.6667900000      3.6900070000      2.9226030000
H                 -0.2954190000      2.3476730000      3.5996110000
$end
$rem
MAX_SCF_CYCLES=200
BASIS  =  6-311++G(d,p)
GUI  =  2
JOB_TYPE  =  SP
METHOD  =  B3LYP
SOLVENT_METHOD = PCM
$end
$pcm
theory = CPCM
$end
$solvent
dielectric 37.219
opticaldielectric 1.43
$end

--------------------------------------------------------------

             Standard Nuclear Orientation (Angstroms)
    I     Atom           X                Y                Z
 ----------------------------------------------------------------
    1      C      -1.3673760000     2.0357070000    -4.7058270000
    2      C      -1.3805700000     0.6869930000    -4.9929490000
    3      C      -1.2847940000    -0.2589200000    -3.9324510000
    4      C      -1.2668470000     2.5236320000    -3.3759940000
    5      C      -1.1698560000     1.5668760000    -2.3033440000
    6      C      -1.1799130000     0.1851820000    -2.6311370000
    7      C      -1.2488170000     3.9416500000    -3.1379580000
    8      C      -1.0488340000     1.9709960000    -0.9286340000
    9      C      -1.1636350000     4.3604070000    -1.7606680000
   10      C      -1.0651220000     3.3901140000    -0.6728040000
   11      C      -1.1213080000     5.7787900000    -1.4338970000
   12      C      -0.8910200000     6.1844720000    -0.1314510000
   13      C      -0.7950140000     5.2408640000     0.9264340000
   14      C      -0.9286480000     3.8843220000     0.6901210000
   15      O      -1.2917310000     4.7695050000    -4.1513130000
   16      O      -0.9156780000     1.0625080000     0.0045970000
   17      H      -1.4338750000     2.7826100000    -5.4901820000
   18      H      -1.4630730000     0.3454700000    -6.0236240000
   19      H      -1.2938820000    -1.3258820000    -4.1498060000
   20      H      -1.1005430000    -0.5084600000    -1.8004380000
   21      H      -0.6661970000     5.6045300000     1.9410640000
   22      H      -0.8328760000     7.2423380000     0.1048630000
   23      N      -1.3345230000     6.7027290000    -2.4605260000
   24      N      -0.9536390000     2.9588320000     1.7371350000
   25      C      -0.8455130000     8.0457040000    -2.3543480000
   26      C      -0.3564530000     3.2653750000     3.0034860000
   27      H      -1.2859300000     6.2116040000    -3.3770280000
   28      H      -0.8578880000     1.9989540000     1.3460130000
   29      H       0.2142550000     8.1096600000    -2.0276830000
   30      H      -1.4260680000     8.6524220000    -1.6393520000
   31      H      -0.9275970000     8.5327060000    -3.3327830000
   32      H      -0.9473060000     3.9924080000     3.5854000000
   33      H       0.6667900000     3.6900070000     2.9226030000
   34      H      -0.2954190000     2.3476730000     3.5996110000
 ----------------------------------------------------------------

    8    -878.5766742216      4.63e-06  Convergence criterion met
 Total energy in the final basis set =     -878.5766742216

                    Orbital Energies (a.u.)
 --------------------------------------------------------------

 Alpha MOs
 -- Occupied --
-19.0293 -19.0292 -14.2742 -14.2742 -10.1804 -10.1803 -10.1750 -10.1750
-10.1738 -10.1738 -10.1508 -10.1504 -10.1477 -10.1476 -10.1438 -10.1434
-10.1387 -10.1383 -10.1298 -10.1293  -0.9497  -0.9461  -0.8940  -0.8891
 -0.8280  -0.7981  -0.7504  -0.7254  -0.7141  -0.7078  -0.6645  -0.6449
 -0.6312  -0.5987  -0.5887  -0.5466  -0.5350  -0.5066  -0.4932  -0.4705
 -0.4694  -0.4468  -0.4335  -0.4325  -0.4275  -0.4172  -0.4121  -0.4011
 -0.4001  -0.3816  -0.3816  -0.3796  -0.3720  -0.3566  -0.3513  -0.3459
 -0.3387  -0.3335  -0.3333  -0.3184  -0.3068  -0.3038  -0.2821  -0.2345
 -0.2319  -0.2220  -0.2143  -0.2076  -0.2034  -0.1589  -0.1069

          Ground-State Mulliken Net Atomic Charges

     Atom                 Charge (a.u.)
  ----------------------------------------
      1 C                    -0.070802
      2 C                    -0.573300
      3 C                    -0.571587
      4 C                     0.057693
      5 C                     0.055701
      6 C                    -0.070388
      7 C                    -0.233219
      8 C                    -0.234582
      9 C                     0.346566
     10 C                     0.344106
     11 C                    -0.129102
     12 C                    -0.310768
     13 C                    -0.317747
     14 C                    -0.127097
     15 O                    -0.647043
     16 O                    -0.647099
     17 H                     0.148035
     18 H                     0.174350
     19 H                     0.174458
     20 H                     0.147821
     21 H                     0.165643
     22 H                     0.164976
     23 N                    -0.309559
     24 N                    -0.308350
     25 C                    -0.419617
     26 C                    -0.419716
     27 H                     0.381271
     28 H                     0.381547
     29 H                     0.131303
     30 H                     0.141857
     31 H                     0.151152
     32 H                     0.141602
     33 H                     0.130910
     34 H                     0.150985
  ----------------------------------------
  Sum of atomic charges =    -2.000000

                    Cartesian Multipole Moments
 -----------------------------------------------------------------
    Charge (ESU x 10^10)
                -9.6064
    Dipole Moment (Debye)
         X      11.9363      Y     -30.2601      Z      17.7836
       Tot      37.0730
    Quadrupole Moments (Debye-Ang)
        XX    -149.0334     XY      40.6646     YY    -255.0542
        XZ     -22.8482     YZ      67.2475     ZZ    -195.4603

 Total job time:  198.64s(wall), 462.05s(cpu)
        *  Thank you very much for using Q-Chem.  Have a nice day.  *
