 Q-Chem 5.4, Q-Chem, Inc., Pleasanton, CA (2021)
 Q-Chem 5.4.0 for Intel X86 EM64T Linux

User input:
--------------------------------------------------------------
$molecule
0 1
C                 -4.8442590000      1.1381150000     -1.5692540000
C                 -3.6209400000      0.5970880000     -0.8732490000
C                 -3.7428480000     -0.2514430000      0.2310480000
C                 -2.6447350000     -0.7597620000      0.9284520000
C                 -2.9117530000     -1.6668160000      2.1044380000
C                 -1.3478440000     -0.3941490000      0.4860710000
C                 -0.1229280000     -0.8854900000      1.1643750000
O                 -0.1705130000     -1.6231140000      2.1394880000
C                  1.2138880000     -0.4573780000      0.6295560000
C                  2.3396570000     -0.9410920000      1.2946560000
C                  3.6209460000     -0.5970780000      0.8732490000
C                  4.8442580000     -1.1381740000      1.5692120000
C                  3.7428510000      0.2514960000     -0.2310100000
C                  2.6447340000      0.7598020000     -0.9284260000
C                  2.9117520000      1.6669060000     -2.1043730000
C                  1.3478490000      0.3941390000     -0.4860830000
C                  0.1229330000      0.8854410000     -1.1644150000
O                  0.1705180000      1.6230210000     -2.1395610000
C                 -1.2138830000      0.4573430000     -0.6295830000
C                 -2.3396540000      0.9410660000     -1.2946810000
H                 -5.6390030000      0.3896980000     -1.6177520000
H                 -5.2442060000      2.0040760000     -1.0304990000
H                 -4.6128520000      1.4609320000     -2.5859100000
H                 -4.7367650000     -0.5333630000      0.5656950000
H                 -2.4514690000     -2.6473320000      1.9693220000
H                 -2.4882330000     -1.2648430000      3.0267120000
H                 -3.9883580000     -1.7953810000      2.2352900000
H                  2.1876370000     -1.5897290000      2.1485870000
H                  5.2436620000     -2.0046400000      1.0308610000
H                  4.6130300000     -1.4602890000      2.5861310000
H                  5.6393350000     -0.3900710000      1.6170000000
H                  4.7367650000      0.5334690000     -0.5656210000
H                  3.9883550000      1.7955550000     -2.2351600000
H                  2.4513880000      2.6473850000     -1.9692590000
H                  2.4883130000      1.2649250000     -3.0266810000
H                 -2.1876300000      1.5896870000     -2.1486220000
$end
$rem
MAX_SCF_CYCLES=200
BASIS  =  6-311++G(d,p)
GUI  =  2
JOB_TYPE  =  SP
METHOD  =  B3LYP
SOLVENT_METHOD = PCM
$end
$pcm
theory = CPCM
$end
$solvent
dielectric 37.219
opticaldielectric 1.43
$end

--------------------------------------------------------------

             Standard Nuclear Orientation (Angstroms)
    I     Atom           X                Y                Z
 ----------------------------------------------------------------
    1      C      -4.8442590000     1.1381150000    -1.5692540000
    2      C      -3.6209400000     0.5970880000    -0.8732490000
    3      C      -3.7428480000    -0.2514430000     0.2310480000
    4      C      -2.6447350000    -0.7597620000     0.9284520000
    5      C      -2.9117530000    -1.6668160000     2.1044380000
    6      C      -1.3478440000    -0.3941490000     0.4860710000
    7      C      -0.1229280000    -0.8854900000     1.1643750000
    8      O      -0.1705130000    -1.6231140000     2.1394880000
    9      C       1.2138880000    -0.4573780000     0.6295560000
   10      C       2.3396570000    -0.9410920000     1.2946560000
   11      C       3.6209460000    -0.5970780000     0.8732490000
   12      C       4.8442580000    -1.1381740000     1.5692120000
   13      C       3.7428510000     0.2514960000    -0.2310100000
   14      C       2.6447340000     0.7598020000    -0.9284260000
   15      C       2.9117520000     1.6669060000    -2.1043730000
   16      C       1.3478490000     0.3941390000    -0.4860830000
   17      C       0.1229330000     0.8854410000    -1.1644150000
   18      O       0.1705180000     1.6230210000    -2.1395610000
   19      C      -1.2138830000     0.4573430000    -0.6295830000
   20      C      -2.3396540000     0.9410660000    -1.2946810000
   21      H      -5.6390030000     0.3896980000    -1.6177520000
   22      H      -5.2442060000     2.0040760000    -1.0304990000
   23      H      -4.6128520000     1.4609320000    -2.5859100000
   24      H      -4.7367650000    -0.5333630000     0.5656950000
   25      H      -2.4514690000    -2.6473320000     1.9693220000
   26      H      -2.4882330000    -1.2648430000     3.0267120000
   27      H      -3.9883580000    -1.7953810000     2.2352900000
   28      H       2.1876370000    -1.5897290000     2.1485870000
   29      H       5.2436620000    -2.0046400000     1.0308610000
   30      H       4.6130300000    -1.4602890000     2.5861310000
   31      H       5.6393350000    -0.3900710000     1.6170000000
   32      H       4.7367650000     0.5334690000    -0.5656210000
   33      H       3.9883550000     1.7955550000    -2.2351600000
   34      H       2.4513880000     2.6473850000    -1.9692590000
   35      H       2.4883130000     1.2649250000    -3.0266810000
   36      H      -2.1876300000     1.5896870000    -2.1486220000
 ----------------------------------------------------------------

    8    -846.2705317509      8.61e-06  Convergence criterion met
 Total energy in the final basis set =     -846.2705317509

                    Orbital Energies (a.u.)
 --------------------------------------------------------------

 Alpha MOs
 -- Occupied --
-19.1216 -19.1216 -10.2762 -10.2761 -10.2058 -10.2058 -10.2015 -10.2015
-10.2011 -10.2011 -10.2002 -10.2002 -10.1838 -10.1838 -10.1838 -10.1838
-10.1687 -10.1687 -10.1643 -10.1643  -1.0591  -1.0573  -0.8888  -0.8798
 -0.8162  -0.7970  -0.7954  -0.7767  -0.7174  -0.7136  -0.6990  -0.6960
 -0.6578  -0.6453  -0.6094  -0.5832  -0.5630  -0.5542  -0.5294  -0.5029
 -0.4832  -0.4794  -0.4635  -0.4558  -0.4527  -0.4354  -0.4332  -0.4329
 -0.4240  -0.4238  -0.4223  -0.4215  -0.4069  -0.4022  -0.3988  -0.3979
 -0.3827  -0.3780  -0.3747  -0.3636  -0.3589  -0.3583  -0.3522  -0.3491
 -0.2765  -0.2753  -0.2653  -0.2642  -0.2607  -0.2580

          Ground-State Mulliken Net Atomic Charges

     Atom                 Charge (a.u.)
  ----------------------------------------
      1 C                    -0.372378
      2 C                     0.625482
      3 C                    -0.532099
      4 C                     0.314802
      5 C                    -0.581191
      6 C                     0.235917
      7 C                    -0.858058
      8 O                    -0.268377
      9 C                     0.240600
     10 C                    -0.203149
     11 C                     0.625673
     12 C                    -0.372246
     13 C                    -0.533571
     14 C                     0.314826
     15 C                    -0.580700
     16 C                     0.236015
     17 C                    -0.858377
     18 O                    -0.268353
     19 C                     0.240340
     20 C                    -0.203305
     21 H                     0.167625
     22 H                     0.198122
     23 H                     0.174160
     24 H                     0.156629
     25 H                     0.178436
     26 H                     0.179408
     27 H                     0.175736
     28 H                     0.168994
     29 H                     0.198149
     30 H                     0.174148
     31 H                     0.167634
     32 H                     0.156510
     33 H                     0.175784
     34 H                     0.178427
     35 H                     0.179404
     36 H                     0.168981
  ----------------------------------------
  Sum of atomic charges =    -0.000003

                    Cartesian Multipole Moments
 -----------------------------------------------------------------
    Charge (ESU x 10^10)
                -0.0000
    Dipole Moment (Debye)
         X      -0.0000      Y       0.0000      Z       0.0002
       Tot       0.0002
    Quadrupole Moments (Debye-Ang)
        XX     -78.3660     XY      -2.3673     YY    -122.4077
        XZ       3.2105     YZ       3.8539     ZZ    -125.0987

 Total job time:  77.19s(wall), 525.72s(cpu)
        *  Thank you very much for using Q-Chem.  Have a nice day.  *
