 Gaussian 16, Revision A.03,
 Gaussian 16:  ES64L-G16RevA.03 25-Dec-2016

 --------------------------------------
 #P UB3LYP/6-311++G(d,p) nosym opt freq
 --------------------------------------

 --------
 Oxidized
 --------
 Symbolic Z-matrix:
 Charge =  0 Multiplicity = 1

 SCF Done:  E(UB3LYP) =  -846.258614341     A.U. after   15 cycles
 Optimization completed.
    -- Stationary point found.
 Normal termination of Gaussian 16 at Wed Dec 27 19:51:40 2023.

 ----------------------------------------------------------------------
 #P Geom=AllCheck Guess=TCheck SCRF=Check GenChk UB3LYP/6-311++G(d,p) F
 req
 ----------------------------------------------------------------------

 Structure from the checkpoint file:  "131.chk"
 --------
 Oxidized
 --------
 Charge =  0 Multiplicity = 1

                          Input orientation:
 ---------------------------------------------------------------------
 Center     Atomic      Atomic             Coordinates (Angstroms)
 Number     Number       Type             X           Y           Z
 ---------------------------------------------------------------------
      1          6           0       -4.844259    1.138115   -1.569254
      2          6           0       -3.620940    0.597088   -0.873249
      3          6           0       -3.742848   -0.251443    0.231048
      4          6           0       -2.644735   -0.759762    0.928452
      5          6           0       -2.911753   -1.666816    2.104438
      6          6           0       -1.347844   -0.394149    0.486071
      7          6           0       -0.122928   -0.885490    1.164375
      8          8           0       -0.170513   -1.623114    2.139488
      9          6           0        1.213888   -0.457378    0.629556
     10          6           0        2.339657   -0.941092    1.294656
     11          6           0        3.620946   -0.597078    0.873249
     12          6           0        4.844258   -1.138174    1.569212
     13          6           0        3.742851    0.251496   -0.231010
     14          6           0        2.644734    0.759802   -0.928426
     15          6           0        2.911752    1.666906   -2.104373
     16          6           0        1.347849    0.394139   -0.486083
     17          6           0        0.122933    0.885441   -1.164415
     18          8           0        0.170518    1.623021   -2.139561
     19          6           0       -1.213883    0.457343   -0.629583
     20          6           0       -2.339654    0.941066   -1.294681
     21          1           0       -5.639003    0.389698   -1.617752
     22          1           0       -5.244206    2.004076   -1.030499
     23          1           0       -4.612852    1.460932   -2.585910
     24          1           0       -4.736765   -0.533363    0.565695
     25          1           0       -2.451469   -2.647332    1.969322
     26          1           0       -2.488233   -1.264843    3.026712
     27          1           0       -3.988358   -1.795381    2.235290
     28          1           0        2.187637   -1.589729    2.148587
     29          1           0        5.243662   -2.004640    1.030861
     30          1           0        4.613030   -1.460289    2.586131
     31          1           0        5.639335   -0.390071    1.617000
     32          1           0        4.736765    0.533469   -0.565621
     33          1           0        3.988355    1.795555   -2.235160
     34          1           0        2.451388    2.647385   -1.969259
     35          1           0        2.488313    1.264925   -3.026681
     36          1           0       -2.187630    1.589687   -2.148622
 ---------------------------------------------------------------------

 SCF Done:  E(UB3LYP) =  -846.258614341     A.U. after    1 cycles

 Alpha  occ. eigenvalues --  -19.11488 -19.11488 -10.26972 -10.26971 -10.20567
 Alpha  occ. eigenvalues --  -10.20566 -10.20262 -10.20262 -10.19969 -10.19968
 Alpha  occ. eigenvalues --  -10.19873 -10.19872 -10.18662 -10.18662 -10.18345
 Alpha  occ. eigenvalues --  -10.18345 -10.17972 -10.17971 -10.16582 -10.16582
 Alpha  occ. eigenvalues --   -1.05153  -1.04960  -0.88793  -0.87992  -0.81720
 Alpha  occ. eigenvalues --   -0.79878  -0.79583  -0.77746  -0.72208  -0.71347
 Alpha  occ. eigenvalues --   -0.70280  -0.69753  -0.65838  -0.64562  -0.61135
 Alpha  occ. eigenvalues --   -0.58465  -0.56096  -0.55416  -0.52859  -0.50144
 Alpha  occ. eigenvalues --   -0.48413  -0.48161  -0.46242  -0.45322  -0.44350
 Alpha  occ. eigenvalues --   -0.43786  -0.43707  -0.43342  -0.43011  -0.42482
 Alpha  occ. eigenvalues --   -0.42333  -0.42213  -0.40692  -0.40613  -0.40431
 Alpha  occ. eigenvalues --   -0.39836  -0.38728  -0.38030  -0.37861  -0.36523
 Alpha  occ. eigenvalues --   -0.36059  -0.35946  -0.35313  -0.34695  -0.27359
 Alpha  occ. eigenvalues --   -0.26924  -0.26469  -0.25999  -0.25788  -0.25734
 Alpha virt. eigenvalues --   -0.10563  -0.06103  -0.03146  -0.01866  -0.01055
 Alpha virt. eigenvalues --   -0.00738   0.00592   0.00864   0.01457   0.01953
 Alpha virt. eigenvalues --    0.02456   0.02887   0.03204   0.03263   0.03943

  Beta  occ. eigenvalues --  -19.11488 -19.11488 -10.26972 -10.26971 -10.20567
  Beta  occ. eigenvalues --  -10.20566 -10.20262 -10.20262 -10.19969 -10.19968
  Beta  occ. eigenvalues --  -10.19873 -10.19872 -10.18662 -10.18662 -10.18345
  Beta  occ. eigenvalues --  -10.18345 -10.17972 -10.17971 -10.16582 -10.16582
  Beta  occ. eigenvalues --   -1.05153  -1.04960  -0.88793  -0.87992  -0.81720
  Beta  occ. eigenvalues --   -0.79878  -0.79583  -0.77746  -0.72208  -0.71347
  Beta  occ. eigenvalues --   -0.70280  -0.69753  -0.65838  -0.64562  -0.61135
  Beta  occ. eigenvalues --   -0.58465  -0.56096  -0.55416  -0.52859  -0.50144
  Beta  occ. eigenvalues --   -0.48413  -0.48161  -0.46242  -0.45322  -0.44350
  Beta  occ. eigenvalues --   -0.43786  -0.43707  -0.43342  -0.43011  -0.42482
  Beta  occ. eigenvalues --   -0.42333  -0.42213  -0.40692  -0.40613  -0.40431
  Beta  occ. eigenvalues --   -0.39836  -0.38728  -0.38030  -0.37861  -0.36523
  Beta  occ. eigenvalues --   -0.36059  -0.35946  -0.35313  -0.34695  -0.27359
  Beta  occ. eigenvalues --   -0.26924  -0.26469  -0.25999  -0.25788  -0.25734
  Beta virt. eigenvalues --   -0.10563  -0.06103  -0.03146  -0.01866  -0.01055
  Beta virt. eigenvalues --   -0.00738   0.00592   0.00864   0.01457   0.01953
  Beta virt. eigenvalues --    0.02456   0.02887   0.03204   0.03263   0.03943

 Mulliken charges and spin densities:
               1          2
     1  C   -0.334336   0.000000
     2  C    0.660463   0.000000
     3  C   -0.519295   0.000000
     4  C    0.299353  -0.000000
     5  C   -0.533055   0.000000
     6  C    0.250089   0.000000
     7  C   -0.931469  -0.000000
     8  O   -0.197399   0.000000
     9  C    0.265716  -0.000000
    10  C   -0.210677  -0.000000
    11  C    0.660702   0.000000
    12  C   -0.334354   0.000000
    13  C   -0.520122  -0.000000
    14  C    0.299292   0.000000
    15  C   -0.533049   0.000000
    16  C    0.250356  -0.000000
    17  C   -0.931455  -0.000000
    18  O   -0.197401   0.000000
    19  C    0.265348   0.000000
    20  C   -0.211054  -0.000000
    21  H    0.149106   0.000000
    22  H    0.180933  -0.000000
    23  H    0.159785   0.000000
    24  H    0.099456   0.000000
    25  H    0.177728   0.000000
    26  H    0.178601   0.000000
    27  H    0.146448  -0.000000
    28  H    0.159150   0.000000
    29  H    0.180947  -0.000000
    30  H    0.159768   0.000000
    31  H    0.149108   0.000000
    32  H    0.099412  -0.000000
    33  H    0.146454   0.000000
    34  H    0.177725  -0.000000
    35  H    0.178607  -0.000000
    36  H    0.159118   0.000000
 Sum of Mulliken charges =  -0.00000  -0.00000

 Dipole moment (field-independent basis, Debye):
    X=             -0.0000    Y=              0.0000    Z=              0.0001  Tot=              0.0001
 Quadrupole moment (field-independent basis, Debye-Ang):
   XX=            -90.0875   YY=           -121.5941   ZZ=           -123.4958
   XY=             -2.0567   XZ=              2.7517   YZ=              2.7194

  Exact polarizability: 322.790  -7.605 164.849  12.931 -64.242 198.867
 Approx polarizability: 442.456  -9.089 285.082  15.520-123.923 351.568

                      1                      2                      3
                      A                      A                      A
 Frequencies --     16.6506                25.6719                25.7128
 Red. masses --      4.9970                 1.0226                 1.0524
 Frc consts  --      0.0008                 0.0004                 0.0004
 IR Inten    --      4.8813                 0.0232                 0.3878

                      4                      5                      6
                      A                      A                      A
 Frequencies --     45.9146                65.2370               125.7384
 Red. masses --      3.3893                 5.1930                 5.0112
 Frc consts  --      0.0042                 0.0130                 0.0467
 IR Inten    --      0.2048                 0.0000                 0.0946

                      7                      8                      9
                      A                      A                      A
 Frequencies --    153.3078               159.8445               197.2183
 Red. masses --      3.8649                 3.7838                 2.2372
 Frc consts  --      0.0535                 0.0570                 0.0513
 IR Inten    --      0.0000                 0.9778                 0.0000

                     10                     11                     12
                      A                      A                      A
 Frequencies --    200.8723               226.8054               231.2319
 Red. masses --      2.7467                 1.1197                 1.2355
 Frc consts  --      0.0653                 0.0339                 0.0389
 IR Inten    --      4.6460                 0.0106                 0.0000

                     13                     14                     15
                      A                      A                      A
 Frequencies --    237.5726               263.5913               288.9296
 Red. masses --      3.3649                 4.2603                 4.0339
 Frc consts  --      0.1119                 0.1744                 0.1984
 IR Inten    --      0.0000                 0.9943                 0.0000

                     16                     17                     18
                      A                      A                      A
 Frequencies --    305.5755               308.2265               337.3123
 Red. masses --      2.6660                 5.0364                 5.0323
 Frc consts  --      0.1467                 0.2819                 0.3374
 IR Inten    --      0.7844                 0.0000                 0.0000

                     19                     20                     21
                      A                      A                      A
 Frequencies --    380.7881               387.3539               434.3069
 Red. masses --      6.1987                 6.7742                 4.8941
 Frc consts  --      0.5296                 0.5989                 0.5439
 IR Inten    --      0.0000                13.2213                13.8213

                     22                     23                     24
                      A                      A                      A
 Frequencies --    463.6131               479.0296               498.4029
 Red. masses --      6.7499                 5.5010                 3.8360
 Frc consts  --      0.8548                 0.7437                 0.5614
 IR Inten    --      0.0000                 0.0000                 3.4249

                     25                     26                     27
                      A                      A                      A
 Frequencies --    499.8363               531.1079               550.5101
 Red. masses --      4.4969                 4.4770                 3.3970
 Frc consts  --      0.6619                 0.7440                 0.6066
 IR Inten    --      0.0000                 3.6069                 0.0000

                     28                     29                     30
                      A                      A                      A
 Frequencies --    555.1186               557.8633               580.3755
 Red. masses --      4.7184                 3.4000                 4.3887
 Frc consts  --      0.8567                 0.6234                 0.8710
 IR Inten    --      0.0000                 4.7339                 3.5066

                     31                     32                     33
                      A                      A                      A
 Frequencies --    651.8904               673.2779               683.6404
 Red. masses --      5.5493                 3.5938                 5.5972
 Frc consts  --      1.3894                 0.9598                 1.5413
 IR Inten    --      0.0000                 0.0000                14.7967

                     34                     35                     36
                      A                      A                      A
 Frequencies --    727.5389               770.5201               801.9137
 Red. masses --      3.8887                 6.4842                 6.4878
 Frc consts  --      1.2127                 2.2682                 2.4581
 IR Inten    --     13.2458                11.9918                 0.0000

                     37                     38                     39
                      A                      A                      A
 Frequencies --    802.4192               852.7898               890.4201
 Red. masses --      6.4619                 7.2062                 1.2934
 Frc consts  --      2.4514                 3.0877                 0.6042
 IR Inten    --      0.0000                37.7695                 0.0000

                     40                     41                     42
                      A                      A                      A
 Frequencies --    895.7029               943.1753               945.9917
 Red. masses --      1.3448                 3.2815                 1.4350
 Frc consts  --      0.6357                 1.7199                 0.7566
 IR Inten    --     19.7084                 0.0000                 0.0006

                     43                     44                     45
                      A                      A                      A
 Frequencies --    946.2185               984.2890               997.0412
 Red. masses --      1.3613                 4.5191                 1.6279
 Frc consts  --      0.7181                 2.5796                 0.9535
 IR Inten    --      4.6946                 4.2329                29.9029

                     46                     47                     48
                      A                      A                      A
 Frequencies --   1002.7672              1033.3068              1037.4184
 Red. masses --      4.3571                 1.7269                 1.5855
 Frc consts  --      2.5814                 1.0864                 1.0054
 IR Inten    --      0.0000                 0.0000                 1.3498

                     49                     50                     51
                      A                      A                      A
 Frequencies --   1045.8336              1056.8871              1057.4457
 Red. masses --      1.4564                 1.5528                 1.5594
 Frc consts  --      0.9386                 1.0219                 1.0274
 IR Inten    --      0.0000                 0.0000                 3.5104

                     52                     53                     54
                      A                      A                      A
 Frequencies --   1061.6509              1061.7667              1079.3313
 Red. masses --      1.5977                 1.5706                 3.8055
 Frc consts  --      1.0610                 1.0432                 2.6120
 IR Inten    --     17.4813                 0.0129                75.4461

                     55                     56                     57
                      A                      A                      A
 Frequencies --   1155.8011              1181.1314              1211.7385
 Red. masses --      1.8776                 1.7252                 2.6894
 Frc consts  --      1.4778                 1.4180                 2.3266
 IR Inten    --     14.3575                 0.0000                 0.0000

                     58                     59                     60
                      A                      A                      A
 Frequencies --   1251.3541              1267.0544              1277.5297
 Red. masses --      2.1862                 1.8743                 2.0809
 Frc consts  --      2.0170                 1.7728                 2.0010
 IR Inten    --    102.9318               141.6661                 0.0000

                     61                     62                     63
                      A                      A                      A
 Frequencies --   1310.6408              1318.9071              1344.7821
 Red. masses --      7.3739                 4.6574                 7.5585
 Frc consts  --      7.4630                 4.7733                 8.0536
 IR Inten    --    384.1614                 0.0000               160.3197

                     64                     65                     66
                      A                      A                      A
 Frequencies --   1352.0114              1413.8084              1413.9552
 Red. masses --      6.5101                 1.2473                 1.2526
 Frc consts  --      7.0113                 1.4690                 1.4755
 IR Inten    --      0.0000                 0.0000                15.8088

                     67                     68                     69
                      A                      A                      A
 Frequencies --   1419.0024              1419.1861              1432.1189
 Red. masses --      1.3239                 1.3107                 2.1417
 Frc consts  --      1.5706                 1.5553                 2.5880
 IR Inten    --     14.6912                 0.0001                37.5726

                     70                     71                     72
                      A                      A                      A
 Frequencies --   1435.9769              1466.4354              1472.8916
 Red. masses --      2.1275                 2.2662                 1.8478
 Frc consts  --      2.5847                 2.8713                 2.3618
 IR Inten    --      0.0000                43.0299                 0.0000

                     73                     74                     75
                      A                      A                      A
 Frequencies --   1474.4307              1474.4712              1489.2983
 Red. masses --      1.0451                 1.0538                 1.0587
 Frc consts  --      1.3386                 1.3499                 1.3835
 IR Inten    --     15.9064                 0.0002                14.9659

                     76                     77                     78
                      A                      A                      A
 Frequencies --   1489.3353              1491.5917              1494.2108
 Red. masses --      1.0546                 1.2293                 1.3157
 Frc consts  --      1.3782                 1.6115                 1.7308
 IR Inten    --      0.0433                 4.5543                 0.0000

                     79                     80                     81
                      A                      A                      A
 Frequencies --   1498.0734              1502.1565              1590.5395
 Red. masses --      1.3737                 1.5574                 6.5011
 Frc consts  --      1.8164                 2.0705                 9.6900
 IR Inten    --     20.6076                 0.0000                38.6070

                     82                     83                     84
                      A                      A                      A
 Frequencies --   1600.7464              1632.0245              1637.1829
 Red. masses --      6.6808                 5.8467                 5.9645
 Frc consts  --     10.0860                 9.1752                 9.4193
 IR Inten    --      0.0000               260.0758                 0.0000

                     85                     86                     87
                      A                      A                      A
 Frequencies --   1701.8496              1712.7975              3023.7488
 Red. masses --     11.8759                11.4611                 1.0405
 Frc consts  --     20.2655                19.8101                 5.6052
 IR Inten    --      0.0000               290.0530                47.8370

                     88                     89                     90
                      A                      A                      A
 Frequencies --   3023.8143              3039.8319              3039.8893
 Red. masses --      1.0405                 1.0359                 1.0359
 Frc consts  --      5.6055                 5.6398                 5.6399
 IR Inten    --      0.1169                46.5620                 0.0101

                     91                     92                     93
                      A                      A                      A
 Frequencies --   3078.3322              3078.3444              3101.5136
 Red. masses --      1.0950                 1.0950                 1.0990
 Frc consts  --      6.1137                 6.1136                 6.2284
 IR Inten    --     25.8112                 6.8928                 0.1190

                     94                     95                     96
                      A                      A                      A
 Frequencies --   3101.5278              3107.8598              3107.8716
 Red. masses --      1.0989                 1.1029                 1.1029
 Frc consts  --      6.2284                 6.2761                 6.2763
 IR Inten    --     14.0625                48.9395                 0.2213

                     97                     98                     99
                      A                      A                      A
 Frequencies --   3108.8834              3108.8986              3152.9855
 Red. masses --      1.1020                 1.1020                 1.0898
 Frc consts  --      6.2755                 6.2756                 6.3834
 IR Inten    --      6.8420                17.2498                44.6844

                    100                    101                    102
                      A                      A                      A
 Frequencies --   3153.0999              3193.3383              3193.4856
 Red. masses --      1.0898                 1.0904                 1.0904
 Frc consts  --      6.3837                 6.5511                 6.5516
 IR Inten    --      0.0012                 8.3242                 0.0120

 - Thermochemistry -
 -------------------
 Temperature   298.150 Kelvin.  Pressure   1.00000 Atm.
 Atom     1 has atomic number  6 and mass  12.00000

 Molecular mass:   264.11503 amu.
 Principal axes and moments of inertia in atomic units:
                           1         2         3
     Eigenvalues --  2835.488197454.42933**********
           X            0.99609  -0.08728  -0.01353
           Y           -0.04232  -0.60606   0.79429
           Z            0.07753   0.79061   0.60739
 This molecule is an asymmetric top.
 Rotational symmetry number  1.
 Warning -- assumption of classical behavior for rotation
           may cause significant error
 Rotational temperatures (Kelvin)      0.03055     0.01162     0.00845
 Rotational constants (GHZ):           0.63648     0.24210     0.17615
 Zero-point vibrational energy     757735.1 (Joules/Mol)
                                  181.10303 (Kcal/Mol)
 Warning -- explicit consideration of  30 degrees of freedom as
           vibrations may cause significant error
 Vibrational temperatures:     23.96    36.94    36.99    66.06    93.86
          (Kelvin)            180.91   220.58   229.98   283.75   289.01
                              326.32   332.69   341.81   379.25   415.71
                              439.66   443.47   485.32   547.87   557.32
                              624.87   667.04   689.22   717.09   719.15
                              764.15   792.06   798.69   802.64   835.03
                              937.92   968.70   983.61  1046.77  1108.61
                             1153.77  1154.50  1226.97  1281.12  1288.72
                             1357.02  1361.07  1361.40  1416.17  1434.52
                             1442.76  1486.70  1492.61  1504.72  1520.62
                             1521.43  1527.48  1527.65  1552.92  1662.94
                             1699.38  1743.42  1800.42  1823.01  1838.08
                             1885.72  1897.61  1934.84  1945.24  2034.15
                             2034.37  2041.63  2041.89  2060.50  2066.05
                             2109.87  2119.16  2121.38  2121.44  2142.77
                             2142.82  2146.07  2149.84  2155.39  2161.27
                             2288.43  2303.12  2348.12  2355.54  2448.58
                             2464.33  4350.50  4350.59  4373.64  4373.72
                             4429.03  4429.05  4462.39  4462.41  4471.52
                             4471.53  4472.99  4473.01  4536.44  4536.61
                             4594.50  4594.71

 Zero-point correction=                           0.288606 (Hartree/Particle)
 Thermal correction to Energy=                    0.306910
 Thermal correction to Enthalpy=                  0.307854
 Thermal correction to Gibbs Free Energy=         0.240071
 Sum of electronic and zero-point Energies=           -845.970008
 Sum of electronic and thermal Energies=              -845.951705
 Sum of electronic and thermal Enthalpies=            -845.950761
 Sum of electronic and thermal Free Energies=         -846.018543

                     E (Thermal)             CV                S
                      KCal/Mol        Cal/Mol-Kelvin    Cal/Mol-Kelvin
 Total                  192.589             69.586            142.660
 Electronic               0.000              0.000              0.000
 Translational            0.889              2.981             42.613
 Rotational               0.889              2.981             33.737
 Vibrational            190.811             63.624             66.310
 Vibration     1          0.593              1.986              6.998
 Vibration     2          0.593              1.985              6.139
 Vibration     3          0.593              1.985              6.135
 Vibration     4          0.595              1.979              4.986
 Vibration     5          0.597              1.971              4.292
 Vibration     6          0.611              1.927              3.010
 Vibration     7          0.619              1.899              2.631
 Vibration     8          0.622              1.892              2.552
 Vibration     9          0.637              1.844              2.159
 Vibration    10          0.638              1.839              2.125
 Vibration    11          0.650              1.800              1.904
 Vibration    12          0.653              1.793              1.869
 Vibration    13          0.656              1.783              1.821
 Vibration    14          0.670              1.740              1.638
 Vibration    15          0.685              1.694              1.480
 Vibration    16          0.696              1.663              1.386
 Vibration    17          0.698              1.658              1.372
 Vibration    18          0.718              1.601              1.225
 Vibration    19          0.751              1.511              1.036
 Vibration    20          0.756              1.497              1.010
 Vibration    21          0.795              1.395              0.845
 Vibration    22          0.821              1.331              0.756
 Vibration    23          0.835              1.297              0.713
 Vibration    24          0.854              1.254              0.662
 Vibration    25          0.855              1.250              0.659
 Vibration    26          0.886              1.181              0.585
 Vibration    27          0.906              1.139              0.543
 Vibration    28          0.911              1.128              0.534
 Vibration    29          0.913              1.123              0.528
 Vibration    30          0.937              1.074              0.485

 Optimization completed.
    -- Stationary point found.
 Normal termination of Gaussian 16 at Wed Dec 27 21:08:10 2023.
