 Q-Chem 5.4, Q-Chem, Inc., Pleasanton, CA (2021)
 Q-Chem 5.4.0 for Intel X86 EM64T Linux

User input:
--------------------------------------------------------------
$molecule
-1 2
Cl                 3.0864630000      0.3933530000     -0.0153120000
C                  1.3487560000      0.1373410000     -0.0082180000
C                  0.8278920000     -1.1405930000     -0.0590090000
Cl                 1.8812580000     -2.5413720000     -0.1318380000
C                 -0.5992630000     -1.4144790000     -0.0559670000
O                 -1.0627240000     -2.5609550000     -0.1016410000
C                 -1.5219770000     -0.2148920000      0.0066980000
O                 -2.7500160000     -0.3676260000      0.0129810000
C                 -0.8902700000      1.0926750000      0.0575870000
C                  0.4795600000      1.2670060000      0.0507430000
Cl                 1.1740040000      2.8791630000      0.1142740000
Cl                -1.9736840000      2.4703800000      0.1297030000
$end
$rem
MAX_SCF_CYCLES=200
BASIS  =  6-311++G(d,p)
GUI  =  2
JOB_TYPE  =  SP
METHOD  =  B3LYP
SOLVENT_METHOD = PCM
$end
$pcm
theory = CPCM
$end
$solvent
dielectric 37.219
opticaldielectric 1.43
$end

--------------------------------------------------------------

             Standard Nuclear Orientation (Angstroms)
    I     Atom           X                Y                Z
 ----------------------------------------------------------------
    1      Cl      3.0864630000     0.3933530000    -0.0153120000
    2      C       1.3487560000     0.1373410000    -0.0082180000
    3      C       0.8278920000    -1.1405930000    -0.0590090000
    4      Cl      1.8812580000    -2.5413720000    -0.1318380000
    5      C      -0.5992630000    -1.4144790000    -0.0559670000
    6      O      -1.0627240000    -2.5609550000    -0.1016410000
    7      C      -1.5219770000    -0.2148920000     0.0066980000
    8      O      -2.7500160000    -0.3676260000     0.0129810000
    9      C      -0.8902700000     1.0926750000     0.0575870000
   10      C       0.4795600000     1.2670060000     0.0507430000
   11      Cl      1.1740040000     2.8791630000     0.1142740000
   12      Cl     -1.9736840000     2.4703800000     0.1297030000
 ----------------------------------------------------------------

    9   -2220.2048177273      5.87e-06  Convergence criterion met
 Total energy in the final basis set =    -2220.2048177273

                    Orbital Energies (a.u.)
 --------------------------------------------------------------

 Alpha MOs
 -- Occupied --
********-101.5702-101.5616-101.5615 -19.1044 -19.1044 -10.2635 -10.2631
-10.2513 -10.2511 -10.2440 -10.2440  -9.4847  -9.4846  -9.4760  -9.4759
 -7.2494  -7.2493  -7.2406  -7.2406  -7.2398  -7.2398  -7.2389  -7.2387
 -7.2312  -7.2311  -7.2302  -7.2301  -1.0490  -1.0215  -0.9328  -0.8920
 -0.8666  -0.8505  -0.8082  -0.7194  -0.7044  -0.5989  -0.5959  -0.5358
 -0.5000  -0.4666  -0.4589  -0.4481  -0.4405  -0.4253  -0.4197  -0.4086
 -0.4002  -0.3593  -0.3493  -0.3493  -0.3397  -0.3387  -0.3222  -0.3106
 -0.3017  -0.2834  -0.2545  -0.2407  -0.1895

 Beta MOs
 -- Occupied --
********-101.5701-101.5616-101.5615 -19.0982 -19.0982 -10.2617 -10.2613
-10.2502 -10.2500 -10.2432 -10.2432  -9.4846  -9.4845  -9.4759  -9.4759
 -7.2494  -7.2493  -7.2407  -7.2406  -7.2394  -7.2393  -7.2388  -7.2387
 -7.2310  -7.2309  -7.2301  -7.2300  -1.0388  -1.0103  -0.9295  -0.8907
 -0.8651  -0.8496  -0.8048  -0.7166  -0.6950  -0.5950  -0.5909  -0.5336
 -0.4978  -0.4631  -0.4469  -0.4446  -0.4350  -0.4211  -0.4175  -0.3915
 -0.3906  -0.3486  -0.3469  -0.3446  -0.3380  -0.3266  -0.3219  -0.3094
 -0.2912  -0.2782  -0.2487  -0.2286

          Ground-State Mulliken Net Atomic Charges

     Atom                 Charge (a.u.)    Spin (a.u.)
  --------------------------------------------------------
      1 Cl                    0.563603       0.015335
      2 C                    -0.586268       0.084067
      3 C                     0.304184       0.065330
      4 Cl                    0.266304       0.004627
      5 C                    -0.630091       0.101074
      6 O                    -0.415165       0.229522
      7 C                    -0.632918       0.101174
      8 O                    -0.414282       0.229663
      9 C                     0.305391       0.065232
     10 C                    -0.590607       0.083988
     11 Cl                    0.563187       0.015345
     12 Cl                    0.266662       0.004643
  --------------------------------------------------------
  Sum of atomic charges =    -1.000000

                    Cartesian Multipole Moments
 -----------------------------------------------------------------
    Charge (ESU x 10^10)
                -4.8032
    Dipole Moment (Debye)
         X       6.3891      Y       4.9093      Z       0.1497
       Tot       8.0588
    Quadrupole Moments (Debye-Ang)
        XX    -124.7209     XY      -5.5784     YY    -121.7054
        XZ       0.0508     YZ      -1.0256     ZZ     -97.1452

 Total job time:  19.59s(wall), 126.62s(cpu)
        *  Thank you very much for using Q-Chem.  Have a nice day.  *
