 Q-Chem 5.4, Q-Chem, Inc., Pleasanton, CA (2021)
 Q-Chem 5.4.0 for Intel X86 EM64T Linux

User input:
--------------------------------------------------------------
$molecule
-1 2
C                 -4.7643580000     -0.2443920000     -0.5027840000
C                 -3.9689000000     -0.4921960000      0.7917440000
C                 -2.5445040000      0.0150710000      0.7278290000
C                 -2.2690400000      1.3971280000      0.8896690000
C                 -0.9782240000      1.8740770000      0.8016090000
C                  0.1090300000      1.0092880000      0.5478990000
C                  1.4616290000      1.5611910000      0.4633330000
O                  1.6910310000      2.7885610000      0.6057530000
C                  2.5326440000      0.5966400000      0.2026730000
C                  3.8650940000      1.0553650000      0.1070910000
C                  4.9075920000      0.1838930000     -0.1370150000
C                  4.6484920000     -1.1959400000     -0.2961510000
C                  3.3544280000     -1.6680140000     -0.2068390000
C                  2.2708790000     -0.7961600000      0.0421870000
C                  0.9167570000     -1.3462500000      0.1283870000
O                  0.6867820000     -2.5745500000     -0.0125240000
C                 -0.1530690000     -0.3815550000      0.3873910000
C                 -1.4858870000     -0.8405880000      0.4844700000
H                 -4.2898410000     -0.7496390000     -1.3486710000
H                 -5.7923390000     -0.6144370000     -0.4151760000
H                 -4.8073180000      0.8229520000     -0.7387180000
H                 -4.4934220000     -0.0114310000      1.6275660000
H                 -3.9597340000     -1.5659540000      1.0059670000
H                 -3.0867560000      2.0849610000      1.0922510000
H                 -0.7565000000      2.9276600000      0.9288370000
H                  4.0338210000      2.1187500000      0.2334560000
H                  5.9253970000      0.5565660000     -0.2069660000
H                  5.4675400000     -1.8830060000     -0.4882470000
H                  3.1266040000     -2.7212990000     -0.3245080000
H                 -1.6478270000     -1.9066930000      0.3611890000
$end

$rem
BASIS  =  6-311++G(d,p)
GUI  =  2
JOB_TYPE  =  SP
METHOD  =  B3LYP
SCF_CONVERGENCE  = 8
SOLVENT_METHOD = sm12
$end

$smx
solvent dimethylformamide
charges CM5
$end

--------------------------------------------------------------

             Standard Nuclear Orientation (Angstroms)
    I     Atom           X                Y                Z
 ----------------------------------------------------------------
    1      C      -4.7643580000    -0.2443920000    -0.5027840000
    2      C      -3.9689000000    -0.4921960000     0.7917440000
    3      C      -2.5445040000     0.0150710000     0.7278290000
    4      C      -2.2690400000     1.3971280000     0.8896690000
    5      C      -0.9782240000     1.8740770000     0.8016090000
    6      C       0.1090300000     1.0092880000     0.5478990000
    7      C       1.4616290000     1.5611910000     0.4633330000
    8      O       1.6910310000     2.7885610000     0.6057530000
    9      C       2.5326440000     0.5966400000     0.2026730000
   10      C       3.8650940000     1.0553650000     0.1070910000
   11      C       4.9075920000     0.1838930000    -0.1370150000
   12      C       4.6484920000    -1.1959400000    -0.2961510000
   13      C       3.3544280000    -1.6680140000    -0.2068390000
   14      C       2.2708790000    -0.7961600000     0.0421870000
   15      C       0.9167570000    -1.3462500000     0.1283870000
   16      O       0.6867820000    -2.5745500000    -0.0125240000
   17      C      -0.1530690000    -0.3815550000     0.3873910000
   18      C      -1.4858870000    -0.8405880000     0.4844700000
   19      H      -4.2898410000    -0.7496390000    -1.3486710000
   20      H      -5.7923390000    -0.6144370000    -0.4151760000
   21      H      -4.8073180000     0.8229520000    -0.7387180000
   22      H      -4.4934220000    -0.0114310000     1.6275660000
   23      H      -3.9597340000    -1.5659540000     1.0059670000
   24      H      -3.0867560000     2.0849610000     1.0922510000
   25      H      -0.7565000000     2.9276600000     0.9288370000
   26      H       4.0338210000     2.1187500000     0.2334560000
   27      H       5.9253970000     0.5565660000    -0.2069660000
   28      H       5.4675400000    -1.8830060000    -0.4882470000
   29      H       3.1266040000    -2.7212990000    -0.3245080000
   30      H      -1.6478270000    -1.9066930000     0.3611890000
 ----------------------------------------------------------------

   16    -767.6653244064      7.74e-09  Convergence criterion met
 Total energy in the final basis set =     -767.7552485747

                    Orbital Energies (a.u.)
 --------------------------------------------------------------

 Alpha MOs
 -- Occupied --
-19.0780 -19.0775 -10.2274 -10.2261 -10.1857 -10.1828 -10.1823 -10.1801
-10.1797 -10.1791 -10.1791 -10.1789 -10.1788 -10.1780 -10.1776 -10.1773
-10.1735 -10.1649  -1.0043  -1.0020  -0.8683  -0.8604  -0.8046  -0.7747
 -0.7584  -0.7526  -0.7312  -0.6729  -0.6507  -0.6325  -0.6040  -0.5926
 -0.5630  -0.5382  -0.5238  -0.4801  -0.4748  -0.4657  -0.4588  -0.4389
 -0.4331  -0.4288  -0.4275  -0.4206  -0.4123  -0.4066  -0.4012  -0.3857
 -0.3818  -0.3694  -0.3659  -0.3565  -0.3465  -0.3420  -0.3372  -0.3344
 -0.2710  -0.2657  -0.2606  -0.2513  -0.2473  -0.2385  -0.1454

 Beta MOs
 -- Occupied --
-19.0722 -19.0715 -10.2259 -10.2246 -10.1852 -10.1823 -10.1817 -10.1794
-10.1792 -10.1788 -10.1787 -10.1785 -10.1780 -10.1779 -10.1776 -10.1766
-10.1735 -10.1648  -0.9942  -0.9915  -0.8659  -0.8592  -0.8019  -0.7726
 -0.7563  -0.7509  -0.7297  -0.6662  -0.6491  -0.6306  -0.6025  -0.5919
 -0.5606  -0.5362  -0.5222  -0.4789  -0.4722  -0.4642  -0.4581  -0.4381
 -0.4326  -0.4278  -0.4219  -0.4135  -0.4080  -0.4036  -0.3983  -0.3841
 -0.3682  -0.3632  -0.3582  -0.3559  -0.3457  -0.3410  -0.3334  -0.3259
 -0.2620  -0.2517  -0.2504  -0.2439  -0.2419  -0.2331

          Ground-State Mulliken Net Atomic Charges

     Atom                 Charge (a.u.)    Spin (a.u.)
  --------------------------------------------------------
      1 C                    -0.287074      -0.001338
      2 C                     2.285704      -0.001300
      3 C                     2.254779       0.034365
      4 C                     0.763270       0.038984
      5 C                     0.075506       0.023776
      6 C                    -1.680548       0.030851
      7 C                    -2.503557       0.068988
      8 O                    -0.291818       0.215825
      9 C                    -1.216730       0.043698
     10 C                     0.001303       0.023288
     11 C                     1.046046       0.043988
     12 C                     0.991010       0.036150
     13 C                    -0.065571       0.028082
     14 C                    -0.712014       0.043576
     15 C                    -1.850315       0.078322
     16 O                    -0.301118       0.226004
     17 C                    -1.562601       0.056817
     18 C                    -0.615789       0.023426
     19 H                     0.125259       0.000885
     20 H                     0.259986      -0.000192
     21 H                     0.167082      -0.000517
     22 H                     0.253082       0.002256
     23 H                     0.289527      -0.000093
     24 H                     0.296697      -0.002813
     25 H                     0.185755      -0.001409
     26 H                     0.160234      -0.001300
     27 H                     0.363863      -0.003391
     28 H                     0.362779      -0.002962
     29 H                     0.153526      -0.001771
     30 H                     0.051729      -0.002198
  --------------------------------------------------------
  Sum of atomic charges =    -1.000000

                    Cartesian Multipole Moments
 -----------------------------------------------------------------
    Charge (ESU x 10^10)
                -4.8032
    Dipole Moment (Debye)
         X      -6.4668      Y      -0.5850      Z      -1.4037
       Tot       6.6432
    Quadrupole Moments (Debye-Ang)
        XX    -116.9708     XY      -5.5568     YY    -139.0856
        XZ      -3.1168     YZ      -2.9761     ZZ    -114.3606

 Total job time:  812.28s(wall), 6004.92s(cpu)
        *  Thank you very much for using Q-Chem.  Have a nice day.  *
