 Gaussian 16, Revision A.03,
 Gaussian 16:  ES64L-G16RevA.03 25-Dec-2016

 --------------------------------------
 #P UB3LYP/6-311++G(d,p) nosym opt freq
 --------------------------------------

 -------
 Radical
 -------
 Symbolic Z-matrix:
 Charge = -1 Multiplicity = 2

 SCF Done:  E(UB3LYP) =  -767.670294477     A.U. after   23 cycles
 Optimization completed.
    -- Stationary point found.
 Normal termination of Gaussian 16 at Wed Dec 27 20:01:21 2023.

 ----------------------------------------------------------------------
 #P Geom=AllCheck Guess=TCheck SCRF=Check GenChk UB3LYP/6-311++G(d,p) F
 req
 ----------------------------------------------------------------------

 Structure from the checkpoint file:  "125-rad.chk"
 -------
 Radical
 -------
 Charge = -1 Multiplicity = 2

                          Input orientation:
 ---------------------------------------------------------------------
 Center     Atomic      Atomic             Coordinates (Angstroms)
 Number     Number       Type             X           Y           Z
 ---------------------------------------------------------------------
      1          6           0       -4.764358   -0.244392   -0.502784
      2          6           0       -3.968900   -0.492196    0.791744
      3          6           0       -2.544504    0.015071    0.727829
      4          6           0       -2.269040    1.397128    0.889669
      5          6           0       -0.978224    1.874077    0.801609
      6          6           0        0.109030    1.009288    0.547899
      7          6           0        1.461629    1.561191    0.463333
      8          8           0        1.691031    2.788561    0.605753
      9          6           0        2.532644    0.596640    0.202673
     10          6           0        3.865094    1.055365    0.107091
     11          6           0        4.907592    0.183893   -0.137015
     12          6           0        4.648492   -1.195940   -0.296151
     13          6           0        3.354428   -1.668014   -0.206839
     14          6           0        2.270879   -0.796160    0.042187
     15          6           0        0.916757   -1.346250    0.128387
     16          8           0        0.686782   -2.574550   -0.012524
     17          6           0       -0.153069   -0.381555    0.387391
     18          6           0       -1.485887   -0.840588    0.484470
     19          1           0       -4.289841   -0.749639   -1.348671
     20          1           0       -5.792339   -0.614437   -0.415176
     21          1           0       -4.807318    0.822952   -0.738718
     22          1           0       -4.493422   -0.011431    1.627566
     23          1           0       -3.959734   -1.565954    1.005967
     24          1           0       -3.086756    2.084961    1.092251
     25          1           0       -0.756500    2.927660    0.928837
     26          1           0        4.033821    2.118750    0.233456
     27          1           0        5.925397    0.556566   -0.206966
     28          1           0        5.467540   -1.883006   -0.488247
     29          1           0        3.126604   -2.721299   -0.324508
     30          1           0       -1.647827   -1.906693    0.361189
 ---------------------------------------------------------------------

 SCF Done:  E(UB3LYP) =  -767.670294477     A.U. after    1 cycles

 Alpha  occ. eigenvalues --  -18.94475 -18.94441 -10.09476 -10.09394 -10.07763
 Alpha  occ. eigenvalues --  -10.07456 -10.06469 -10.05737 -10.05688 -10.05614
 Alpha  occ. eigenvalues --  -10.05105 -10.05028 -10.05014 -10.04867 -10.04866
 Alpha  occ. eigenvalues --  -10.04823 -10.04817 -10.04729  -0.87124  -0.86847
 Alpha  occ. eigenvalues --   -0.74299  -0.73328  -0.68846  -0.65417  -0.62961
 Alpha  occ. eigenvalues --   -0.62704  -0.61386  -0.55012  -0.53255  -0.51110
 Alpha  occ. eigenvalues --   -0.48384  -0.46779  -0.43366  -0.41277  -0.40031
 Alpha  occ. eigenvalues --   -0.36422  -0.35251  -0.34627  -0.33789  -0.32764
 Alpha  occ. eigenvalues --   -0.31376  -0.30322  -0.30207  -0.29447  -0.28624
 Alpha  occ. eigenvalues --   -0.28457  -0.27992  -0.27208  -0.25509  -0.24997
 Alpha  occ. eigenvalues --   -0.24818  -0.24156  -0.22506  -0.22302  -0.21210
 Alpha  occ. eigenvalues --   -0.20905  -0.14088  -0.13680  -0.13217  -0.12481
 Alpha  occ. eigenvalues --   -0.11435  -0.10589  -0.01379
 Alpha virt. eigenvalues --    0.06571   0.07075   0.08327   0.09101   0.09289
 Alpha virt. eigenvalues --    0.09831   0.10285   0.10693   0.11556   0.11961
 Alpha virt. eigenvalues --    0.12358   0.13159   0.13433   0.14245   0.15008

  Beta  occ. eigenvalues --  -18.93887 -18.93836 -10.09345 -10.09255 -10.07767
  Beta  occ. eigenvalues --  -10.07449 -10.06415 -10.05686 -10.05635 -10.05565
  Beta  occ. eigenvalues --  -10.05120 -10.05041 -10.05022 -10.04848 -10.04775
  Beta  occ. eigenvalues --  -10.04748 -10.04729 -10.04640  -0.86112  -0.85796
  Beta  occ. eigenvalues --   -0.74095  -0.73178  -0.68673  -0.65113  -0.62748
  Beta  occ. eigenvalues --   -0.62563  -0.61218  -0.54601  -0.52866  -0.50939
  Beta  occ. eigenvalues --   -0.48172  -0.46722  -0.43145  -0.41069  -0.39890
  Beta  occ. eigenvalues --   -0.36379  -0.35091  -0.34417  -0.33654  -0.32691
  Beta  occ. eigenvalues --   -0.31282  -0.30278  -0.30159  -0.28842  -0.28344
  Beta  occ. eigenvalues --   -0.27873  -0.27541  -0.26853  -0.25414  -0.24902
  Beta  occ. eigenvalues --   -0.23836  -0.22485  -0.22461  -0.22170  -0.20713
  Beta  occ. eigenvalues --   -0.20061  -0.13375  -0.12307  -0.11999  -0.11603
  Beta  occ. eigenvalues --   -0.10882  -0.10033
  Beta virt. eigenvalues --    0.04543   0.06732   0.07743   0.08319   0.09122
  Beta virt. eigenvalues --    0.09318   0.10275   0.10564   0.10909   0.11726
  Beta virt. eigenvalues --    0.11967   0.12352   0.13182   0.13428   0.14235

 Mulliken charges and spin densities:
               1          2
     1  C   -0.622571  -0.004897
     2  C   -0.228337   0.000334
     3  C    0.856309   0.035543
     4  C   -0.479083   0.048000
     5  C    0.048639   0.013378
     6  C    0.208814   0.045860
     7  C   -0.886379   0.065607
     8  O   -0.365528   0.219161
     9  C    0.225906   0.047340
    10  C    0.081097   0.015826
    11  C   -0.403992   0.043940
    12  C   -0.400461   0.038103
    13  C    0.026928   0.018063
    14  C    0.438662   0.048509
    15  C   -0.763043   0.072566
    16  O   -0.364116   0.226139
    17  C    0.271894   0.067601
    18  C   -0.293319   0.007653
    19  H    0.139246   0.002002
    20  H    0.100551   0.001375
    21  H    0.134224  -0.000867
    22  H    0.121974   0.004535
    23  H    0.159419  -0.000474
    24  H    0.129663  -0.003451
    25  H    0.162380  -0.000997
    26  H    0.156480  -0.001064
    27  H    0.122446  -0.003642
    28  H    0.123447  -0.003323
    29  H    0.152609  -0.001371
    30  H    0.146138  -0.001446
 Sum of Mulliken charges =  -1.00000   1.00000

 Dipole moment (field-independent basis, Debye):
    X=             -5.4726    Y=             -0.4898    Z=             -1.3476  Tot=              5.6574
 Quadrupole moment (field-independent basis, Debye-Ang):
   XX=           -129.8537   YY=           -138.6437   ZZ=           -114.3761
   XY=             -4.5517   XZ=             -1.9426   YZ=             -3.1181

  Exact polarizability: 377.631 -10.176 230.881 -24.508  18.279 119.652
 Approx polarizability: 525.177  -5.032 440.505 -39.832  37.221 188.618

                      1                      2                      3
                      A                      A                      A
 Frequencies --     36.9247                46.8725                83.0824
 Red. masses --      3.0094                 4.1248                 4.8523
 Frc consts  --      0.0024                 0.0053                 0.0197
 IR Inten    --      1.2412                 3.2579                 1.9977

                      4                      5                      6
                      A                      A                      A
 Frequencies --    127.0310               154.5241               168.6152
 Red. masses --      4.2092                 5.0807                 2.8008
 Frc consts  --      0.0400                 0.0715                 0.0469
 IR Inten    --      0.1553                 0.4904                 2.3756

                      7                      8                      9
                      A                      A                      A
 Frequencies --    178.2332               230.6060               233.3565
 Red. masses --      3.6156                 2.5084                 2.0531
 Frc consts  --      0.0677                 0.0786                 0.0659
 IR Inten    --      2.1858                 0.8589                 1.0689

                     10                     11                     12
                      A                      A                      A
 Frequencies --    280.6865               316.3272               360.6246
 Red. masses --      4.0721                 5.9540                 3.2940
 Frc consts  --      0.1890                 0.3510                 0.2524
 IR Inten    --      1.2408                 1.0749                 1.7611

                     13                     14                     15
                      A                      A                      A
 Frequencies --    378.2579               387.9785               419.5871
 Red. masses --      9.7945                 4.9520                 3.8660
 Frc consts  --      0.8257                 0.4392                 0.4010
 IR Inten    --      3.9198                 1.3603                 0.8896

                     16                     17                     18
                      A                      A                      A
 Frequencies --    433.8773               452.0576               469.5334
 Red. masses --      5.1284                 4.7005                 3.1934
 Frc consts  --      0.5688                 0.5660                 0.4148
 IR Inten    --      0.8395                 1.0851                 0.0319

                     19                     20                     21
                      A                      A                      A
 Frequencies --    490.0008               547.0060               585.7474
 Red. masses --     11.1116                 4.7632                 4.5229
 Frc consts  --      1.5719                 0.8397                 0.9143
 IR Inten    --      0.2073                 6.9396                 7.4339

                     22                     23                     24
                      A                      A                      A
 Frequencies --    640.1742               660.5511               668.5512
 Red. masses --      6.6456                 4.1995                 4.7505
 Frc consts  --      1.6046                 1.0796                 1.2510
 IR Inten    --      6.7888                11.3417                 7.4800

                     25                     26                     27
                      A                      A                      A
 Frequencies --    699.6950               706.2698               736.7402
 Red. masses --      6.2624                 2.4240                 5.1145
 Frc consts  --      1.8064                 0.7124                 1.6356
 IR Inten    --      0.5288                59.5718                 1.3937

                     28                     29                     30
                      A                      A                      A
 Frequencies --    742.7841               778.2558               790.4683
 Red. masses --      4.1867                 1.8014                 1.1890
 Frc consts  --      1.3610                 0.6428                 0.4377
 IR Inten    --      1.6038                13.4107                 0.1711

                     31                     32                     33
                      A                      A                      A
 Frequencies --    804.3417               832.4710               845.5684
 Red. masses --      2.9671                 1.7574                 5.1534
 Frc consts  --      1.1310                 0.7176                 2.1709
 IR Inten    --      2.6767                19.1744                 8.7325

                     34                     35                     36
                      A                      A                      A
 Frequencies --    868.4601               936.0589               937.8803
 Red. masses --      1.5526                 6.2955                 1.4274
 Frc consts  --      0.6899                 3.2500                 0.7397
 IR Inten    --      0.1238                17.8390                 7.4991

                     37                     38                     39
                      A                      A                      A
 Frequencies --    952.1644               980.8482               983.1944
 Red. masses --      3.0439                 1.3326                 1.2744
 Frc consts  --      1.6259                 0.7553                 0.7258
 IR Inten    --      2.9856                 0.6853                 0.4570

                     40                     41                     42
                      A                      A                      A
 Frequencies --    985.5097               993.9563              1036.5444
 Red. masses --      1.3410                 2.5581                 1.9927
 Frc consts  --      0.7674                 1.4890                 1.2614
 IR Inten    --      3.1699                 0.0388                29.0078

                     43                     44                     45
                      A                      A                      A
 Frequencies --   1068.7827              1081.5806              1108.3132
 Red. masses --      1.7753                 1.6778                 2.3264
 Frc consts  --      1.1948                 1.1564                 1.6837
 IR Inten    --      3.4096                 3.5325                16.2013

                     46                     47                     48
                      A                      A                      A
 Frequencies --   1118.8331              1144.4629              1154.7214
 Red. masses --      1.9337                 1.6047                 1.4288
 Frc consts  --      1.4262                 1.2383                 1.1225
 IR Inten    --     10.6393                14.7520                 6.7156

                     49                     50                     51
                      A                      A                      A
 Frequencies --   1195.5917              1219.3087              1224.1558
 Red. masses --      2.3838                 2.2257                 1.6631
 Frc consts  --      2.0076                 1.9496                 1.4684
 IR Inten    --      1.8202                 8.8714                 5.8434

                     52                     53                     54
                      A                      A                      A
 Frequencies --   1230.3365              1262.8366              1280.1281
 Red. masses --      3.7672                 1.6539                 1.4650
 Frc consts  --      3.3598                 1.5540                 1.4145
 IR Inten    --     41.5378                51.7150                30.0053

                     55                     56                     57
                      A                      A                      A
 Frequencies --   1339.9650              1345.0619              1358.6519
 Red. masses --      2.0119                 1.5561                10.5341
 Frc consts  --      2.1284                 1.6587                11.4568
 IR Inten    --      5.6218                12.2572                22.4928

                     58                     59                     60
                      A                      A                      A
 Frequencies --   1367.3258              1399.2738              1414.7154
 Red. masses --      6.3975                 1.2222                 2.8588
 Frc consts  --      7.0470                 1.4099                 3.3711
 IR Inten    --     25.2522                 3.2316               286.0889

                     61                     62                     63
                      A                      A                      A
 Frequencies --   1464.1345              1476.6324              1485.4776
 Red. masses --      2.8024                 3.0457                 1.0913
 Frc consts  --      3.5395                 3.9127                 1.4189
 IR Inten    --     89.1305                38.8381                 2.1659

                     64                     65                     66
                      A                      A                      A
 Frequencies --   1492.2349              1496.7389              1506.6261
 Red. masses --      1.0402                 2.5593                 1.1617
 Frc consts  --      1.3647                 3.3780                 1.5537
 IR Inten    --      7.0413                31.5881                 8.3463

                     67                     68                     69
                      A                      A                      A
 Frequencies --   1523.0211              1533.5173              1555.0505
 Red. masses --      5.5978                 7.0657                 5.5825
 Frc consts  --      7.6504                 9.7901                 7.9537
 IR Inten    --    453.3343                35.6683                93.0710

                     70                     71                     72
                      A                      A                      A
 Frequencies --   1614.1795              1622.7660              1636.0708
 Red. masses --      8.9634                 5.7759                 6.6189
 Frc consts  --     13.7603                 8.9615                10.4386
 IR Inten    --      2.9055                 8.4996                14.2266

                     73                     74                     75
                      A                      A                      A
 Frequencies --   2996.4720              3007.7654              3041.0342
 Red. masses --      1.0648                 1.0378                 1.0961
 Frc consts  --      5.6328                 5.5317                 5.9723
 IR Inten    --     66.8827               118.0479                11.5551

                     76                     77                     78
                      A                      A                      A
 Frequencies --   3068.3353              3086.7096              3127.2078
 Red. masses --      1.0973                 1.1027                 1.0876
 Frc consts  --      6.0868                 6.1899                 6.2666
 IR Inten    --     81.1400                35.4150                39.8386

                     79                     80                     81
                      A                      A                      A
 Frequencies --   3132.6950              3151.8967              3164.4216
 Red. masses --      1.0846                 1.0910                 1.0891
 Frc consts  --      6.2711                 6.3861                 6.4257
 IR Inten    --     18.0917                53.5568                12.5410

                     82                     83                     84
                      A                      A                      A
 Frequencies --   3180.6291              3181.0080              3183.5079
 Red. masses --      1.0914                 1.0914                 1.0929
 Frc consts  --      6.5051                 6.5065                 6.5259
 IR Inten    --     14.6686                15.9923                29.3710

 - Thermochemistry -
 -------------------
 Temperature   298.150 Kelvin.  Pressure   1.00000 Atm.
 Atom     1 has atomic number  6 and mass  12.00000

 Molecular mass:   236.08373 amu.
 Principal axes and moments of inertia in atomic units:
                           1         2         3
     Eigenvalues --  1866.033746842.923778523.54146
           X            0.99780   0.03630   0.05548
           Y           -0.02693   0.98656  -0.16119
           Z           -0.06059   0.15934   0.98536
 This molecule is an asymmetric top.
 Rotational symmetry number  1.
 Warning -- assumption of classical behavior for rotation
           may cause significant error
 Rotational temperatures (Kelvin)      0.04642     0.01266     0.01016
 Rotational constants (GHZ):           0.96715     0.26374     0.21174
 Zero-point vibrational energy     610117.0 (Joules/Mol)
                                  145.82146 (Kcal/Mol)
 Warning -- explicit consideration of  21 degrees of freedom as
           vibrations may cause significant error
 Vibrational temperatures:     53.13    67.44   119.54   182.77   222.33
          (Kelvin)            242.60   256.44   331.79   335.75   403.85
                              455.12   518.86   544.23   558.21   603.69
                              624.25   650.41   675.55   705.00   787.02
                              842.76   921.07   950.39   961.90  1006.71
                             1016.16  1060.00  1068.70  1119.74  1137.31
                             1157.27  1197.74  1216.58  1249.52  1346.78
                             1349.40  1369.95  1411.22  1414.60  1417.93
                             1430.08  1491.36  1537.74  1556.15  1594.62
                             1609.75  1646.63  1661.39  1720.19  1754.31
                             1761.29  1770.18  1816.94  1841.82  1927.91
                             1935.24  1954.80  1967.28  2013.24  2035.46
                             2106.56  2124.54  2137.27  2146.99  2153.47
                             2167.70  2191.29  2206.39  2237.37  2322.44
                             2334.80  2353.94  4311.25  4327.50  4375.37
                             4414.65  4441.09  4499.35  4507.25  4534.88
                             4552.90  4576.22  4576.76  4580.36

 Zero-point correction=                           0.232381 (Hartree/Particle)
 Thermal correction to Energy=                    0.246666
 Thermal correction to Enthalpy=                  0.247610
 Thermal correction to Gibbs Free Energy=         0.190092
 Sum of electronic and zero-point Energies=           -767.437913
 Sum of electronic and thermal Energies=              -767.423628
 Sum of electronic and thermal Enthalpies=            -767.422684
 Sum of electronic and thermal Free Energies=         -767.480203

                     E (Thermal)             CV                S
                      KCal/Mol        Cal/Mol-Kelvin    Cal/Mol-Kelvin
 Total                  154.785             57.046            121.058
 Electronic               0.000              0.000              1.377
 Translational            0.889              2.981             42.279
 Rotational               0.889              2.981             33.053
 Vibrational            153.008             51.085             44.349
 Vibration     1          0.594              1.982              5.418
 Vibration     2          0.595              1.979              4.945
 Vibration     3          0.600              1.961              3.817
 Vibration     4          0.611              1.926              2.991
 Vibration     5          0.620              1.898              2.616
 Vibration     6          0.625              1.881              2.451
 Vibration     7          0.629              1.869              2.347
 Vibration     8          0.652              1.794              1.874
 Vibration     9          0.654              1.790              1.853
 Vibration    10          0.680              1.709              1.529
 Vibration    11          0.703              1.642              1.329
 Vibration    12          0.735              1.553              1.119
 Vibration    13          0.749              1.516              1.046
 Vibration    14          0.756              1.496              1.008
 Vibration    15          0.782              1.428              0.893
 Vibration    16          0.795              1.396              0.846
 Vibration    17          0.811              1.356              0.790
 Vibration    18          0.827              1.318              0.739
 Vibration    19          0.846              1.272              0.684
 Vibration    20          0.902              1.146              0.550
 Vibration    21          0.943              1.062              0.475

 Optimization completed.
    -- Stationary point found.
 Normal termination of Gaussian 16 at Wed Dec 27 21:36:57 2023.
