 Q-Chem 5.4, Q-Chem, Inc., Pleasanton, CA (2021)
 Q-Chem 5.4.0 for Intel X86 EM64T Linux

User input:
--------------------------------------------------------------
$molecule
-1 2
C                 -1.7631600000     -3.7213920000      1.3013420000
C                 -0.3781800000     -3.9547000000      1.0442140000
C                  0.4328430000     -2.9503280000      0.5696640000
C                 -0.0540060000     -1.6106830000      0.3024510000
C                 -1.4684500000     -1.3551830000      0.5585770000
C                 -2.2526940000     -2.3723510000      1.0331060000
O                 -2.6017410000     -4.5785780000      1.7401020000
O                  0.7102190000     -0.7031020000     -0.1335570000
O                 -3.5849730000     -2.2210230000      1.3033750000
C                 -2.0083880000      0.0230220000      0.2914550000
H                  0.0074330000     -4.9517040000      1.2375650000
H                  1.4867670000     -3.1238330000      0.3732270000
H                 -1.5519990000      0.7608530000      0.9621000000
H                 -3.0912090000      0.0522160000      0.4242650000
H                 -1.7586160000      0.3436920000     -0.7251920000
H                 -3.8268800000     -3.1226740000      1.6124360000
$end

$rem
BASIS  =  6-311++G(d,p)
GUI  =  2
JOB_TYPE  =  SP
METHOD  =  B3LYP
SCF_CONVERGENCE  = 8
SOLVENT_METHOD = sm12
$end

$smx
solvent dimethylformamide
charges CM5
$end

--------------------------------------------------------------

             Standard Nuclear Orientation (Angstroms)
    I     Atom           X                Y                Z
 ----------------------------------------------------------------
    1      C      -1.7631600000    -3.7213920000     1.3013420000
    2      C      -0.3781800000    -3.9547000000     1.0442140000
    3      C       0.4328430000    -2.9503280000     0.5696640000
    4      C      -0.0540060000    -1.6106830000     0.3024510000
    5      C      -1.4684500000    -1.3551830000     0.5585770000
    6      C      -2.2526940000    -2.3723510000     1.0331060000
    7      O      -2.6017410000    -4.5785780000     1.7401020000
    8      O       0.7102190000    -0.7031020000    -0.1335570000
    9      O      -3.5849730000    -2.2210230000     1.3033750000
   10      C      -2.0083880000     0.0230220000     0.2914550000
   11      H       0.0074330000    -4.9517040000     1.2375650000
   12      H       1.4867670000    -3.1238330000     0.3732270000
   13      H      -1.5519990000     0.7608530000     0.9621000000
   14      H      -3.0912090000     0.0522160000     0.4242650000
   15      H      -1.7586160000     0.3436920000    -0.7251920000
   16      H      -3.8268800000    -3.1226740000     1.6124360000
 ----------------------------------------------------------------

   17    -496.2316612914      9.35e-09  Convergence criterion met
 Total energy in the final basis set =     -496.3164498203

                    Orbital Energies (a.u.)
 --------------------------------------------------------------

 Alpha MOs
 -- Occupied --
-19.1462 -19.0898 -19.0768 -10.2258 -10.2248 -10.2231 -10.1720 -10.1703
-10.1699 -10.1680  -1.0650  -0.9978  -0.9969  -0.8284  -0.7703  -0.6988
 -0.6734  -0.5956  -0.5838  -0.5151  -0.4905  -0.4634  -0.4412  -0.4342
 -0.4076  -0.4061  -0.4041  -0.3983  -0.3762  -0.3671  -0.3569  -0.3498
 -0.2843  -0.2599  -0.2400  -0.2334  -0.1656

 Beta MOs
 -- Occupied --
-19.1458 -19.0827 -19.0700 -10.2250 -10.2227 -10.2222 -10.1713 -10.1696
-10.1680 -10.1678  -1.0631  -0.9861  -0.9849  -0.8226  -0.7678  -0.6944
 -0.6650  -0.5924  -0.5802  -0.5117  -0.4887  -0.4600  -0.4334  -0.4310
 -0.4056  -0.4004  -0.3976  -0.3944  -0.3645  -0.3576  -0.3477  -0.3358
 -0.2535  -0.2531  -0.2335  -0.2250

          Ground-State Mulliken Net Atomic Charges

     Atom                 Charge (a.u.)    Spin (a.u.)
  --------------------------------------------------------
      1 C                    -0.327417       0.122499
      2 C                     0.231350       0.061983
      3 C                     0.255308       0.194509
      4 C                    -1.836139       0.044850
      5 C                     1.686951       0.030317
      6 C                    -1.642326       0.042243
      7 O                    -0.401088       0.254627
      8 O                    -0.357849       0.247293
      9 O                    -0.164644       0.013612
     10 C                     0.279970       0.009223
     11 H                     0.245321      -0.005214
     12 H                     0.206879      -0.015230
     13 H                     0.167720       0.001979
     14 H                     0.197348      -0.000287
     15 H                     0.165232       0.001491
     16 H                     0.293382      -0.003896
  --------------------------------------------------------
  Sum of atomic charges =    -1.000000

                    Cartesian Multipole Moments
 -----------------------------------------------------------------
    Charge (ESU x 10^10)
                -4.8032
    Dipole Moment (Debye)
         X       5.0592      Y      11.2444      Z      -3.5724
       Tot      12.8372
    Quadrupole Moments (Debye-Ang)
        XX     -83.0735     XY     -23.9868     YY    -106.5633
        XZ      10.7187     YZ      16.1486     ZZ     -69.2840

 Total job time:  147.85s(wall), 1085.16s(cpu)
        *  Thank you very much for using Q-Chem.  Have a nice day.  *
