 Q-Chem 5.4, Q-Chem, Inc., Pleasanton, CA (2021)
 Q-Chem 5.4.0 for Intel X86 EM64T Linux

User input:
--------------------------------------------------------------
$molecule
0 1
C                 -2.9257610000      0.4240760000      0.5253280000
C                 -1.9615580000     -0.4075160000     -0.3432730000
C                 -2.3003100000     -0.3340310000     -1.8451040000
C                 -0.4969260000     -0.1141820000     -0.0507270000
C                  0.1766170000      1.0371550000     -0.2414990000
Br                -0.6101400000      2.6238350000     -0.9568040000
C                  1.6296670000      1.2137180000      0.0851590000
O                  2.1965150000      2.2697790000     -0.1037080000
C                  2.3833730000      0.0488070000      0.6569730000
C                  1.7185560000     -1.1031030000      0.8497410000
Br                 2.5854990000     -2.6369520000      1.5683380000
C                  0.2732070000     -1.2838160000      0.5268130000
O                 -0.2782250000     -2.3471100000      0.7222150000
C                  3.8331890000      0.2625170000      0.9714010000
H                 -2.9044210000      1.4849840000      0.2757890000
H                 -2.6912330000      0.3158430000      1.5874900000
H                 -3.9458590000      0.0612540000      0.3721540000
H                 -2.0962640000     -1.4477030000     -0.0461180000
H                 -2.2397940000      0.6807680000     -2.2385370000
H                 -1.6317960000     -0.9703950000     -2.4307900000
H                 -3.3208960000     -0.6955750000     -1.9980560000
H                  4.4536240000     -0.4408990000      0.4093250000
H                  4.1280060000      1.2797120000      0.7235010000
H                  4.0249320000      0.0788340000      2.0321450000
$end

$rem
BASIS  =  6-311++G(d,p)
GUI  =  2
JOB_TYPE  =  SP
METHOD  =  B3LYP
SCF_CONVERGENCE  = 8
SOLVENT_METHOD = sm12
$end

$smx
solvent dimethylformamide
charges CM5
$end

--------------------------------------------------------------

             Standard Nuclear Orientation (Angstroms)
    I     Atom           X                Y                Z
 ----------------------------------------------------------------
    1      C      -2.9257610000     0.4240760000     0.5253280000
    2      C      -1.9615580000    -0.4075160000    -0.3432730000
    3      C      -2.3003100000    -0.3340310000    -1.8451040000
    4      C      -0.4969260000    -0.1141820000    -0.0507270000
    5      C       0.1766170000     1.0371550000    -0.2414990000
    6      Br     -0.6101400000     2.6238350000    -0.9568040000
    7      C       1.6296670000     1.2137180000     0.0851590000
    8      O       2.1965150000     2.2697790000    -0.1037080000
    9      C       2.3833730000     0.0488070000     0.6569730000
   10      C       1.7185560000    -1.1031030000     0.8497410000
   11      Br      2.5854990000    -2.6369520000     1.5683380000
   12      C       0.2732070000    -1.2838160000     0.5268130000
   13      O      -0.2782250000    -2.3471100000     0.7222150000
   14      C       3.8331890000     0.2625170000     0.9714010000
   15      H      -2.9044210000     1.4849840000     0.2757890000
   16      H      -2.6912330000     0.3158430000     1.5874900000
   17      H      -3.9458590000     0.0612540000     0.3721540000
   18      H      -2.0962640000    -1.4477030000    -0.0461180000
   19      H      -2.2397940000     0.6807680000    -2.2385370000
   20      H      -1.6317960000    -0.9703950000    -2.4307900000
   21      H      -3.3208960000    -0.6955750000    -1.9980560000
   22      H       4.4536240000    -0.4408990000     0.4093250000
   23      H       4.1280060000     1.2797120000     0.7235010000
   24      H       4.0249320000     0.0788340000     2.0321450000
 ----------------------------------------------------------------

   15   -5685.9400394204      6.81e-09  Convergence criterion met
 Total energy in the final basis set =    -5685.9529778583

                    Orbital Energies (a.u.)
 --------------------------------------------------------------

 Alpha MOs
 -- Occupied --
********-482.8466 -62.5011 -62.4995 -56.3216 -56.3201 -56.3179 -56.3174
-56.3163 -56.3158 -19.1521 -19.1518 -10.3040 -10.3033 -10.2667 -10.2640
-10.2360 -10.2351 -10.1962 -10.1814 -10.1665 -10.1665  -8.7099  -8.7084
 -6.5417  -6.5402  -6.5289  -6.5274  -6.5273  -6.5259  -2.6526  -2.6511
 -2.6491  -2.6479  -2.6476  -2.6466  -2.6378  -2.6378  -2.6363  -2.6362
 -1.0892  -1.0872  -0.8965  -0.8655  -0.8114  -0.8010  -0.7733  -0.7196
 -0.6975  -0.6943  -0.6324  -0.6059  -0.5803  -0.5516  -0.5000  -0.4795
 -0.4781  -0.4654  -0.4525  -0.4426  -0.4380  -0.4326  -0.4266  -0.4207
 -0.4144  -0.3973  -0.3935  -0.3705  -0.3614  -0.3472  -0.3458  -0.3420
 -0.3089  -0.3061  -0.2990  -0.2927  -0.2871  -0.2720

          Ground-State Mulliken Net Atomic Charges

     Atom                 Charge (a.u.)
  ----------------------------------------
      1 C                    -0.581036
      2 C                     0.347098
      3 C                    -0.581934
      4 C                     1.132782
      5 C                     0.259595
      6 Br                   -0.074376
      7 C                    -1.811078
      8 O                    -0.174133
      9 C                     1.039822
     10 C                     0.298921
     11 Br                   -0.166686
     12 C                    -1.519199
     13 O                    -0.167580
     14 C                     0.195834
     15 H                     0.143257
     16 H                     0.150671
     17 H                     0.183492
     18 H                     0.197055
     19 H                     0.143234
     20 H                     0.150643
     21 H                     0.183410
     22 H                     0.218977
     23 H                     0.212169
     24 H                     0.219063
  ----------------------------------------
  Sum of atomic charges =     0.000000

                    Cartesian Multipole Moments
 -----------------------------------------------------------------
    Charge (ESU x 10^10)
                 0.0000
    Dipole Moment (Debye)
         X      -0.1042      Y      -0.1324      Z       0.0154
       Tot       0.1692
    Quadrupole Moments (Debye-Ang)
        XX     -99.0054     XY      -5.3568     YY    -121.3897
        XZ       3.7630     YZ       3.2663     ZZ    -106.8232

 Total job time:  429.97s(wall), 3328.48s(cpu)
        *  Thank you very much for using Q-Chem.  Have a nice day.  *
