 Gaussian 16, Revision A.03,
 Gaussian 16:  ES64L-G16RevA.03 25-Dec-2016

 ----------------------------------------------------------------------
 #P UB3LYP/6-311++G(d,p) nosym opt freq SCRF=(PCM,Solvent=n,n-DiMethylF
 ormamide)
 ----------------------------------------------------------------------

 -------
 Radical
 -------
 Symbolic Z-matrix:
 Charge = -1 Multiplicity = 2

 SCF Done:  E(UB3LYP) =  -1615.52390897     A.U. after   18 cycles
 SCF Done:  E(UB3LYP) =  -1615.52358490     A.U. after   14 cycles
 SCF Done:  E(UB3LYP) =  -1615.52330807     A.U. after   14 cycles
 SCF Done:  E(UB3LYP) =  -1615.52260901     A.U. after   14 cycles
 SCF Done:  E(UB3LYP) =  -1615.52392373     A.U. after    9 cycles
 SCF Done:  E(UB3LYP) =  -1615.52396899     A.U. after   14 cycles
 SCF Done:  E(UB3LYP) =  -1615.52420009     A.U. after   13 cycles
 SCF Done:  E(UB3LYP) =  -1615.52412514     A.U. after   14 cycles
 SCF Done:  E(UB3LYP) =  -1615.52424956     A.U. after   16 cycles
 SCF Done:  E(UB3LYP) =  -1615.52434259     A.U. after   14 cycles
 SCF Done:  E(UB3LYP) =  -1615.52435758     A.U. after   15 cycles
 SCF Done:  E(UB3LYP) =  -1615.52437364     A.U. after   14 cycles
 SCF Done:  E(UB3LYP) =  -1615.52437806     A.U. after   13 cycles
 SCF Done:  E(UB3LYP) =  -1615.52437813     A.U. after   13 cycles
 SCF Done:  E(UB3LYP) =  -1615.52437909     A.U. after   11 cycles
 SCF Done:  E(UB3LYP) =  -1615.52437918     A.U. after   10 cycles
 Optimization completed.
    -- Stationary point found.
 Normal termination of Gaussian 16 at Sat Feb 10 13:34:45 2024.

 ----------------------------------------------------------------------
 #P Geom=AllCheck Guess=TCheck SCRF=Check GenChk UB3LYP/6-311++G(d,p) F
 req
 ----------------------------------------------------------------------

 Structure from the checkpoint file:  "018-rad.chk"
 -------
 Radical
 -------
 Charge = -1 Multiplicity = 2

                          Input orientation:
 ---------------------------------------------------------------------
 Center     Atomic      Atomic             Coordinates (Angstroms)
 Number     Number       Type             X           Y           Z
 ---------------------------------------------------------------------
      1          6           0       -1.707472    0.363212    1.470340
      2          6           0       -2.843551    0.989893    0.772458
      3          6           0       -2.832225    0.837877   -0.595244
      4          6           0       -1.723022    0.298821   -1.384276
      5          6           0       -0.454035    0.008885   -0.694898
      6          6           0       -0.544074   -0.038008    0.677363
      7          8           0       -1.864685    0.096155   -2.617556
      8          8           0       -1.719461    0.174222    2.713962
      9         17           0        0.745465   -0.683258    1.720522
     10         17           0       -4.228621    1.211602   -1.634145
     11          6           0        0.781358   -0.252043   -1.604288
     12          6           0        0.900332    0.906819   -2.633582
     13          6           0        2.156076   -0.286823   -0.897312
     14          6           0        0.610658   -1.604589   -2.337762
     15          6           0       -3.908917    1.680463    1.672057
     16          6           0       -3.188218    2.653365    2.647181
     17          6           0       -4.952439    2.560383    0.945816
     18          6           0       -4.692242    0.607086    2.466577
     19          1           0        0.008877    1.008539   -3.245450
     20          1           0        1.754808    0.715483   -3.289696
     21          1           0        1.085587    1.854202   -2.117026
     22          1           0        2.320516    0.588879   -0.265974
     23          1           0        2.925534   -0.284075   -1.675234
     24          1           0        2.303522   -1.179488   -0.293757
     25          1           0        0.563687   -2.426958   -1.617122
     26          1           0        1.472302   -1.781666   -2.990338
     27          1           0       -0.294571   -1.615403   -2.942375
     28          1           0       -2.454024    2.147994    3.267796
     29          1           0       -3.932270    3.122787    3.297796
     30          1           0       -2.689429    3.450413    2.086267
     31          1           0       -4.488471    3.287828    0.276550
     32          1           0       -5.501932    3.116911    1.711063
     33          1           0       -5.677171    1.982011    0.377362
     34          1           0       -4.026594    0.006507    3.083993
     35          1           0       -5.232752   -0.055194    1.783151
     36          1           0       -5.430247    1.092872    3.113849
 ---------------------------------------------------------------------

 SCF Done:  E(UB3LYP) =  -1615.52437918     A.U. after    1 cycles

 Alpha  occ. eigenvalues -- -101.53908-101.53904 -19.07846 -19.07844 -10.23289
 Alpha  occ. eigenvalues --  -10.23288 -10.22409 -10.22404 -10.19112 -10.19110
 Alpha  occ. eigenvalues --  -10.18786 -10.18779 -10.14779 -10.14775 -10.14755
 Alpha  occ. eigenvalues --  -10.14749 -10.14488 -10.14488  -9.45424  -9.45419
 Alpha  occ. eigenvalues --   -7.21851  -7.21846  -7.20960  -7.20955  -7.20844
 Alpha  occ. eigenvalues --   -7.20838  -1.01126  -1.00802  -0.87001  -0.85917
 Alpha  occ. eigenvalues --   -0.81539  -0.81017  -0.78424  -0.72244  -0.67841
 Alpha  occ. eigenvalues --   -0.67828  -0.67382  -0.67328  -0.66873  -0.61658
 Alpha  occ. eigenvalues --   -0.55885  -0.54979  -0.53028  -0.50118  -0.46551
 Alpha  occ. eigenvalues --   -0.46344  -0.44083  -0.43441  -0.43163  -0.42925
 Alpha  occ. eigenvalues --   -0.42744  -0.42010  -0.41865  -0.40530  -0.40155
 Alpha  occ. eigenvalues --   -0.38787  -0.37952  -0.37630  -0.36747  -0.36493
 Alpha  occ. eigenvalues --   -0.35829  -0.35800  -0.34780  -0.34370  -0.33660
 Alpha  occ. eigenvalues --   -0.33151  -0.32722  -0.32561  -0.32541  -0.31961
 Alpha  occ. eigenvalues --   -0.29294  -0.29024  -0.27099  -0.24596  -0.23902
 Alpha  occ. eigenvalues --   -0.23756  -0.16144
 Alpha virt. eigenvalues --   -0.02125  -0.00645   0.00269   0.00967   0.00978
 Alpha virt. eigenvalues --    0.01707   0.02147   0.02530   0.02580   0.03080
 Alpha virt. eigenvalues --    0.03272   0.03978   0.04214   0.04641   0.04855

  Beta  occ. eigenvalues -- -101.53906-101.53902 -19.07191 -19.07188 -10.23137
  Beta  occ. eigenvalues --  -10.23136 -10.22290 -10.22286 -10.19119 -10.19117
  Beta  occ. eigenvalues --  -10.18672 -10.18664 -10.14780 -10.14776 -10.14748
  Beta  occ. eigenvalues --  -10.14742 -10.14481 -10.14481  -9.45422  -9.45417
  Beta  occ. eigenvalues --   -7.21857  -7.21852  -7.20946  -7.20940  -7.20843
  Beta  occ. eigenvalues --   -7.20837  -1.00017  -0.99655  -0.86642  -0.85793
  Beta  occ. eigenvalues --   -0.81432  -0.80913  -0.78141  -0.71985  -0.67817
  Beta  occ. eigenvalues --   -0.67803  -0.67343  -0.67317  -0.65960  -0.61357
  Beta  occ. eigenvalues --   -0.55466  -0.54891  -0.52824  -0.49909  -0.46343
  Beta  occ. eigenvalues --   -0.46244  -0.43523  -0.43284  -0.43042  -0.42845
  Beta  occ. eigenvalues --   -0.42413  -0.41754  -0.41236  -0.39981  -0.39292
  Beta  occ. eigenvalues --   -0.38652  -0.37452  -0.37401  -0.36329  -0.36305
  Beta  occ. eigenvalues --   -0.35713  -0.35623  -0.34639  -0.34264  -0.33211
  Beta  occ. eigenvalues --   -0.33041  -0.32542  -0.32083  -0.31894  -0.31389
  Beta  occ. eigenvalues --   -0.29253  -0.28934  -0.24628  -0.24018  -0.23258
  Beta  occ. eigenvalues --   -0.23182
  Beta virt. eigenvalues --   -0.09144  -0.01131  -0.00371   0.00280   0.01013
  Beta virt. eigenvalues --    0.01421   0.02001   0.02463   0.02594   0.03134
  Beta virt. eigenvalues --    0.03152   0.03925   0.03995   0.04242   0.04649

 Mulliken charges and spin densities:
               1          2
     1  C   -1.061429   0.086121
     2  C    0.784398   0.130718
     3  C   -0.386161   0.048222
     4  C   -1.082830   0.084656
     5  C    0.787849   0.132052
     6  C   -0.376521   0.047797
     7  O   -0.318427   0.238634
     8  O   -0.319681   0.238860
     9  Cl   0.502570   0.002966
    10  Cl   0.505520   0.002996
    11  C    0.587505  -0.027430
    12  C   -0.666533   0.009587
    13  C   -0.606473  -0.001050
    14  C   -0.693989   0.012268
    15  C    0.594391  -0.026653
    16  C   -0.666968   0.009537
    17  C   -0.608466  -0.001197
    18  C   -0.692737   0.012238
    19  H    0.171689  -0.000853
    20  H    0.150306   0.000015
    21  H    0.131308   0.000232
    22  H    0.145259   0.000294
    23  H    0.133752  -0.000148
    24  H    0.135249   0.000240
    25  H    0.139212   0.001031
    26  H    0.157047   0.000646
    27  H    0.194959  -0.001634
    28  H    0.172620  -0.000846
    29  H    0.150455   0.000030
    30  H    0.131272   0.000224
    31  H    0.145115   0.000304
    32  H    0.133923  -0.000155
    33  H    0.134844   0.000253
    34  H    0.194896  -0.001635
    35  H    0.139569   0.001043
    36  H    0.156507   0.000637
 Sum of Mulliken charges =  -1.00000   1.00000

 Dipole moment (field-independent basis, Debye):
    X=              8.6922    Y=             -0.4371    Z=             -0.2393  Tot=              8.7065
 Quadrupole moment (field-independent basis, Debye-Ang):
   XX=           -152.0527   YY=           -130.2514   ZZ=           -165.3478
   XY=              3.3784   XZ=             -9.0145   YZ=              2.8079

  Exact polarizability: 316.683 -41.421 228.360   4.908   2.030 376.593
 Approx polarizability: 318.055 -33.611 245.403  19.029  -2.545 435.883

                      1                      2                      3
                      A                      A                      A
 Frequencies --     21.2264                36.7107                44.2995
 Red. masses --      3.6489                 3.9672                 4.3383
 Frc consts  --      0.0010                 0.0032                 0.0050
 IR Inten    --      3.8074                 0.0833                 0.0193

                      4                      5                      6
                      A                      A                      A
 Frequencies --     71.1395                95.5900               175.2364
 Red. masses --      6.4164                 5.0260                 3.8913
 Frc consts  --      0.0191                 0.0271                 0.0704
 IR Inten    --      4.2540                 1.0109                 5.1547

                      7                      8                      9
                      A                      A                      A
 Frequencies --    182.6212               190.3998               208.3699
 Red. masses --      1.7357                 1.5582                 6.1277
 Frc consts  --      0.0341                 0.0333                 0.1568
 IR Inten    --      4.5118                 2.4393                 0.3101

                     10                     11                     12
                      A                      A                      A
 Frequencies --    225.6132               230.0531               232.6720
 Red. masses --      2.4842                 2.3383                 2.1355
 Frc consts  --      0.0745                 0.0729                 0.0681
 IR Inten    --      4.0804                 2.2728                 1.0312

                     13                     14                     15
                      A                      A                      A
 Frequencies --    241.6955               245.9396               261.3212
 Red. masses --      1.3274                 1.1079                 2.7941
 Frc consts  --      0.0457                 0.0395                 0.1124
 IR Inten    --      0.5153                 1.1540                 0.4537

                     16                     17                     18
                      A                      A                      A
 Frequencies --    299.4552               306.1920               312.2918
 Red. masses --      2.2559                22.7572                 2.2404
 Frc consts  --      0.1192                 1.2571                 0.1287
 IR Inten    --      1.0372                 0.0335                 2.0732

                     19                     20                     21
                      A                      A                      A
 Frequencies --    328.7713               336.2959               354.3114
 Red. masses --      2.8018                 3.1391                 9.0501
 Frc consts  --      0.1784                 0.2092                 0.6694
 IR Inten    --      1.0670                 8.8057                 4.8248

                     22                     23                     24
                      A                      A                      A
 Frequencies --    358.0368               371.4008               379.7685
 Red. masses --      2.8543                 1.3142                 1.7292
 Frc consts  --      0.2156                 0.1068                 0.1469
 IR Inten    --      0.0230                 1.3689                 0.9556

                     25                     26                     27
                      A                      A                      A
 Frequencies --    394.1857               403.1564               407.8006
 Red. masses --      4.3258                 2.5984                 3.9041
 Frc consts  --      0.3960                 0.2488                 0.3825
 IR Inten    --      6.7464                 0.0590                 2.3325

                     28                     29                     30
                      A                      A                      A
 Frequencies --    418.9577               443.4038               489.4842
 Red. masses --      2.2687                 2.4897                 8.6511
 Frc consts  --      0.2346                 0.2884                 1.2212
 IR Inten    --      1.4782                 8.4946                 0.3168

                     31                     32                     33
                      A                      A                      A
 Frequencies --    517.6432               546.0184               551.2431
 Red. masses --      4.9508                 3.5547                 2.6260
 Frc consts  --      0.7816                 0.6244                 0.4701
 IR Inten    --      4.0497                35.4513                 0.0025

                     34                     35                     36
                      A                      A                      A
 Frequencies --    621.0546               669.6307               735.8579
 Red. masses --      8.8062                 5.9279                 9.4618
 Frc consts  --      2.0012                 1.5661                 3.0186
 IR Inten    --      0.6954               143.7206                12.5346

                     37                     38                     39
                      A                      A                      A
 Frequencies --    741.6360               776.0039               776.3138
 Red. masses --      9.3301                 4.7147                10.3525
 Frc consts  --      3.0235                 1.6728                 3.6759
 IR Inten    --      6.8306                 0.0168                 4.0494

                     40                     41                     42
                      A                      A                      A
 Frequencies --    819.2467               855.9196               922.0314
 Red. masses --      3.1957                 4.4214                 3.4343
 Frc consts  --      1.2637                 1.9084                 1.7202
 IR Inten    --     97.6574                 2.1259               108.5490

                     43                     44                     45
                      A                      A                      A
 Frequencies --    924.1872               924.9377               929.8321
 Red. masses --      2.1840                 1.9651                 1.8331
 Frc consts  --      1.0991                 0.9905                 0.9338
 IR Inten    --     66.9236                27.0554                17.3737

                     46                     47                     48
                      A                      A                      A
 Frequencies --    930.8156               959.2615               959.7156
 Red. masses --      1.8387                 1.1986                 1.1979
 Frc consts  --      0.9386                 0.6498                 0.6501
 IR Inten    --     13.3055                 0.8991                 0.9722

                     49                     50                     51
                      A                      A                      A
 Frequencies --    975.5038              1033.5623              1045.2381
 Red. masses --      4.1169                 1.6192                 1.3683
 Frc consts  --      2.3082                 1.0191                 0.8808
 IR Inten    --      0.0095               126.3257                 0.1536

                     52                     53                     54
                      A                      A                      A
 Frequencies --   1046.0922              1050.9509              1102.8002
 Red. masses --      1.3672                 1.3813                 6.5321
 Frc consts  --      0.8815                 0.8989                 4.6806
 IR Inten    --      0.0873                 0.3474               174.4341

                     55                     56                     57
                      A                      A                      A
 Frequencies --   1118.3658              1207.5538              1209.9166
 Red. masses --      3.8717                 2.6147                 2.6208
 Frc consts  --      2.8531                 2.2464                 2.2604
 IR Inten    --    115.1201                 9.1284                 8.2070

                     58                     59                     60
                      A                      A                      A
 Frequencies --   1215.1827              1219.4329              1241.4325
 Red. masses --      2.6935                 2.5240                 2.6174
 Frc consts  --      2.3434                 2.2113                 2.3767
 IR Inten    --     13.1620                13.5655                 5.3764

                     61                     62                     63
                      A                      A                      A
 Frequencies --   1259.6710              1328.4147              1376.0541
 Red. masses --      3.2091                 8.2445                 1.2033
 Frc consts  --      3.0002                 8.5720                 1.3424
 IR Inten    --    136.1786                 0.6031                12.8294

                     64                     65                     66
                      A                      A                      A
 Frequencies --   1377.0339              1384.7046              1386.3821
 Red. masses --      1.2019                 1.2291                 1.2273
 Frc consts  --      1.3428                 1.3885                 1.3898
 IR Inten    --     15.4370               109.0169                 2.5551

                     67                     68                     69
                      A                      A                      A
 Frequencies --   1417.4600              1418.5433              1461.6625
 Red. masses --      1.2313                 1.2214                 8.1818
 Frc consts  --      1.4576                 1.4481                10.2990
 IR Inten    --     43.7268                 2.5167                29.2679

                     70                     71                     72
                      A                      A                      A
 Frequencies --   1469.3584              1469.6303              1477.3379
 Red. masses --      1.0606                 1.0517                 1.3854
 Frc consts  --      1.3491                 1.3383                 1.7815
 IR Inten    --     12.0952                 3.3149               442.1307

                     73                     74                     75
                      A                      A                      A
 Frequencies --   1482.4990              1486.1777              1487.1062
 Red. masses --      1.0950                 1.0858                 1.0935
 Frc consts  --      1.4179                 1.4131                 1.4248
 IR Inten    --      1.0677                24.2800                24.7165

                     76                     77                     78
                      A                      A                      A
 Frequencies --   1492.1697              1492.8817              1503.9652
 Red. masses --      1.0597                 1.0558                 1.1460
 Frc consts  --      1.3901                 1.3864                 1.5272
 IR Inten    --      8.3165                 4.6015                93.9114

                     79                     80                     81
                      A                      A                      A
 Frequencies --   1504.8935              1506.0838              1516.9092
 Red. masses --      1.3901                 1.2353                 1.8693
 Frc consts  --      1.8548                 1.6509                 2.5342
 IR Inten    --    286.8446               186.0134                 5.1023

                     82                     83                     84
                      A                      A                      A
 Frequencies --   1520.1357              1523.3879              1573.3241
 Red. masses --      1.7408                 1.2483                 9.5023
 Frc consts  --      2.3701                 1.7069                13.8585
 IR Inten    --      4.3111                62.7186                 6.1053

                     85                     86                     87
                      A                      A                      A
 Frequencies --   3014.0392              3014.2304              3019.0158
 Red. masses --      1.0392                 1.0392                 1.0411
 Frc consts  --      5.5624                 5.5628                 5.5908
 IR Inten    --     70.1361                96.9847                46.4683

                     88                     89                     90
                      A                      A                      A
 Frequencies --   3019.2753              3031.8325              3032.1839
 Red. masses --      1.0412                 1.0424                 1.0423
 Frc consts  --      5.5923                 5.6452                 5.6464
 IR Inten    --     25.7611               156.9845                45.8598

                     91                     92                     93
                      A                      A                      A
 Frequencies --   3068.6516              3068.7981              3071.3080
 Red. masses --      1.1012                 1.1013                 1.1004
 Frc consts  --      6.1095                 6.1105                 6.1158
 IR Inten    --     43.9686                47.3676               119.8816

                     94                     95                     96
                      A                      A                      A
 Frequencies --   3071.4329              3087.9914              3088.2350
 Red. masses --      1.1003                 1.0974                 1.0973
 Frc consts  --      6.1159                 6.1657                 6.1657
 IR Inten    --     14.5475               105.4964                79.9356

                     97                     98                     99
                      A                      A                      A
 Frequencies --   3130.5552              3130.7657              3135.4938
 Red. masses --      1.0972                 1.0972                 1.0986
 Frc consts  --      6.3354                 6.3365                 6.3636
 IR Inten    --     16.1192                14.8600                40.1397

                    100                    101                    102
                      A                      A                      A
 Frequencies --   3135.7052              3151.2396              3153.6160
 Red. masses --      1.0987                 1.0953                 1.0949
 Frc consts  --      6.3649                 6.4086                 6.4158
 IR Inten    --     40.2769                16.0849                14.5295

 - Thermochemistry -
 -------------------
 Temperature   298.150 Kelvin.  Pressure   1.00000 Atm.
 Atom     1 has atomic number  6 and mass  12.00000

 Molecular mass:   288.06839 amu.
 Principal axes and moments of inertia in atomic units:
                           1         2         3
     Eigenvalues --  3604.180246548.322929197.08098
           X            0.86108   0.35079   0.36807
           Y           -0.34966  -0.11704   0.92954
           Z           -0.36915   0.92911  -0.02188
 This molecule is an asymmetric top.
 Rotational symmetry number  1.
 Warning -- assumption of classical behavior for rotation
           may cause significant error
 Rotational temperatures (Kelvin)      0.02403     0.01323     0.00942
 Rotational constants (GHZ):           0.50074     0.27560     0.19623
 Zero-point vibrational energy     753850.4 (Joules/Mol)
                                  180.17456 (Kcal/Mol)
 Warning -- explicit consideration of  33 degrees of freedom as
           vibrations may cause significant error
 Vibrational temperatures:     30.54    52.82    63.74   102.35   137.53
          (Kelvin)            252.13   262.75   273.94   299.80   324.61
                              331.00   334.76   347.75   353.85   375.98
                              430.85   440.54   449.32   473.03   483.85
                              509.78   515.14   534.36   546.40   567.15
                              580.05   586.73   602.79   637.96   704.26
                              744.77   785.60   793.12   893.56   963.45
                             1058.74  1067.05  1116.50  1116.94  1178.71
                             1231.48  1326.60  1329.70  1330.78  1337.82
                             1339.24  1380.16  1380.82  1403.53  1487.07
                             1503.86  1505.09  1512.08  1586.68  1609.08
                             1737.40  1740.80  1748.38  1754.49  1786.14
                             1812.39  1911.29  1979.83  1981.24  1992.28
                             1994.69  2039.41  2040.97  2103.01  2114.08
                             2114.47  2125.56  2132.99  2138.28  2139.61
                             2146.90  2147.92  2163.87  2165.21  2166.92
                             2182.49  2187.14  2191.82  2263.66  4336.53
                             4336.81  4343.69  4344.06  4362.13  4362.64
                             4415.11  4415.32  4418.93  4419.11  4442.93
                             4443.28  4504.17  4504.47  4511.28  4511.58
                             4533.93  4537.35

 Zero-point correction=                           0.287126 (Hartree/Particle)
 Thermal correction to Energy=                    0.306656
 Thermal correction to Enthalpy=                  0.307600
 Thermal correction to Gibbs Free Energy=         0.238934
 Sum of electronic and zero-point Energies=          -1615.237253
 Sum of electronic and thermal Energies=             -1615.217723
 Sum of electronic and thermal Enthalpies=           -1615.216779
 Sum of electronic and thermal Free Energies=        -1615.285446

                     E (Thermal)             CV                S
                      KCal/Mol        Cal/Mol-Kelvin    Cal/Mol-Kelvin
 Total                  192.429             74.809            144.520
 Electronic               0.000              0.000              1.377
 Translational            0.889              2.981             42.872
 Rotational               0.889              2.981             33.739
 Vibrational            190.652             68.847             66.532
 Vibration     1          0.593              1.985              6.516
 Vibration     2          0.594              1.982              5.429
 Vibration     3          0.595              1.980              5.057
 Vibration     4          0.598              1.968              4.122
 Vibration     5          0.603              1.952              3.542
 Vibration     6          0.627              1.873              2.379
 Vibration     7          0.630              1.863              2.301
 Vibration     8          0.634              1.853              2.224
 Vibration     9          0.642              1.828              2.058
 Vibration    10          0.650              1.802              1.914
 Vibration    11          0.652              1.795              1.879
 Vibration    12          0.653              1.791              1.858
 Vibration    13          0.658              1.776              1.790
 Vibration    14          0.660              1.769              1.759
 Vibration    15          0.669              1.744              1.653
 Vibration    16          0.692              1.675              1.420
 Vibration    17          0.697              1.662              1.383
 Vibration    18          0.701              1.650              1.350
 Vibration    19          0.712              1.618              1.266
 Vibration    20          0.717              1.603              1.230
 Vibration    21          0.730              1.566              1.147
 Vibration    22          0.733              1.559              1.131
 Vibration    23          0.743              1.531              1.074
 Vibration    24          0.750              1.513              1.040
 Vibration    25          0.761              1.483              0.984
 Vibration    26          0.769              1.463              0.951
 Vibration    27          0.772              1.453              0.934
 Vibration    28          0.782              1.429              0.896
 Vibration    29          0.803              1.375              0.816
 Vibration    30          0.845              1.273              0.685
 Vibration    31          0.873              1.211              0.615
 Vibration    32          0.901              1.148              0.552
 Vibration    33          0.907              1.137              0.542

                           ! Non-Optimized Parameters !
 Normal termination of Gaussian 16 at Sat Feb 10 15:27:05 2024.
