 Gaussian 16, Revision A.03,
 Gaussian 16:  ES64L-G16RevA.03 25-Dec-2016

 ----------------------------------------------------------------------
 #P UB3LYP/6-311++G(d,p) nosym opt freq SCRF=(PCM,Solvent=n,n-DiMethylF
 ormamide)
 ----------------------------------------------------------------------

 -------
 Reduced
 -------
 Symbolic Z-matrix:
 Charge = -2 Multiplicity = 1

 SCF Done:  E(UB3LYP) =  -925.362646223     A.U. after   17 cycles
 SCF Done:  E(UB3LYP) =  -925.365200228     A.U. after   14 cycles
 SCF Done:  E(UB3LYP) =  -925.365569330     A.U. after   13 cycles
 SCF Done:  E(UB3LYP) =  -925.365596470     A.U. after   14 cycles
 SCF Done:  E(UB3LYP) =  -925.365621413     A.U. after   12 cycles
 SCF Done:  E(UB3LYP) =  -925.365627606     A.U. after   11 cycles
 SCF Done:  E(UB3LYP) =  -925.365629325     A.U. after   12 cycles
 SCF Done:  E(UB3LYP) =  -925.365630041     A.U. after   11 cycles
 SCF Done:  E(UB3LYP) =  -925.365630472     A.U. after   10 cycles
 SCF Done:  E(UB3LYP) =  -925.365630567     A.U. after   10 cycles
 SCF Done:  E(UB3LYP) =  -925.365630606     A.U. after   10 cycles
 Optimization completed.
    -- Stationary point found.
 Normal termination of Gaussian 16 at Sun Feb 11 04:41:30 2024.

 ----------------------------------------------------------------------
 #P Geom=AllCheck Guess=TCheck SCRF=Check GenChk UB3LYP/6-311++G(d,p) F
 req
 ----------------------------------------------------------------------

 Structure from the checkpoint file:  "286-an.chk"
 -------
 Reduced
 -------
 Charge = -2 Multiplicity = 1

                          Input orientation:
 ---------------------------------------------------------------------
 Center     Atomic      Atomic             Coordinates (Angstroms)
 Number     Number       Type             X           Y           Z
 ---------------------------------------------------------------------
      1          6           0       -0.250473    3.849062   -0.191227
      2          6           0       -1.482961    3.267424   -0.397757
      3          6           0       -1.569933    1.891189   -0.734257
      4          6           0        0.962288    3.108855   -0.304942
      5          6           0        0.875223    1.700970   -0.651331
      6          6           0       -0.411905    1.145844   -0.853615
      7          6           0        2.229834    3.719290   -0.086983
      8          6           0        3.346422    2.875754   -0.228997
      9          6           0        3.310705    1.508677   -0.562573
     10          6           0        2.060273    0.869018   -0.793573
     11          8           0        2.444802    4.993300    0.234318
     12          8           0        1.966969   -0.394510   -1.109712
     13          1           0       -0.178649    4.900478    0.067443
     14          1           0       -2.388140    3.860480   -0.302936
     15          1           0       -2.539561    1.430522   -0.896706
     16          1           0       -0.462300    0.093168   -1.111817
     17          8           0        4.554855    3.518005   -0.001491
     18          6           0        4.593653    0.720685   -0.682908
     19          6           0        5.229037    0.757089   -2.087573
     20          6           0        6.506514   -0.082006   -2.205289
     21          6           0        7.133241   -0.058277   -3.604379
     22          6           0        8.403569   -0.907584   -3.728994
     23          1           0        4.226427    4.426572    0.205239
     24          1           0        4.379893   -0.322643   -0.429113
     25          1           0        5.330330    1.092567    0.038733
     26          1           0        5.451220    1.797559   -2.354035
     27          1           0        4.493217    0.400825   -2.817799
     28          1           0        6.281845   -1.121052   -1.929149
     29          1           0        7.243695    0.274484   -1.473175
     30          1           0        7.364561    0.979367   -3.878889
     31          1           0        6.393243   -0.408846   -4.335847
     32          1           0        8.172428   -1.944739   -3.452559
     33          1           0        9.146553   -0.556161   -3.001000
     34          6           0        9.022416   -0.886662   -5.131257
     35          1           0        9.257628    0.149651   -5.407716
     36          1           0        8.278410   -1.234934   -5.859858
     37          6           0       10.288850   -1.740811   -5.260399
     38          6           0       10.897379   -1.713514   -6.665868
     39          1           0       10.054124   -2.776352   -4.984944
     40          1           0       11.033490   -1.393197   -4.533779
     41          1           0       10.187250   -2.087896   -7.410370
     42          1           0       11.797536   -2.332234   -6.724496
     43          1           0       11.174254   -0.694791   -6.956139
 ---------------------------------------------------------------------

 SCF Done:  E(UB3LYP) =  -925.365630606     A.U. after    1 cycles

 Alpha  occ. eigenvalues --  -19.10800 -19.02197 -19.01286 -10.17464 -10.16965
 Alpha  occ. eigenvalues --  -10.15896 -10.15833 -10.15596 -10.15513 -10.15363
 Alpha  occ. eigenvalues --  -10.15300 -10.15070 -10.14724 -10.14545 -10.14369
 Alpha  occ. eigenvalues --  -10.14356 -10.14268 -10.13933 -10.13724 -10.13263
 Alpha  occ. eigenvalues --  -10.12358  -1.01861  -0.92282  -0.91418  -0.82150
 Alpha  occ. eigenvalues --   -0.80405  -0.78369  -0.76547  -0.74057  -0.71983
 Alpha  occ. eigenvalues --   -0.71001  -0.67811  -0.64538  -0.62553  -0.59305
 Alpha  occ. eigenvalues --   -0.57902  -0.57115  -0.56645  -0.55271  -0.53241
 Alpha  occ. eigenvalues --   -0.49946  -0.47717  -0.46897  -0.45536  -0.44220
 Alpha  occ. eigenvalues --   -0.43027  -0.42644  -0.42009  -0.41326  -0.41234
 Alpha  occ. eigenvalues --   -0.39841  -0.39042  -0.38905  -0.37949  -0.37226
 Alpha  occ. eigenvalues --   -0.36336  -0.35559  -0.34887  -0.34669  -0.34612
 Alpha  occ. eigenvalues --   -0.34473  -0.33748  -0.32654  -0.32259  -0.31739
 Alpha  occ. eigenvalues --   -0.31674  -0.31496  -0.30735  -0.30623  -0.29809
 Alpha  occ. eigenvalues --   -0.29072  -0.28929  -0.22682  -0.21957  -0.20991
 Alpha  occ. eigenvalues --   -0.19235  -0.18860  -0.11097
 Alpha virt. eigenvalues --   -0.00384  -0.00151   0.00164   0.00874   0.01124
 Alpha virt. eigenvalues --    0.01314   0.01835   0.01968   0.02088   0.02744
 Alpha virt. eigenvalues --    0.03059   0.03693   0.04242   0.04550   0.04818

  Beta  occ. eigenvalues --  -19.10800 -19.02197 -19.01286 -10.17464 -10.16965
  Beta  occ. eigenvalues --  -10.15896 -10.15833 -10.15596 -10.15513 -10.15363
  Beta  occ. eigenvalues --  -10.15300 -10.15070 -10.14724 -10.14545 -10.14369
  Beta  occ. eigenvalues --  -10.14356 -10.14268 -10.13933 -10.13724 -10.13263
  Beta  occ. eigenvalues --  -10.12358  -1.01861  -0.92282  -0.91418  -0.82150
  Beta  occ. eigenvalues --   -0.80405  -0.78369  -0.76547  -0.74057  -0.71983
  Beta  occ. eigenvalues --   -0.71001  -0.67811  -0.64538  -0.62553  -0.59305
  Beta  occ. eigenvalues --   -0.57902  -0.57115  -0.56645  -0.55271  -0.53241
  Beta  occ. eigenvalues --   -0.49946  -0.47717  -0.46897  -0.45536  -0.44220
  Beta  occ. eigenvalues --   -0.43027  -0.42644  -0.42009  -0.41326  -0.41234
  Beta  occ. eigenvalues --   -0.39841  -0.39042  -0.38905  -0.37949  -0.37226
  Beta  occ. eigenvalues --   -0.36336  -0.35559  -0.34887  -0.34669  -0.34612
  Beta  occ. eigenvalues --   -0.34473  -0.33748  -0.32654  -0.32259  -0.31739
  Beta  occ. eigenvalues --   -0.31674  -0.31496  -0.30735  -0.30623  -0.29809
  Beta  occ. eigenvalues --   -0.29072  -0.28929  -0.22682  -0.21957  -0.20991
  Beta  occ. eigenvalues --   -0.19235  -0.18860  -0.11097
  Beta virt. eigenvalues --   -0.00384  -0.00151   0.00164   0.00874   0.01124
  Beta virt. eigenvalues --    0.01314   0.01835   0.01968   0.02088   0.02744
  Beta virt. eigenvalues --    0.03059   0.03693   0.04242   0.04550   0.04818

 Mulliken charges and spin densities:
               1          2
     1  C   -0.116699  -0.000000
     2  C   -0.370459   0.000000
     3  C   -0.482158  -0.000000
     4  C    0.525749  -0.000000
     5  C   -0.048122   0.000000
     6  C   -0.008041   0.000000
     7  C   -1.020887  -0.000000
     8  C   -0.688571   0.000000
     9  C    2.026017   0.000000
    10  C   -0.767434   0.000000
    11  O   -0.756925   0.000000
    12  O   -0.675864  -0.000000
    13  H    0.143274   0.000000
    14  H    0.155462  -0.000000
    15  H    0.149979   0.000000
    16  H    0.146052  -0.000000
    17  O   -0.336138  -0.000000
    18  C   -0.287633  -0.000000
    19  C   -0.710278  -0.000000
    20  C   -0.123855   0.000000
    21  C    0.033555  -0.000000
    22  C   -0.129095  -0.000000
    23  H    0.273525   0.000000
    24  H    0.182590   0.000000
    25  H    0.192113   0.000000
    26  H    0.155509  -0.000000
    27  H    0.169608   0.000000
    28  H    0.104721  -0.000000
    29  H    0.110020  -0.000000
    30  H    0.123324   0.000000
    31  H    0.119137   0.000000
    32  H    0.127383   0.000000
    33  H    0.127232  -0.000000
    34  C   -0.338006   0.000000
    35  H    0.123171  -0.000000
    36  H    0.123201  -0.000000
    37  C   -0.250717   0.000000
    38  C   -0.686463   0.000000
    39  H    0.130408  -0.000000
    40  H    0.130450  -0.000000
    41  H    0.139942   0.000000
    42  H    0.145183  -0.000000
    43  H    0.139741  -0.000000
 Sum of Mulliken charges =  -2.00000  -0.00000

 Dipole moment (field-independent basis, Debye):
    X=            -20.0775    Y=            -21.9931    Z=              4.4272  Tot=             30.1065
 Quadrupole moment (field-independent basis, Debye-Ang):
   XX=           -200.6136   YY=           -239.4865   ZZ=           -148.1411
   XY=            -48.5135   XZ=              9.4491   YZ=             -2.1313

  Exact polarizability: 474.378 -16.723 381.104  -3.546  36.913 257.220
 Approx polarizability: 512.694  -2.271 429.630  13.002  40.133 271.360

                      1                      2                      3
                      A                      A                      A
 Frequencies --     19.5981                25.0668                30.1648
 Red. masses --      5.1599                 4.5212                 1.5785
 Frc consts  --      0.0012                 0.0017                 0.0008
 IR Inten    --      0.5895                 0.9182                 0.2191

                      4                      5                      6
                      A                      A                      A
 Frequencies --     51.5937                66.6409                92.7211
 Red. masses --      4.0727                 4.3917                 1.8237
 Frc consts  --      0.0064                 0.0115                 0.0092
 IR Inten    --      3.9314                 6.9936                 2.5446

                      7                      8                      9
                      A                      A                      A
 Frequencies --    101.1831               113.2253               126.8961
 Red. masses --      2.9971                 4.0244                 4.4271
 Frc consts  --      0.0181                 0.0304                 0.0420
 IR Inten    --      5.7448                 6.2029                 3.4583

                     10                     11                     12
                      A                      A                      A
 Frequencies --    148.8859               156.0496               159.3157
 Red. masses --      1.7811                 2.7601                 3.2905
 Frc consts  --      0.0233                 0.0396                 0.0492
 IR Inten    --      0.0591                 1.2727                 1.5902

                     13                     14                     15
                      A                      A                      A
 Frequencies --    169.0660               181.8174               242.3384
 Red. masses --      4.4955                 7.6099                 1.1217
 Frc consts  --      0.0757                 0.1482                 0.0388
 IR Inten    --      0.7977                 3.5288                 0.0157

                     16                     17                     18
                      A                      A                      A
 Frequencies --    250.5646               265.1731               299.3399
 Red. masses --      4.7697                 4.2330                 2.7169
 Frc consts  --      0.1764                 0.1754                 0.1434
 IR Inten    --     14.9117                 0.3638                 3.1664

                     19                     20                     21
                      A                      A                      A
 Frequencies --    310.7900               324.3320               345.4100
 Red. masses --      4.1564                 4.5338                 5.9411
 Frc consts  --      0.2365                 0.2810                 0.4176
 IR Inten    --      9.1460                22.0813                10.2479

                     22                     23                     24
                      A                      A                      A
 Frequencies --    360.2807               389.9941               435.5154
 Red. masses --      8.0327                 6.1811                 3.5261
 Frc consts  --      0.6143                 0.5539                 0.3941
 IR Inten    --      2.9988                 4.6074                 2.8113

                     25                     26                     27
                      A                      A                      A
 Frequencies --    439.5311               463.5250               474.4563
 Red. masses --      8.3539                 3.2326                 4.1147
 Frc consts  --      0.9509                 0.4092                 0.5457
 IR Inten    --      7.4920                 3.3425                 4.7656

                     28                     29                     30
                      A                      A                      A
 Frequencies --    497.0596               530.2257               561.3496
 Red. masses --      4.6295                 6.0995                 5.0542
 Frc consts  --      0.6739                 1.0103                 0.9384
 IR Inten    --      4.2926                 1.5560                 5.3433

                     31                     32                     33
                      A                      A                      A
 Frequencies --    635.8330               666.7202               687.4867
 Red. masses --      6.1096                 5.4164                 3.0989
 Frc consts  --      1.4553                 1.4186                 0.8630
 IR Inten    --     65.6111                 7.4654                 3.3984

                     34                     35                     36
                      A                      A                      A
 Frequencies --    693.2016               704.7470               726.0941
 Red. masses --      3.0330                 2.8807                 1.1601
 Frc consts  --      0.8587                 0.8430                 0.3604
 IR Inten    --     90.1556                 7.3990                28.7717

                     37                     38                     39
                      A                      A                      A
 Frequencies --    727.9931               730.3525               746.9738
 Red. masses --      1.3524                 1.1293                 1.2169
 Frc consts  --      0.4223                 0.3549                 0.4001
 IR Inten    --    140.6134                 8.9444                 0.5561

                     40                     41                     42
                      A                      A                      A
 Frequencies --    753.3907               775.8811               787.3474
 Red. masses --      2.1635                 3.5239                 1.3225
 Frc consts  --      0.7235                 1.2499                 0.4830
 IR Inten    --     29.5639                 8.0974                 8.0425

                     43                     44                     45
                      A                      A                      A
 Frequencies --    841.3596               841.5645               889.6517
 Red. masses --      1.6474                 1.4725                 1.8770
 Frc consts  --      0.6871                 0.6145                 0.8753
 IR Inten    --     27.4139                 1.2733                58.2548

                     46                     47                     48
                      A                      A                      A
 Frequencies --    893.2974               927.9187               951.3661
 Red. masses --      1.9920                 4.9279                 1.4665
 Frc consts  --      0.9365                 2.4999                 0.7821
 IR Inten    --      8.6904                60.4400                 2.8119

                     49                     50                     51
                      A                      A                      A
 Frequencies --    965.2076               972.7353               986.1495
 Red. masses --      1.3431                 1.2386                 4.5254
 Frc consts  --      0.7372                 0.6905                 2.5929
 IR Inten    --      4.2104                 0.2965                14.4797

                     52                     53                     54
                      A                      A                      A
 Frequencies --   1000.4338              1016.6440              1018.5523
 Red. masses --      3.9657                 1.9683                 1.8948
 Frc consts  --      2.3386                 1.1986                 1.1582
 IR Inten    --     91.8317                44.2382                95.3159

                     55                     56                     57
                      A                      A                      A
 Frequencies --   1037.2062              1043.4809              1053.2691
 Red. masses --      2.1829                 2.5204                 2.8685
 Frc consts  --      1.3836                 1.6169                 1.8749
 IR Inten    --    157.9974               195.3782                 5.4336

                     58                     59                     60
                      A                      A                      A
 Frequencies --   1061.5912              1066.5541              1094.4606
 Red. masses --      2.3705                 2.3058                 2.4003
 Frc consts  --      1.5740                 1.5454                 1.6940
 IR Inten    --      0.6408                 3.3511                78.5714

                     61                     62                     63
                      A                      A                      A
 Frequencies --   1112.2189              1126.9527              1133.8603
 Red. masses --      1.8513                 1.6552                 2.6263
 Frc consts  --      1.3493                 1.2386                 1.9894
 IR Inten    --    164.7414                15.5186                 8.0981

                     64                     65                     66
                      A                      A                      A
 Frequencies --   1160.1700              1178.3722              1207.4179
 Red. masses --      2.0031                 1.8740                 1.7378
 Frc consts  --      1.5885                 1.5331                 1.4927
 IR Inten    --     55.3842               102.1709                 2.8167

                     67                     68                     69
                      A                      A                      A
 Frequencies --   1231.7118              1233.6064              1253.5459
 Red. masses --      2.5078                 1.2612                 1.4945
 Frc consts  --      2.2416                 1.1308                 1.3836
 IR Inten    --    215.4741                 1.3897                50.5419

                     70                     71                     72
                      A                      A                      A
 Frequencies --   1275.6305              1283.9341              1296.4013
 Red. masses --      1.6562                 1.6032                 1.3885
 Frc consts  --      1.5879                 1.5571                 1.3749
 IR Inten    --     65.3790                18.4093               124.5681

                     73                     74                     75
                      A                      A                      A
 Frequencies --   1315.1918              1319.0208              1322.0214
 Red. masses --      5.1780                 1.2848                 1.0651
 Frc consts  --      5.2771                 1.3170                 1.0968
 IR Inten    --    476.7708               152.7481                15.8803

                     76                     77                     78
                      A                      A                      A
 Frequencies --   1326.0239              1329.8329              1332.1837
 Red. masses --      1.2864                 1.0735                 1.1848
 Frc consts  --      1.3327                 1.1185                 1.2389
 IR Inten    --      7.2555                 4.6477                40.5092

                     79                     80                     81
                      A                      A                      A
 Frequencies --   1342.8559              1357.1144              1373.0207
 Red. masses --      1.4948                 1.5939                 1.8486
 Frc consts  --      1.5881                 1.7296                 2.0533
 IR Inten    --     99.3680                40.2956               317.1124

                     82                     83                     84
                      A                      A                      A
 Frequencies --   1381.4644              1389.3978              1394.3381
 Red. masses --      3.3133                 1.5815                 1.6149
 Frc consts  --      3.7256                 1.7988                 1.8498
 IR Inten    --   1150.2071                 0.2155                 1.8982

                     85                     86                     87
                      A                      A                      A
 Frequencies --   1403.1437              1420.0081              1435.5980
 Red. masses --      1.2590                 4.8489                 2.5101
 Frc consts  --      1.4605                 5.7606                 3.0480
 IR Inten    --      2.4792                82.0283               108.9030

                     88                     89                     90
                      A                      A                      A
 Frequencies --   1458.3735              1459.8546              1470.0510
 Red. masses --      1.8966                 1.3753                 1.0724
 Frc consts  --      2.3766                 1.7269                 1.3654
 IR Inten    --     31.1122                43.0763                 0.4535

                     91                     92                     93
                      A                      A                      A
 Frequencies --   1471.5554              1476.8026              1484.3827
 Red. masses --      1.0726                 1.0763                 1.0803
 Frc consts  --      1.3684                 1.3830                 1.4025
 IR Inten    --      0.9621                 1.1604                 1.4051

                     94                     95                     96
                      A                      A                      A
 Frequencies --   1487.4621              1492.8349              1500.8407
 Red. masses --      1.0401                 1.0888                 1.0953
 Frc consts  --      1.3559                 1.4296                 1.4536
 IR Inten    --     10.2903                 2.7006                 0.5973

                     97                     98                     99
                      A                      A                      A
 Frequencies --   1506.6903              1516.2103              1543.9719
 Red. masses --      1.0983                 4.2386                 5.2360
 Frc consts  --      1.4690                 5.7410                 7.3541
 IR Inten    --     21.0186                 6.3413               295.7385

                    100                    101                    102
                      A                      A                      A
 Frequencies --   1594.5537              1612.3034              2984.1568
 Red. masses --      5.2461                 5.8324                 1.0573
 Frc consts  --      7.8589                 8.9328                 5.5475
 IR Inten    --    145.8032                11.6816                15.5684

                    103                    104                    105
                      A                      A                      A
 Frequencies --   2987.6231              2988.7615              2994.6614
 Red. masses --      1.0576                 1.0576                 1.0590
 Frc consts  --      5.5621                 5.5663                 5.5956
 IR Inten    --      0.9457                 0.7169               117.0473

                    106                    107                    108
                      A                      A                      A
 Frequencies --   3000.9933              3002.2831              3002.7060
 Red. masses --      1.0952                 1.0597                 1.0606
 Frc consts  --      5.8111                 5.6277                 5.6341
 IR Inten    --      1.5360               162.0541                25.8845

                    109                    110                    111
                      A                      A                      A
 Frequencies --   3005.5492              3009.7860              3012.7346
 Red. masses --      1.0971                 1.0659                 1.0355
 Frc consts  --      5.8390                 5.6890                 5.5374
 IR Inten    --     18.0322               206.6435                58.3646

                    112                    113                    114
                      A                      A                      A
 Frequencies --   3016.2466              3028.4877              3035.8400
 Red. masses --      1.1002                 1.1029                 1.1023
 Frc consts  --      5.8975                 5.9597                 5.9854
 IR Inten    --     15.5695                 8.2821                 6.3717

                    115                    116                    117
                      A                      A                      A
 Frequencies --   3041.7037              3056.8713              3071.3686
 Red. masses --      1.1052                 1.1051                 1.1026
 Frc consts  --      6.0247                 6.0840                 6.1283
 IR Inten    --    244.8573               162.5450               118.3351

                    118                    119                    120
                      A                      A                      A
 Frequencies --   3076.1487              3134.4554              3149.5324
 Red. masses --      1.1011                 1.0842                 1.0876
 Frc consts  --      6.1390                 6.2757                 6.3566
 IR Inten    --     73.7546                14.9854                22.0911

                    121                    122                    123
                      A                      A                      A
 Frequencies --   3163.2291              3169.2811              3378.7308
 Red. masses --      1.0914                 1.0948                 1.0637
 Frc consts  --      6.4341                 6.4788                 7.1548
 IR Inten    --     59.3866                76.3933               268.9127

 - Thermochemistry -
 -------------------
 Temperature   298.150 Kelvin.  Pressure   1.00000 Atm.
 Atom     1 has atomic number  6 and mass  12.00000

 Molecular mass:   286.15689 amu.
 Principal axes and moments of inertia in atomic units:
                           1         2         3
     Eigenvalues --  2491.17133********************
           X            0.82537   0.52457   0.20877
           Y           -0.36968   0.78161  -0.50242
           Z           -0.42673   0.33751   0.83904
 This molecule is an asymmetric top.
 Rotational symmetry number  1.
 Warning -- assumption of classical behavior for rotation
           may cause significant error
 Rotational temperatures (Kelvin)      0.03477     0.00430     0.00401
 Rotational constants (GHZ):           0.72445     0.08961     0.08365
 Zero-point vibrational energy     940573.7 (Joules/Mol)
                                  224.80252 (Kcal/Mol)
 Warning -- explicit consideration of  30 degrees of freedom as
           vibrations may cause significant error
 Vibrational temperatures:     28.20    36.07    43.40    74.23    95.88
          (Kelvin)            133.40   145.58   162.91   182.58   214.21
                              224.52   229.22   243.25   261.59   348.67
                              360.51   381.52   430.68   447.16   466.64
                              496.97   518.36   561.11   626.61   632.39
                              666.91   682.64   715.16   762.88   807.66
                              914.82   959.26   989.14   997.36  1013.97
                             1044.69  1047.42  1050.81  1074.73  1083.96
                             1116.32  1132.82  1210.53  1210.82  1280.01
                             1285.26  1335.07  1368.80  1388.72  1399.55
                             1418.85  1439.40  1462.72  1465.47  1492.31
                             1501.34  1515.42  1527.39  1534.53  1574.68
                             1600.23  1621.43  1631.37  1669.23  1695.41
                             1737.21  1772.16  1774.88  1803.57  1835.35
                             1847.29  1865.23  1892.27  1897.78  1902.09
                             1907.85  1913.33  1916.72  1932.07  1952.58
                             1975.47  1987.62  1999.03  2006.14  2018.81
                             2043.07  2065.51  2098.27  2100.41  2115.08
                             2117.24  2124.79  2135.70  2140.13  2147.86
                             2159.38  2167.79  2181.49  2221.43  2294.21
                             2319.74  4293.54  4298.52  4300.16  4308.65
                             4317.76  4319.62  4320.22  4324.31  4330.41
                             4334.65  4339.71  4357.32  4367.90  4376.33
                             4398.16  4419.01  4425.89  4509.78  4531.47
                             4551.18  4559.89  4861.24

 Zero-point correction=                           0.358246 (Hartree/Particle)
 Thermal correction to Energy=                    0.379133
 Thermal correction to Enthalpy=                  0.380077
 Thermal correction to Gibbs Free Energy=         0.306206
 Sum of electronic and zero-point Energies=           -925.007385
 Sum of electronic and thermal Energies=              -924.986498
 Sum of electronic and thermal Enthalpies=            -924.985553
 Sum of electronic and thermal Free Energies=         -925.059424

                     E (Thermal)             CV                S
                      KCal/Mol        Cal/Mol-Kelvin    Cal/Mol-Kelvin
 Total                  237.910             79.028            155.475
 Electronic               0.000              0.000              0.000
 Translational            0.889              2.981             42.852
 Rotational               0.889              2.981             35.336
 Vibrational            236.132             73.066             77.287
 Vibration     1          0.593              1.986              6.675
 Vibration     2          0.593              1.985              6.186
 Vibration     3          0.594              1.984              5.819
 Vibration     4          0.596              1.977              4.755
 Vibration     5          0.598              1.970              4.250
 Vibration     6          0.602              1.954              3.602
 Vibration     7          0.604              1.948              3.431
 Vibration     8          0.607              1.938              3.213
 Vibration     9          0.611              1.926              2.993
 Vibration    10          0.618              1.904              2.686
 Vibration    11          0.620              1.896              2.597
 Vibration    12          0.621              1.892              2.558
 Vibration    13          0.625              1.881              2.446
 Vibration    14          0.630              1.864              2.310
 Vibration    15          0.659              1.775              1.786
 Vibration    16          0.663              1.762              1.727
 Vibration    17          0.671              1.737              1.627
 Vibration    18          0.692              1.675              1.421
 Vibration    19          0.700              1.653              1.358
 Vibration    20          0.709              1.627              1.288
 Vibration    21          0.724              1.585              1.187
 Vibration    22          0.735              1.554              1.121
 Vibration    23          0.758              1.492              1.000
 Vibration    24          0.796              1.393              0.841
 Vibration    25          0.800              1.384              0.828
 Vibration    26          0.821              1.331              0.756
 Vibration    27          0.831              1.307              0.725
 Vibration    28          0.853              1.257              0.666
 Vibration    29          0.885              1.183              0.587
 Vibration    30          0.917              1.115              0.521

                           ! Non-Optimized Parameters !
 Normal termination of Gaussian 16 at Sun Feb 11 07:14:04 2024.
