 Q-Chem 5.4, Q-Chem, Inc., Pleasanton, CA (2021)
 Q-Chem 5.4.0 for Intel X86 EM64T Linux

User input:
--------------------------------------------------------------
$molecule
-2 1
C                 -2.3182210000     -2.3047810000      5.0470880000
C                 -1.3621410000     -3.2331690000      4.5136980000
C                 -1.3290430000     -3.5024040000      3.1389410000
C                 -2.2075660000     -2.8976640000      2.1748980000
C                 -3.1669520000     -1.9807900000      2.7255930000
C                 -3.2270780000     -1.7023690000      4.0856570000
O                 -2.4094130000     -1.9638320000      6.3023200000
O                 -2.1358370000     -3.1610050000      0.9160540000
N                 -4.1505670000     -0.8339950000      4.6792470000
C                 -4.8544100000      0.2196600000      3.9819680000
C                 -6.1795920000     -0.2817030000      3.3711670000
C                 -5.1204480000      1.3835460000      4.9462150000
H                 -3.8474230000     -1.5056420000      2.0244230000
H                 -3.8587710000     -0.6608910000      5.6380880000
H                 -4.2299790000      0.5941100000      3.1519970000
H                 -6.6587220000      0.5029610000      2.7689710000
H                 -6.8718880000     -0.5747130000      4.1684900000
H                 -6.0058290000     -1.1527260000      2.7353880000
H                 -5.7307460000      2.1612520000      4.4801200000
H                 -4.1832830000      1.8399640000      5.2828700000
H                 -5.6629670000      1.0268980000      5.8307960000
C                 -0.3820570000     -3.9135670000      5.4923630000
C                 -1.1790160000     -4.7084020000      6.5559360000
C                  0.5828040000     -4.8952050000      4.7993650000
C                  0.4738910000     -2.8365400000      6.2044060000
H                 -0.6116820000     -4.2035330000      2.7247880000
H                 -1.8802550000     -4.0385890000      7.0571920000
H                 -0.5019010000     -5.1565680000      7.2999660000
H                 -1.7429910000     -5.5167960000      6.0766870000
H                  1.2479210000     -5.3447770000      5.5491980000
H                  1.2041910000     -4.3915520000      4.0526000000
H                  0.0437590000     -5.7029320000      4.2949550000
H                 -0.1857970000     -2.1239480000      6.7028240000
H                  1.0873410000     -2.2989850000      5.4723880000
H                  1.1471450000     -3.2969450000      6.9447270000
$end

$rem
BASIS  =  6-311++G(d,p)
GUI  =  2
JOB_TYPE  =  SP
METHOD  =  B3LYP
SCF_CONVERGENCE  = 8
SOLVENT_METHOD = sm12
$end

$smx
solvent dimethylformamide
charges CM5
$end

--------------------------------------------------------------

             Standard Nuclear Orientation (Angstroms)
    I     Atom           X                Y                Z
 ----------------------------------------------------------------
    1      C      -2.3182210000    -2.3047810000     5.0470880000
    2      C      -1.3621410000    -3.2331690000     4.5136980000
    3      C      -1.3290430000    -3.5024040000     3.1389410000
    4      C      -2.2075660000    -2.8976640000     2.1748980000
    5      C      -3.1669520000    -1.9807900000     2.7255930000
    6      C      -3.2270780000    -1.7023690000     4.0856570000
    7      O      -2.4094130000    -1.9638320000     6.3023200000
    8      O      -2.1358370000    -3.1610050000     0.9160540000
    9      N      -4.1505670000    -0.8339950000     4.6792470000
   10      C      -4.8544100000     0.2196600000     3.9819680000
   11      C      -6.1795920000    -0.2817030000     3.3711670000
   12      C      -5.1204480000     1.3835460000     4.9462150000
   13      H      -3.8474230000    -1.5056420000     2.0244230000
   14      H      -3.8587710000    -0.6608910000     5.6380880000
   15      H      -4.2299790000     0.5941100000     3.1519970000
   16      H      -6.6587220000     0.5029610000     2.7689710000
   17      H      -6.8718880000    -0.5747130000     4.1684900000
   18      H      -6.0058290000    -1.1527260000     2.7353880000
   19      H      -5.7307460000     2.1612520000     4.4801200000
   20      H      -4.1832830000     1.8399640000     5.2828700000
   21      H      -5.6629670000     1.0268980000     5.8307960000
   22      C      -0.3820570000    -3.9135670000     5.4923630000
   23      C      -1.1790160000    -4.7084020000     6.5559360000
   24      C       0.5828040000    -4.8952050000     4.7993650000
   25      C       0.4738910000    -2.8365400000     6.2044060000
   26      H      -0.6116820000    -4.2035330000     2.7247880000
   27      H      -1.8802550000    -4.0385890000     7.0571920000
   28      H      -0.5019010000    -5.1565680000     7.2999660000
   29      H      -1.7429910000    -5.5167960000     6.0766870000
   30      H       1.2479210000    -5.3447770000     5.5491980000
   31      H       1.2041910000    -4.3915520000     4.0526000000
   32      H       0.0437590000    -5.7029320000     4.2949550000
   33      H      -0.1857970000    -2.1239480000     6.7028240000
   34      H       1.0873410000    -2.2989850000     5.4723880000
   35      H       1.1471450000    -3.2969450000     6.9447270000
 ----------------------------------------------------------------

   18    -712.1647096343      7.59e-09  Convergence criterion met
 Total energy in the final basis set =     -712.4594156131

                    Orbital Energies (a.u.)
 --------------------------------------------------------------

 Alpha MOs
 -- Occupied --
-19.0167 -19.0148 -14.2984 -10.2121 -10.1867 -10.1752 -10.1722 -10.1704
-10.1676 -10.1673 -10.1671 -10.1593 -10.1592 -10.1383 -10.1283 -10.1208
 -0.9416  -0.9283  -0.9041  -0.8214  -0.7883  -0.7569  -0.7011  -0.6926
 -0.6891  -0.6867  -0.6439  -0.6081  -0.5741  -0.5520  -0.5181  -0.4866
 -0.4729  -0.4579  -0.4456  -0.4414  -0.4408  -0.4353  -0.4147  -0.4058
 -0.3995  -0.3914  -0.3903  -0.3751  -0.3722  -0.3688  -0.3567  -0.3520
 -0.3516  -0.3456  -0.3347  -0.3327  -0.3262  -0.3122  -0.3108  -0.2698
 -0.2214  -0.1977  -0.1910  -0.1901  -0.1121

          Ground-State Mulliken Net Atomic Charges

     Atom                 Charge (a.u.)
  ----------------------------------------
      1 C                    -2.224016
      2 C                     0.226683
      3 C                    -1.431063
      4 C                    -2.539495
      5 C                    -0.697047
      6 C                     0.053789
      7 O                    -0.250830
      8 O                    -0.432613
      9 N                     0.050152
     10 C                    -0.435365
     11 C                     0.088720
     12 C                     1.001202
     13 H                    -0.373297
     14 H                     0.231832
     15 H                     0.038285
     16 H                     0.357881
     17 H                     0.104962
     18 H                     0.223730
     19 H                     0.362275
     20 H                     0.165950
     21 H                     0.253490
     22 C                     1.275395
     23 C                    -0.157071
     24 C                     0.807697
     25 C                    -0.134615
     26 H                    -0.234724
     27 H                     0.083984
     28 H                     0.337950
     29 H                     0.047939
     30 H                     0.517290
     31 H                     0.098191
     32 H                     0.092413
     33 H                     0.103712
     34 H                     0.047024
     35 H                     0.339590
  ----------------------------------------
  Sum of atomic charges =    -2.000000

                    Cartesian Multipole Moments
 -----------------------------------------------------------------
    Charge (ESU x 10^10)
                -9.6064
    Dipole Moment (Debye)
         X      20.7077      Y      26.7797      Z     -34.1141
       Tot      48.0597
    Quadrupole Moments (Debye-Ang)
        XX    -171.2669     XY     -51.0127     YY    -194.3673
        XZ      71.1596     YZ      89.1021     ZZ    -290.9656

 Total job time:  1142.70s(wall), 8780.18s(cpu)
        *  Thank you very much for using Q-Chem.  Have a nice day.  *
