 Gaussian 16, Revision A.03,
 Gaussian 16:  ES64L-G16RevA.03 25-Dec-2016

 --------------------------------------
 #P UB3LYP/6-311++G(d,p) nosym opt freq
 --------------------------------------

 -------
 Reduced
 -------
 Symbolic Z-matrix:
 Charge = -2 Multiplicity = 1

 SCF Done:  E(UB3LYP) =  -712.187479041     A.U. after   36 cycles
 SCF Done:  E(UB3LYP) =  -712.187479008     A.U. after   25 cycles
 SCF Done:  E(UB3LYP) =  -712.187478884     A.U. after   28 cycles
 SCF Done:  E(UB3LYP) =  -712.187479076     A.U. after   27 cycles
 Optimization completed.
    -- Stationary point found.
 Normal termination of Gaussian 16 at Wed Jan 10 18:06:25 2024.

 ----------------------------------------------------------------------
 #P Geom=AllCheck Guess=TCheck SCRF=Check GenChk UB3LYP/6-311++G(d,p) F
 req
 ----------------------------------------------------------------------

 Structure from the checkpoint file:  "104-an.chk"
 -------
 Reduced
 -------
 Charge = -2 Multiplicity = 1

                          Input orientation:
 ---------------------------------------------------------------------
 Center     Atomic      Atomic             Coordinates (Angstroms)
 Number     Number       Type             X           Y           Z
 ---------------------------------------------------------------------
      1          6           0       -2.318221   -2.304781    5.047088
      2          6           0       -1.362141   -3.233169    4.513698
      3          6           0       -1.329043   -3.502404    3.138941
      4          6           0       -2.207566   -2.897664    2.174898
      5          6           0       -3.166952   -1.980790    2.725593
      6          6           0       -3.227078   -1.702369    4.085657
      7          8           0       -2.409413   -1.963832    6.302320
      8          8           0       -2.135837   -3.161005    0.916054
      9          7           0       -4.150567   -0.833995    4.679247
     10          6           0       -4.854410    0.219660    3.981968
     11          6           0       -6.179592   -0.281703    3.371167
     12          6           0       -5.120448    1.383546    4.946215
     13          1           0       -3.847423   -1.505642    2.024423
     14          1           0       -3.858771   -0.660891    5.638088
     15          1           0       -4.229979    0.594110    3.151997
     16          1           0       -6.658722    0.502961    2.768971
     17          1           0       -6.871888   -0.574713    4.168490
     18          1           0       -6.005829   -1.152726    2.735388
     19          1           0       -5.730746    2.161252    4.480120
     20          1           0       -4.183283    1.839964    5.282870
     21          1           0       -5.662967    1.026898    5.830796
     22          6           0       -0.382057   -3.913567    5.492363
     23          6           0       -1.179016   -4.708402    6.555936
     24          6           0        0.582804   -4.895205    4.799365
     25          6           0        0.473891   -2.836540    6.204406
     26          1           0       -0.611682   -4.203533    2.724788
     27          1           0       -1.880255   -4.038589    7.057192
     28          1           0       -0.501901   -5.156568    7.299966
     29          1           0       -1.742991   -5.516796    6.076687
     30          1           0        1.247921   -5.344777    5.549198
     31          1           0        1.204191   -4.391552    4.052600
     32          1           0        0.043759   -5.702932    4.294955
     33          1           0       -0.185797   -2.123948    6.702824
     34          1           0        1.087341   -2.298985    5.472388
     35          1           0        1.147145   -3.296945    6.944727
 ---------------------------------------------------------------------

 SCF Done:  E(UB3LYP) =  -712.187479076     A.U. after    4 cycles

 Alpha  occ. eigenvalues --  -18.79426 -18.77970 -14.06683  -9.98993  -9.96316
 Alpha  occ. eigenvalues --   -9.95894  -9.95151  -9.94744  -9.94205  -9.93874
 Alpha  occ. eigenvalues --   -9.93657  -9.93651  -9.93632  -9.90900  -9.88784
 Alpha  occ. eigenvalues --   -9.88445  -0.71420  -0.69092  -0.67508  -0.59780
 Alpha  occ. eigenvalues --   -0.56232  -0.52690  -0.48205  -0.47329  -0.46431
 Alpha  occ. eigenvalues --   -0.45910  -0.41270  -0.38064  -0.34768  -0.31804
 Alpha  occ. eigenvalues --   -0.29038  -0.25961  -0.24744  -0.23609  -0.22435
 Alpha  occ. eigenvalues --   -0.22247  -0.21679  -0.19989  -0.18747  -0.18509
 Alpha  occ. eigenvalues --   -0.17919  -0.17700  -0.17508  -0.15257  -0.14967
 Alpha  occ. eigenvalues --   -0.14719  -0.13180  -0.12330  -0.11994  -0.11875
 Alpha  occ. eigenvalues --   -0.10908  -0.10715  -0.09452  -0.07952  -0.07628
 Alpha  occ. eigenvalues --   -0.03804   0.01400   0.02891   0.04751   0.05077
 Alpha  occ. eigenvalues --    0.12835
 Alpha virt. eigenvalues --    0.14417   0.15004   0.16674   0.17261   0.17495
 Alpha virt. eigenvalues --    0.17662   0.18554   0.19270   0.20286   0.20392
 Alpha virt. eigenvalues --    0.20730   0.20844   0.21346   0.21881   0.22512

  Beta  occ. eigenvalues --  -18.79426 -18.77970 -14.06683  -9.98993  -9.96316
  Beta  occ. eigenvalues --   -9.95894  -9.95151  -9.94744  -9.94205  -9.93874
  Beta  occ. eigenvalues --   -9.93657  -9.93651  -9.93632  -9.90900  -9.88784
  Beta  occ. eigenvalues --   -9.88445  -0.71420  -0.69092  -0.67508  -0.59780
  Beta  occ. eigenvalues --   -0.56232  -0.52690  -0.48205  -0.47329  -0.46431
  Beta  occ. eigenvalues --   -0.45910  -0.41270  -0.38064  -0.34768  -0.31804
  Beta  occ. eigenvalues --   -0.29038  -0.25961  -0.24744  -0.23609  -0.22435
  Beta  occ. eigenvalues --   -0.22247  -0.21679  -0.19989  -0.18747  -0.18509
  Beta  occ. eigenvalues --   -0.17919  -0.17700  -0.17508  -0.15257  -0.14967
  Beta  occ. eigenvalues --   -0.14719  -0.13180  -0.12330  -0.11994  -0.11875
  Beta  occ. eigenvalues --   -0.10908  -0.10715  -0.09452  -0.07952  -0.07628
  Beta  occ. eigenvalues --   -0.03804   0.01400   0.02891   0.04751   0.05077
  Beta  occ. eigenvalues --    0.12835
  Beta virt. eigenvalues --    0.14417   0.15004   0.16674   0.17261   0.17495
  Beta virt. eigenvalues --    0.17662   0.18554   0.19270   0.20286   0.20392
  Beta virt. eigenvalues --    0.20730   0.20844   0.21346   0.21881   0.22512

 Mulliken charges and spin densities:
               1          2
     1  C   -2.458104   0.000000
     2  C    1.008700   0.000000
     3  C   -0.284982   0.000000
     4  C   -0.986656  -0.000000
     5  C    1.856216  -0.000000
     6  C    0.169382   0.000000
     7  O   -0.480651  -0.000000
     8  O   -0.518801  -0.000000
     9  N    0.105828  -0.000000
    10  C   -1.966900   0.000000
    11  C    0.914729  -0.000000
    12  C    1.284037  -0.000000
    13  H    0.077070  -0.000000
    14  H    0.541388  -0.000000
    15  H    0.163842   0.000000
    16  H   -0.343022   0.000000
    17  H   -0.108222   0.000000
    18  H    0.070672   0.000000
    19  H   -0.815173   0.000000
    20  H   -0.047786   0.000000
    21  H   -0.217576   0.000000
    22  C    0.820941   0.000000
    23  C   -0.689853  -0.000000
    24  C   -0.548162  -0.000000
    25  C   -0.684074  -0.000000
    26  H    0.092332  -0.000000
    27  H    0.178007  -0.000000
    28  H    0.068315   0.000000
    29  H    0.095788   0.000000
    30  H    0.116749  -0.000000
    31  H    0.112068   0.000000
    32  H    0.108315   0.000000
    33  H    0.207426  -0.000000
    34  H    0.094958  -0.000000
    35  H    0.063198  -0.000000
 Sum of Mulliken charges =  -2.00000  -0.00000

 Dipole moment (field-independent basis, Debye):
    X=             29.9775    Y=             16.8577    Z=            -36.2371  Tot=             49.9596
 Quadrupole moment (field-independent basis, Debye-Ang):
   XX=           -262.7864   YY=           -198.8044   ZZ=           -307.7826
   XY=             -7.9404   XZ=            112.5759   YZ=             54.5851

  Exact polarizability: 974.057-403.9681234.362  65.583 186.518 771.275
 Approx polarizability:3723.367********4530.053-228.335 408.693 796.020

                      1                      2                      3
                      A                      A                      A
 Frequencies --     35.9099                60.0362                72.2091
 Red. masses --      3.6137                 2.6163                 3.5426
 Frc consts  --      0.0027                 0.0056                 0.0109
 IR Inten    --      4.7368                 1.4905                 1.7481

                      4                      5                      6
                      A                      A                      A
 Frequencies --     94.4445               111.9129               168.7120
 Red. masses --      3.9615                 4.0374                 6.5799
 Frc consts  --      0.0208                 0.0298                 0.1103
 IR Inten    --      4.7450                 1.5788                 4.6935

                      7                      8                      9
                      A                      A                      A
 Frequencies --    187.0508               206.8745               226.7543
 Red. masses --      3.5772                 1.0451                 4.0351
 Frc consts  --      0.0737                 0.0264                 0.1222
 IR Inten    --     21.0134                12.4151                 7.8610

                     10                     11                     12
                      A                      A                      A
 Frequencies --    243.2597               250.6008               252.2823
 Red. masses --      1.1917                 1.0855                 2.7807
 Frc consts  --      0.0415                 0.0402                 0.1043
 IR Inten    --      1.5676                 0.8710                15.4056

                     13                     14                     15
                      A                      A                      A
 Frequencies --    279.2637               292.9669               297.9605
 Red. masses --      2.8918                 1.1511                 3.1285
 Frc consts  --      0.1329                 0.0582                 0.1636
 IR Inten    --      6.2644                 1.4790                 1.3689

                     16                     17                     18
                      A                      A                      A
 Frequencies --    315.5163               328.5352               340.5591
 Red. masses --      1.0538                 3.0715                 3.5606
 Frc consts  --      0.0618                 0.1953                 0.2433
 IR Inten    --      0.0766                12.9984                 9.5000

                     19                     20                     21
                      A                      A                      A
 Frequencies --    378.5824               398.3691               417.2546
 Red. masses --      2.8881                 3.0148                 2.6581
 Frc consts  --      0.2439                 0.2819                 0.2727
 IR Inten    --      3.0982                78.1133                 1.3347

                     22                     23                     24
                      A                      A                      A
 Frequencies --    422.8740               444.4142               465.5161
 Red. masses --      3.4095                 4.6279                 6.7004
 Frc consts  --      0.3592                 0.5385                 0.8555
 IR Inten    --     10.2640                 7.2196               482.4490

                     25                     26                     27
                      A                      A                      A
 Frequencies --    478.9977               533.3708               577.2260
 Red. masses --      2.9910                 3.0403                 2.2367
 Frc consts  --      0.4043                 0.5096                 0.4391
 IR Inten    --     89.0056                 3.8411                52.6756

                     28                     29                     30
                      A                      A                      A
 Frequencies --    607.7862               640.2008               660.6202
 Red. masses --      3.8164                 1.9781                 2.5972
 Frc consts  --      0.8306                 0.4777                 0.6678
 IR Inten    --     32.5575                 2.6766                33.2850

                     31                     32                     33
                      A                      A                      A
 Frequencies --    699.6064               784.3400               789.8628
 Red. masses --      2.4827                 2.6495                 2.0592
 Frc consts  --      0.7160                 0.9603                 0.7569
 IR Inten    --     19.4134                19.6481                30.4912

                     34                     35                     36
                      A                      A                      A
 Frequencies --    792.0955               808.6039               825.6940
 Red. masses --      3.2311                 4.9053                 2.4407
 Frc consts  --      1.1944                 1.8897                 0.9804
 IR Inten    --     20.9153                49.9767                 8.1466

                     37                     38                     39
                      A                      A                      A
 Frequencies --    839.2088               912.1976               915.2666
 Red. masses --      2.5705                 2.4392                 1.8051
 Frc consts  --      1.0666                 1.1958                 0.8909
 IR Inten    --     19.1020                41.3793                 0.9269

                     40                     41                     42
                      A                      A                      A
 Frequencies --    925.9463               930.8154               939.3493
 Red. masses --      1.2542                 1.7325                 1.6238
 Frc consts  --      0.6336                 0.8844                 0.8442
 IR Inten    --     55.2700                66.6120                20.1586

                     43                     44                     45
                      A                      A                      A
 Frequencies --    952.6743               974.4465              1023.2144
 Red. masses --      1.2093                 2.3046                 1.8229
 Frc consts  --      0.6466                 1.2893                 1.1245
 IR Inten    --      0.5235               146.8149                30.9854

                     46                     47                     48
                      A                      A                      A
 Frequencies --   1046.7274              1049.4445              1117.1784
 Red. masses --      1.3816                 1.5947                 1.9664
 Frc consts  --      0.8919                 1.0348                 1.4460
 IR Inten    --      7.0642                67.4934                 3.2695

                     49                     50                     51
                      A                      A                      A
 Frequencies --   1157.3292              1174.0900              1190.4635
 Red. masses --      2.2374                 1.9768                 4.7621
 Frc consts  --      1.7657                 1.6055                 3.9763
 IR Inten    --     74.9354                 9.7361                42.3596

                     52                     53                     54
                      A                      A                      A
 Frequencies --   1208.4180              1210.5539              1221.7056
 Red. masses --      2.6187                 2.4204                 2.7664
 Frc consts  --      2.2530                 2.0898                 2.4328
 IR Inten    --      3.9635               249.8161               270.2154

                     55                     56                     57
                      A                      A                      A
 Frequencies --   1247.0939              1255.7302              1284.6480
 Red. masses --      1.6470                 2.3140                 2.6149
 Frc consts  --      1.5092                 2.1498                 2.5425
 IR Inten    --    288.3962               132.1555               136.9149

                     58                     59                     60
                      A                      A                      A
 Frequencies --   1326.9001              1347.2534              1356.1959
 Red. masses --      2.0604                 1.7351                 1.2164
 Frc consts  --      2.1373                 1.8555                 1.3181
 IR Inten    --   1925.7458              1537.7318                12.4246

                     61                     62                     63
                      A                      A                      A
 Frequencies --   1363.9719              1371.5652              1375.0668
 Red. masses --      1.2656                 1.2727                 1.5276
 Frc consts  --      1.3873                 1.4106                 1.7018
 IR Inten    --     77.3781               603.9807               556.5578

                     64                     65                     66
                      A                      A                      A
 Frequencies --   1393.0905              1394.4975              1414.9281
 Red. masses --      1.4904                 1.3259                 3.3263
 Frc consts  --      1.7042                 1.5191                 3.9235
 IR Inten    --    120.4481               171.6367               770.4414

                     67                     68                     69
                      A                      A                      A
 Frequencies --   1454.8485              1460.2301              1470.1075
 Red. masses --      2.7472                 1.0505                 1.1387
 Frc consts  --      3.4260                 1.3197                 1.4500
 IR Inten    --    486.9913                 5.5970               116.8136

                     70                     71                     72
                      A                      A                      A
 Frequencies --   1479.4135              1481.0205              1485.2266
 Red. masses --      1.1730                 2.0884                 1.0481
 Frc consts  --      1.5126                 2.6989                 1.3622
 IR Inten    --    293.8330               420.5268                 1.0045

                     73                     74                     75
                      A                      A                      A
 Frequencies --   1486.6792              1489.2203              1494.2365
 Red. masses --      1.0817                 1.3233                 1.0823
 Frc consts  --      1.4087                 1.7292                 1.4238
 IR Inten    --     87.0271                98.9020                32.9544

                     76                     77                     78
                      A                      A                      A
 Frequencies --   1502.9961              1509.2259              1518.2625
 Red. masses --      1.1105                 1.0539                 1.7467
 Frc consts  --      1.4780                 1.4144                 2.3722
 IR Inten    --    105.8706                 1.7299                36.6032

                     79                     80                     81
                      A                      A                      A
 Frequencies --   1527.9296              1597.4605              2915.3301
 Red. masses --      1.0614                 6.1733                 1.0816
 Frc consts  --      1.4599                 9.2818                 5.4162
 IR Inten    --      0.7979              1968.0318               110.4195

                     82                     83                     84
                      A                      A                      A
 Frequencies --   2947.2440              2956.3002              2976.1397
 Red. masses --      1.0506                 1.0499                 1.0436
 Frc consts  --      5.3766                 5.4060                 5.4462
 IR Inten    --     45.8554               802.2226                20.4143

                     85                     86                     87
                      A                      A                      A
 Frequencies --   2986.8626              2993.9849              3029.6019
 Red. masses --      1.0437                 1.0389                 1.0850
 Frc consts  --      5.4858                 5.4870                 5.8676
 IR Inten    --    479.8898                51.0402               100.9879

                     88                     89                     90
                      A                      A                      A
 Frequencies --   3032.7290              3043.7106              3047.6513
 Red. masses --      1.0853                 1.0943                 1.0890
 Frc consts  --      5.8812                 5.9731                 5.9595
 IR Inten    --     17.5062                 4.3224               101.1743

                     91                     92                     93
                      A                      A                      A
 Frequencies --   3054.0899              3073.3789              3077.1904
 Red. masses --      1.0982                 1.1011                 1.1002
 Frc consts  --      6.0350                 6.1281                 6.1379
 IR Inten    --     14.6947                35.3878               196.5642

                     94                     95                     96
                      A                      A                      A
 Frequencies --   3092.4994              3093.9628              3096.9502
 Red. masses --      1.0979                 1.0989                 1.0983
 Frc consts  --      6.1863                 6.1976                 6.2062
 IR Inten    --     18.3409                 6.9180                34.7626

                     97                     98                     99
                      A                      A                      A
 Frequencies --   3137.6303              3151.1937              3485.1110
 Red. masses --      1.0875                 1.0858                 1.0751
 Frc consts  --      6.3079                 6.3528                 7.6940
 IR Inten    --     35.3798               156.7011                60.8790

 - Thermochemistry -
 -------------------
 Temperature   298.150 Kelvin.  Pressure   1.00000 Atm.
 Atom     1 has atomic number  6 and mass  12.00000

 Molecular mass:   221.14158 amu.
 Principal axes and moments of inertia in atomic units:
                           1         2         3
     Eigenvalues --  2205.920275509.174497118.31580
           X            0.74409  -0.01980   0.66778
           Y           -0.63941   0.26857   0.72043
           Z            0.19361   0.96306  -0.18718
 This molecule is an asymmetric top.
 Rotational symmetry number  1.
 Warning -- assumption of classical behavior for rotation
           may cause significant error
 Rotational temperatures (Kelvin)      0.03926     0.01572     0.01217
 Rotational constants (GHZ):           0.81814     0.32759     0.25353
 Zero-point vibrational energy     768951.5 (Joules/Mol)
                                  183.78382 (Kcal/Mol)
 Warning -- explicit consideration of  28 degrees of freedom as
           vibrations may cause significant error
 Vibrational temperatures:     51.67    86.38   103.89   135.88   161.02
          (Kelvin)            242.74   269.12   297.65   326.25   350.00
                              360.56   362.98   401.80   421.51   428.70
                              453.96   472.69   489.99   544.70   573.16
                              600.34   608.42   639.41   669.77   689.17
                              767.40   830.50   874.47   921.11   950.49
                             1006.58  1128.49  1136.44  1139.65  1163.40
                             1187.99  1207.43  1312.45  1316.86  1332.23
                             1339.24  1351.51  1370.69  1402.01  1472.18
                             1506.01  1509.92  1607.37  1665.14  1689.25
                             1712.81  1738.64  1741.72  1757.76  1794.29
                             1806.72  1848.32  1909.11  1938.40  1951.26
                             1962.45  1973.38  1978.41  2004.35  2006.37
                             2035.77  2093.20  2100.95  2115.16  2128.55
                             2130.86  2136.91  2139.00  2142.66  2149.87
                             2162.48  2171.44  2184.44  2198.35  2298.39
                             4194.51  4240.43  4253.46  4282.00  4297.43
                             4307.68  4358.92  4363.42  4379.22  4384.89
                             4394.15  4421.91  4427.39  4449.42  4451.52
                             4455.82  4514.35  4533.86  5014.30

 Zero-point correction=                           0.292878 (Hartree/Particle)
 Thermal correction to Energy=                    0.309911
 Thermal correction to Enthalpy=                  0.310856
 Thermal correction to Gibbs Free Energy=         0.249297
 Sum of electronic and zero-point Energies=           -711.894601
 Sum of electronic and thermal Energies=              -711.877568
 Sum of electronic and thermal Enthalpies=            -711.876623
 Sum of electronic and thermal Free Energies=         -711.938182

                     E (Thermal)             CV                S
                      KCal/Mol        Cal/Mol-Kelvin    Cal/Mol-Kelvin
 Total                  194.472             66.342            129.561
 Electronic               0.000              0.000              0.000
 Translational            0.889              2.981             42.084
 Rotational               0.889              2.981             32.825
 Vibrational            192.695             60.380             54.652
 Vibration     1          0.594              1.982              5.473
 Vibration     2          0.597              1.973              4.456
 Vibration     3          0.598              1.967              4.092
 Vibration     4          0.603              1.953              3.566
 Vibration     5          0.607              1.940              3.235
 Vibration     6          0.625              1.881              2.450
 Vibration     7          0.632              1.858              2.257
 Vibration     8          0.641              1.830              2.071
 Vibration     9          0.650              1.800              1.904
 Vibration    10          0.659              1.774              1.779
 Vibration    11          0.663              1.762              1.726
 Vibration    12          0.664              1.759              1.715
 Vibration    13          0.680              1.712              1.538
 Vibration    14          0.688              1.687              1.457
 Vibration    15          0.691              1.678              1.428
 Vibration    16          0.703              1.644              1.333
 Vibration    17          0.712              1.618              1.267
 Vibration    18          0.720              1.594              1.210
 Vibration    19          0.749              1.516              1.045
 Vibration    20          0.765              1.474              0.969
 Vibration    21          0.780              1.433              0.901
 Vibration    22          0.785              1.421              0.882
 Vibration    23          0.804              1.373              0.813
 Vibration    24          0.823              1.327              0.750
 Vibration    25          0.835              1.297              0.713
 Vibration    26          0.888              1.176              0.580
 Vibration    27          0.934              1.081              0.491
 Vibration    28          0.967              1.015              0.436

 Optimization completed.
    -- Stationary point found.
 Normal termination of Gaussian 16 at Wed Jan 10 19:46:12 2024.
