 Gaussian 16, Revision A.03,
 Gaussian 16:  ES64L-G16RevA.03 25-Dec-2016

 ----------------------------------------------------------------------
 #P UB3LYP/6-311++G(d,p) nosym opt freq SCRF=(PCM,Solvent=n,n-DiMethylF
 ormamide)
 ----------------------------------------------------------------------

 -------
 Reduced
 -------
 Symbolic Z-matrix:
 Charge = -2 Multiplicity = 1

 SCF Done:  E(UB3LYP) =  -1049.20476478     A.U. after   20 cycles
 SCF Done:  E(UB3LYP) =  -1049.20654813     A.U. after   15 cycles
 SCF Done:  E(UB3LYP) =  -1049.20694915     A.U. after   15 cycles
 SCF Done:  E(UB3LYP) =  -1049.20698154     A.U. after   14 cycles
 SCF Done:  E(UB3LYP) =  -1049.20699800     A.U. after   14 cycles
 SCF Done:  E(UB3LYP) =  -1049.20699904     A.U. after   11 cycles
 Optimization completed.
    -- Stationary point found.
 Normal termination of Gaussian 16 at Sun Feb 11 16:30:02 2024.

 ----------------------------------------------------------------------
 #P Geom=AllCheck Guess=TCheck SCRF=Check GenChk UB3LYP/6-311++G(d,p) F
 req
 ----------------------------------------------------------------------

 Structure from the checkpoint file:  "338-an.chk"
 -------
 Reduced
 -------
 Charge = -2 Multiplicity = 1

                          Input orientation:
 ---------------------------------------------------------------------
 Center     Atomic      Atomic             Coordinates (Angstroms)
 Number     Number       Type             X           Y           Z
 ---------------------------------------------------------------------
      1          8           0       -0.017100   -2.563258   -0.599292
      2          6           0       -0.008821   -1.296201   -0.225670
      3          6           0        1.216775   -0.612178    0.052925
      4          6           0        2.452303   -1.344079    0.091901
      5          6           0        3.636619   -0.780587    0.506479
      6          6           0        3.696828    0.582423    0.907284
      7          6           0        2.543129    1.344084    0.826014
      8          6           0        1.323342    0.789276    0.397659
      9         16           0        0.011291    1.923897    0.104335
     10          8           0        0.011278    2.323385   -1.423590
     11          6           0       -1.313436    0.805295    0.402031
     12          6           0       -2.524887    1.374662    0.834933
     13          6           0       -3.687588    0.627177    0.919521
     14          6           0       -3.645508   -0.736040    0.517141
     15          6           0       -2.469595   -1.313592    0.098076
     16          6           0       -1.225173   -0.597151    0.056171
     17          1           0        2.410739   -2.387602   -0.196853
     18          1           0        4.538544   -1.385876    0.532633
     19          1           0        4.628923    1.022938    1.242634
     20          1           0        2.572236    2.400743    1.080996
     21          1           0       -2.540194    2.431410    1.090747
     22          1           0       -4.613055    1.078737    1.258514
     23          1           0       -4.554698   -1.330264    0.545589
     24          1           0       -2.441949   -2.357200   -0.191724
 ---------------------------------------------------------------------

 SCF Done:  E(UB3LYP) =  -1049.20699904     A.U. after    1 cycles

 Alpha  occ. eigenvalues --  -88.91347 -19.04961 -19.00601 -10.16464 -10.16462
 Alpha  occ. eigenvalues --  -10.16165 -10.16165 -10.16163 -10.15280 -10.15279
 Alpha  occ. eigenvalues --  -10.14474 -10.14472 -10.14429 -10.14428 -10.14423
 Alpha  occ. eigenvalues --  -10.14421  -7.98915  -5.95188  -5.95056  -5.94555
 Alpha  occ. eigenvalues --   -0.95587  -0.91226  -0.83522  -0.82615  -0.76545
 Alpha  occ. eigenvalues --   -0.73485  -0.72858  -0.71246  -0.67085  -0.61732
 Alpha  occ. eigenvalues --   -0.59203  -0.56623  -0.55338  -0.51914  -0.50149
 Alpha  occ. eigenvalues --   -0.46073  -0.44179  -0.44089  -0.42758  -0.41270
 Alpha  occ. eigenvalues --   -0.40514  -0.39902  -0.38797  -0.37842  -0.36182
 Alpha  occ. eigenvalues --   -0.35134  -0.34534  -0.33994  -0.32691  -0.32070
 Alpha  occ. eigenvalues --   -0.30911  -0.30239  -0.25098  -0.24667  -0.23521
 Alpha  occ. eigenvalues --   -0.21853  -0.21803  -0.21065  -0.19003  -0.10159
 Alpha virt. eigenvalues --   -0.01674  -0.00523   0.00178   0.00728   0.01181
 Alpha virt. eigenvalues --    0.01475   0.02504   0.02577   0.03491   0.04275
 Alpha virt. eigenvalues --    0.04628   0.04686   0.05754   0.06106   0.06379

  Beta  occ. eigenvalues --  -88.91347 -19.04961 -19.00601 -10.16464 -10.16462
  Beta  occ. eigenvalues --  -10.16165 -10.16165 -10.16163 -10.15280 -10.15279
  Beta  occ. eigenvalues --  -10.14474 -10.14472 -10.14429 -10.14428 -10.14423
  Beta  occ. eigenvalues --  -10.14421  -7.98915  -5.95188  -5.95056  -5.94555
  Beta  occ. eigenvalues --   -0.95587  -0.91226  -0.83522  -0.82615  -0.76545
  Beta  occ. eigenvalues --   -0.73485  -0.72858  -0.71246  -0.67085  -0.61732
  Beta  occ. eigenvalues --   -0.59203  -0.56623  -0.55338  -0.51914  -0.50149
  Beta  occ. eigenvalues --   -0.46073  -0.44179  -0.44089  -0.42758  -0.41270
  Beta  occ. eigenvalues --   -0.40514  -0.39902  -0.38797  -0.37842  -0.36182
  Beta  occ. eigenvalues --   -0.35134  -0.34534  -0.33994  -0.32691  -0.32070
  Beta  occ. eigenvalues --   -0.30911  -0.30239  -0.25098  -0.24667  -0.23521
  Beta  occ. eigenvalues --   -0.21853  -0.21803  -0.21065  -0.19003  -0.10159
  Beta virt. eigenvalues --   -0.01674  -0.00523   0.00178   0.00728   0.01181
  Beta virt. eigenvalues --    0.01475   0.02504   0.02577   0.03491   0.04275
  Beta virt. eigenvalues --    0.04628   0.04686   0.05754   0.06106   0.06379

 Mulliken charges and spin densities:
               1          2
     1  O   -0.726037   0.000000
     2  C   -0.111540  -0.000000
     3  C    1.249303  -0.000000
     4  C   -0.039909   0.000000
     5  C   -0.616459  -0.000000
     6  C   -0.201739  -0.000000
     7  C   -0.177316   0.000000
     8  C   -0.946587  -0.000000
     9  S   -0.425125   0.000000
    10  O   -0.550200   0.000000
    11  C   -0.949090   0.000000
    12  C   -0.175686  -0.000000
    13  C   -0.202199   0.000000
    14  C   -0.615983   0.000000
    15  C   -0.039338  -0.000000
    16  C    1.248136   0.000000
    17  H    0.166815   0.000000
    18  H    0.153806   0.000000
    19  H    0.157982  -0.000000
    20  H    0.161445   0.000000
    21  H    0.161434  -0.000000
    22  H    0.157973   0.000000
    23  H    0.153800   0.000000
    24  H    0.166511   0.000000
 Sum of Mulliken charges =  -2.00000  -0.00000

 Dipole moment (field-independent basis, Debye):
    X=              0.0331    Y=              2.7792    Z=              5.4643  Tot=              6.1305
 Quadrupole moment (field-independent basis, Debye-Ang):
   XX=           -125.2557   YY=           -149.6486   ZZ=           -124.9540
   XY=             -0.1386   XZ=              0.0361   YZ=              6.6000

  Exact polarizability: 633.383  -1.715 347.035  -0.553  17.415 205.138
 Approx polarizability: 720.820  -1.969 390.943  -0.615  24.663 228.497

                      1                      2                      3
                      A                      A                      A
 Frequencies --     57.8525               108.8957               136.7076
 Red. masses --      6.4447                 3.8715                 8.6019
 Frc consts  --      0.0127                 0.0270                 0.0947
 IR Inten    --     10.9809                11.7695                12.2155

                      4                      5                      6
                      A                      A                      A
 Frequencies --    159.5150               163.2960               226.3780
 Red. masses --      5.1407                 8.0118                 5.2513
 Frc consts  --      0.0771                 0.1259                 0.1586
 IR Inten    --      7.2867                 0.7815                 1.3399

                      7                      8                      9
                      A                      A                      A
 Frequencies --    274.9141               292.5876               299.5233
 Red. masses --      6.9618                 7.3451                 9.2929
 Frc consts  --      0.3100                 0.3705                 0.4912
 IR Inten    --      6.1722                 0.3629                18.8864

                     10                     11                     12
                      A                      A                      A
 Frequencies --    349.4463               404.5021               409.8946
 Red. masses --      6.5479                 7.3612                 3.6972
 Frc consts  --      0.4711                 0.7096                 0.3660
 IR Inten    --      1.2557                 0.0993                 6.0461

                     13                     14                     15
                      A                      A                      A
 Frequencies --    448.2003               463.9592               469.1801
 Red. masses --      5.3506                 5.0254                12.3888
 Frc consts  --      0.6333                 0.6374                 1.6068
 IR Inten    --     20.1056                12.0041                82.3907

                     16                     17                     18
                      A                      A                      A
 Frequencies --    491.9237               514.6100               581.1687
 Red. masses --      3.8951                 6.9813                 6.7698
 Frc consts  --      0.5553                 1.0893                 1.3472
 IR Inten    --      4.3007                54.9474                 2.8843

                     19                     20                     21
                      A                      A                      A
 Frequencies --    619.1918               622.9099               669.6530
 Red. masses --      3.8368                 6.9291                 6.0826
 Frc consts  --      0.8667                 1.5841                 1.6071
 IR Inten    --     69.7581                 2.6592                12.2440

                     22                     23                     24
                      A                      A                      A
 Frequencies --    705.8165               708.6356               719.8939
 Red. masses --      4.7045                 1.3844                 1.4677
 Frc consts  --      1.3808                 0.4096                 0.4481
 IR Inten    --      0.8239               289.3677                16.4573

                     25                     26                     27
                      A                      A                      A
 Frequencies --    733.6199               755.4603               774.0748
 Red. masses --      3.6903                 3.3123                 5.7893
 Frc consts  --      1.1702                 1.1138                 2.0438
 IR Inten    --      2.4422                27.8434                75.2183

                     28                     29                     30
                      A                      A                      A
 Frequencies --    800.0642               832.3646               834.4614
 Red. masses --     16.0738                 1.4267                 1.6294
 Frc consts  --      6.0621                 0.5824                 0.6685
 IR Inten    --    657.2656                 0.7735                54.7580

                     31                     32                     33
                      A                      A                      A
 Frequencies --    916.5738               934.3755               935.8192
 Red. masses --      6.2511                 1.3400                 1.3139
 Frc consts  --      3.0942                 0.6893                 0.6780
 IR Inten    --    128.0378                 2.7270                 1.5316

                     34                     35                     36
                      A                      A                      A
 Frequencies --    979.3989               980.1268               996.6088
 Red. masses --      1.2694                 1.2676                 5.0379
 Frc consts  --      0.7174                 0.7175                 2.9482
 IR Inten    --      2.9362                 2.0582              1148.8952

                     37                     38                     39
                      A                      A                      A
 Frequencies --   1014.9870              1025.2347              1061.8226
 Red. masses --      2.3742                 2.1440                 5.0545
 Frc consts  --      1.4411                 1.3278                 3.3576
 IR Inten    --     37.5332                25.2178                64.2234

                     40                     41                     42
                      A                      A                      A
 Frequencies --   1099.7390              1107.0737              1157.1915
 Red. masses --      2.6491                 1.7692                 1.1886
 Frc consts  --      1.8877                 1.2776                 0.9378
 IR Inten    --    400.0939               228.7745                 6.6539

                     43                     44                     45
                      A                      A                      A
 Frequencies --   1158.5568              1173.1743              1214.2584
 Red. masses --      1.1859                 1.7116                 1.6896
 Frc consts  --      0.9379                 1.3879                 1.4677
 IR Inten    --      6.0332               124.4290                 5.3798

                     46                     47                     48
                      A                      A                      A
 Frequencies --   1237.8676              1311.8296              1326.1277
 Red. masses --      2.3600                 3.6518                 5.9612
 Frc consts  --      2.1307                 3.7026                 6.1766
 IR Inten    --     80.3987               342.1133                 4.9130

                     49                     50                     51
                      A                      A                      A
 Frequencies --   1342.7814              1383.8392              1420.8519
 Red. masses --      3.1926                 9.3079                 2.2870
 Frc consts  --      3.3916                10.5020                 2.7203
 IR Inten    --   1487.4527               898.7194               758.2361

                     52                     53                     54
                      A                      A                      A
 Frequencies --   1432.1889              1460.8110              1475.8617
 Red. masses --      2.1463                 2.7663                 2.4103
 Frc consts  --      2.5938                 3.4780                 3.0932
 IR Inten    --      5.7803               147.3573                21.0664

                     55                     56                     57
                      A                      A                      A
 Frequencies --   1506.6539              1524.4477              1588.0578
 Red. masses --      4.0435                 4.9217                 4.7914
 Frc consts  --      5.4080                 6.7389                 7.1194
 IR Inten    --     13.3585                 9.1384               588.1711

                     58                     59                     60
                      A                      A                      A
 Frequencies --   1612.2322              3132.6275              3132.8425
 Red. masses --      5.9391                 1.0866                 1.0868
 Frc consts  --      9.0955                 6.2826                 6.2844
 IR Inten    --     18.1987                35.3725                19.8515

                     61                     62                     63
                      A                      A                      A
 Frequencies --   3139.1281              3139.3307              3170.9164
 Red. masses --      1.0873                 1.0875                 1.0909
 Frc consts  --      6.3130                 6.3149                 6.4624
 IR Inten    --     67.2041                40.3477                24.7208

                     64                     65                     66
                      A                      A                      A
 Frequencies --   3171.6978              3176.2693              3177.6579
 Red. masses --      1.0915                 1.0946                 1.0937
 Frc consts  --      6.4693                 6.5061                 6.5068
 IR Inten    --     36.8511                90.2268                45.1717

 - Thermochemistry -
 -------------------
 Temperature   298.150 Kelvin.  Pressure   1.00000 Atm.
 Atom     1 has atomic number  8 and mass  15.99491

 Molecular mass:   228.02450 amu.
 Principal axes and moments of inertia in atomic units:
                           1         2         3
     Eigenvalues --  2032.176804343.763965773.99995
           X            0.99998   0.00614   0.00129
           Y           -0.00608   0.99917  -0.04018
           Z           -0.00154   0.04017   0.99919
 This molecule is an asymmetric top.
 Rotational symmetry number  1.
 Warning -- assumption of classical behavior for rotation
           may cause significant error
 Rotational temperatures (Kelvin)      0.04262     0.01994     0.01500
 Rotational constants (GHZ):           0.88808     0.41548     0.31256
 Zero-point vibrational energy     444099.6 (Joules/Mol)
                                  106.14236 (Kcal/Mol)
 Warning -- explicit consideration of  19 degrees of freedom as
           vibrations may cause significant error
 Vibrational temperatures:     83.24   156.68   196.69   229.51   234.95
          (Kelvin)            325.71   395.54   420.97   430.95   502.78
                              581.99   589.75   644.86   667.53   675.05
                              707.77   740.41   836.17   890.88   896.23
                              963.48  1015.51  1019.57  1035.77  1055.52
                             1086.94  1113.72  1151.11  1197.59  1200.60
                             1318.75  1344.36  1346.44  1409.14  1410.18
                             1433.90  1460.34  1475.08  1527.73  1582.28
                             1592.83  1664.94  1666.90  1687.94  1747.05
                             1781.02  1887.43  1908.00  1931.96  1991.04
                             2044.29  2060.60  2101.78  2123.44  2167.74
                             2193.34  2284.86  2319.64  4507.15  4507.46
                             4516.51  4516.80  4562.24  4563.37  4569.94
                             4571.94

 Zero-point correction=                           0.169149 (Hartree/Particle)
 Thermal correction to Energy=                    0.181420
 Thermal correction to Enthalpy=                  0.182364
 Thermal correction to Gibbs Free Energy=         0.130813
 Sum of electronic and zero-point Energies=          -1049.037850
 Sum of electronic and thermal Energies=             -1049.025579
 Sum of electronic and thermal Enthalpies=           -1049.024635
 Sum of electronic and thermal Free Energies=        -1049.076186

                     E (Thermal)             CV                S
                      KCal/Mol        Cal/Mol-Kelvin    Cal/Mol-Kelvin
 Total                  113.842             50.173            108.498
 Electronic               0.000              0.000              0.000
 Translational            0.889              2.981             42.175
 Rotational               0.889              2.981             32.300
 Vibrational            112.065             44.212             34.023
 Vibration     1          0.596              1.974              4.529
 Vibration     2          0.606              1.942              3.289
 Vibration     3          0.614              1.917              2.849
 Vibration     4          0.621              1.892              2.556
 Vibration     5          0.623              1.887              2.511
 Vibration     6          0.650              1.801              1.907
 Vibration     7          0.677              1.720              1.565
 Vibration     8          0.688              1.688              1.459
 Vibration     9          0.692              1.675              1.420
 Vibration    10          0.727              1.576              1.169
 Vibration    11          0.770              1.460              0.946
 Vibration    12          0.774              1.449              0.927
 Vibration    13          0.807              1.365              0.801
 Vibration    14          0.821              1.330              0.755
 Vibration    15          0.826              1.318              0.740
 Vibration    16          0.848              1.268              0.679
 Vibration    17          0.870              1.218              0.623
 Vibration    18          0.938              1.072              0.483
 Vibration    19          0.979              0.991              0.418

 Optimization completed.
    -- Stationary point found.
 Normal termination of Gaussian 16 at Sun Feb 11 17:10:49 2024.
