 Gaussian 16, Revision A.03,
 Gaussian 16:  ES64L-G16RevA.03 25-Dec-2016

 ----------------------------------------------------------------------
 #P UB3LYP/6-311++G(d,p) nosym opt freq SCRF=(PCM,Solvent=n,n-DiMethylF
 ormamide)
 ----------------------------------------------------------------------

 -------
 Reduced
 -------
 Symbolic Z-matrix:
 Charge = -2 Multiplicity = 1

 SCF Done:  E(UB3LYP) =  -973.971007704     A.U. after   23 cycles
 SCF Done:  E(UB3LYP) =  -973.975307297     A.U. after   19 cycles
 SCF Done:  E(UB3LYP) =  -973.976234570     A.U. after   18 cycles
 SCF Done:  E(UB3LYP) =  -973.976493109     A.U. after   16 cycles
 SCF Done:  E(UB3LYP) =  -973.976533973     A.U. after   17 cycles
 SCF Done:  E(UB3LYP) =  -973.976538143     A.U. after   15 cycles
 SCF Done:  E(UB3LYP) =  -973.976538523     A.U. after   14 cycles
 Optimization completed.
    -- Stationary point found.
 Normal termination of Gaussian 16 at Sun Feb 11 16:29:05 2024.

 ----------------------------------------------------------------------
 #P Geom=AllCheck Guess=TCheck SCRF=Check GenChk UB3LYP/6-311++G(d,p) F
 req
 ----------------------------------------------------------------------

 Structure from the checkpoint file:  "337-an.chk"
 -------
 Reduced
 -------
 Charge = -2 Multiplicity = 1

                          Input orientation:
 ---------------------------------------------------------------------
 Center     Atomic      Atomic             Coordinates (Angstroms)
 Number     Number       Type             X           Y           Z
 ---------------------------------------------------------------------
      1          8           0       -0.196384   -2.635442   -0.148918
      2          6           0       -0.116721   -1.312856   -0.296002
      3          6           0       -1.289722   -0.506699   -0.106454
      4          6           0       -2.512817   -1.096440    0.368441
      5          6           0       -3.639938   -0.337386    0.661046
      6          6           0       -3.638598    1.058782    0.527797
      7          6           0       -2.455529    1.673729    0.057538
      8          6           0       -1.346272    0.919720   -0.282737
      9         16           0        0.014677    1.708280   -1.135791
     10          6           0        1.385759    0.732405   -0.527019
     11          6           0        2.628758    1.326547   -0.398596
     12          6           0        3.783434    0.553167   -0.138753
     13          6           0        3.621009   -0.831728    0.010603
     14          6           0        2.368407   -1.429323   -0.066805
     15          6           0        1.170098   -0.675778   -0.325779
     16          1           0       -2.527000   -2.172709    0.488769
     17          1           0       -4.540160   -0.841343    1.006007
     18          1           0       -4.518102    1.651355    0.752828
     19          1           0       -2.424289    2.751393   -0.079896
     20          1           0        2.718534    2.400148   -0.541980
     21          1           0        4.760420    1.019596   -0.081893
     22          1           0        4.492289   -1.456038    0.196321
     23          1           0        2.262145   -2.499381    0.061274
 ---------------------------------------------------------------------

 SCF Done:  E(UB3LYP) =  -973.976538523     A.U. after    4 cycles

 Alpha  occ. eigenvalues --  -88.82916 -18.99810 -10.16971 -10.16969 -10.14807
 Alpha  occ. eigenvalues --  -10.14801 -10.14738 -10.14528 -10.14525 -10.13964
 Alpha  occ. eigenvalues --  -10.13944 -10.13247 -10.13238 -10.12881 -10.12870
 Alpha  occ. eigenvalues --   -7.91534  -5.87882  -5.87553  -5.86980  -0.89912
 Alpha  occ. eigenvalues --   -0.83451  -0.81694  -0.76584  -0.72219  -0.71693
 Alpha  occ. eigenvalues --   -0.70527  -0.66636  -0.61189  -0.57764  -0.55977
 Alpha  occ. eigenvalues --   -0.54404  -0.51146  -0.48905  -0.44788  -0.42965
 Alpha  occ. eigenvalues --   -0.42906  -0.41902  -0.39958  -0.39093  -0.37656
 Alpha  occ. eigenvalues --   -0.37327  -0.35632  -0.34942  -0.33611  -0.32545
 Alpha  occ. eigenvalues --   -0.32228  -0.29962  -0.29297  -0.29021  -0.26826
 Alpha  occ. eigenvalues --   -0.23069  -0.21607  -0.21021  -0.18794  -0.18189
 Alpha  occ. eigenvalues --   -0.08226
 Alpha virt. eigenvalues --   -0.00199   0.00126   0.00771   0.00935   0.01475
 Alpha virt. eigenvalues --    0.01518   0.02387   0.02603   0.03859   0.04421
 Alpha virt. eigenvalues --    0.04753   0.04945   0.05836   0.06057   0.06284

  Beta  occ. eigenvalues --  -88.82916 -18.99810 -10.16971 -10.16969 -10.14807
  Beta  occ. eigenvalues --  -10.14801 -10.14738 -10.14528 -10.14525 -10.13964
  Beta  occ. eigenvalues --  -10.13944 -10.13247 -10.13238 -10.12881 -10.12870
  Beta  occ. eigenvalues --   -7.91534  -5.87882  -5.87553  -5.86980  -0.89912
  Beta  occ. eigenvalues --   -0.83451  -0.81694  -0.76584  -0.72219  -0.71693
  Beta  occ. eigenvalues --   -0.70527  -0.66636  -0.61189  -0.57764  -0.55977
  Beta  occ. eigenvalues --   -0.54404  -0.51146  -0.48905  -0.44788  -0.42965
  Beta  occ. eigenvalues --   -0.42906  -0.41902  -0.39958  -0.39093  -0.37656
  Beta  occ. eigenvalues --   -0.37327  -0.35632  -0.34942  -0.33611  -0.32545
  Beta  occ. eigenvalues --   -0.32228  -0.29962  -0.29297  -0.29021  -0.26826
  Beta  occ. eigenvalues --   -0.23069  -0.21607  -0.21021  -0.18794  -0.18189
  Beta  occ. eigenvalues --   -0.08226
  Beta virt. eigenvalues --   -0.00199   0.00126   0.00771   0.00935   0.01475
  Beta virt. eigenvalues --    0.01518   0.02387   0.02603   0.03859   0.04421
  Beta virt. eigenvalues --    0.04753   0.04945   0.05836   0.06057   0.06284

 Mulliken charges and spin densities:
               1          2
     1  O   -0.750349  -0.000000
     2  C   -0.822673   0.000000
     3  C    1.215029  -0.000000
     4  C   -0.170412  -0.000000
     5  C   -0.547390   0.000000
     6  C   -0.302497   0.000000
     7  C   -0.176744  -0.000000
     8  C   -0.375215   0.000000
     9  S   -0.893084  -0.000000
    10  C   -0.374225  -0.000000
    11  C   -0.180659   0.000000
    12  C   -0.304847   0.000000
    13  C   -0.542339   0.000000
    14  C   -0.178362   0.000000
    15  C    1.230730  -0.000000
    16  H    0.146214   0.000000
    17  H    0.148849  -0.000000
    18  H    0.142510   0.000000
    19  H    0.149303  -0.000000
    20  H    0.149212  -0.000000
    21  H    0.142489  -0.000000
    22  H    0.148752  -0.000000
    23  H    0.145707   0.000000
 Sum of Mulliken charges =  -2.00000   0.00000

 Dipole moment (field-independent basis, Debye):
    X=              0.7894    Y=              8.5734    Z=              2.2017  Tot=              8.8868
 Quadrupole moment (field-independent basis, Debye-Ang):
   XX=           -136.1124   YY=           -138.0709   ZZ=           -114.4439
   XY=             -0.2167   XZ=              1.8973   YZ=             -0.6316

  Exact polarizability: 763.108 -31.197 336.196 -51.076 -19.662 214.399
 Approx polarizability: 842.958 -33.315 380.340 -57.131 -15.787 224.309

                      1                      2                      3
                      A                      A                      A
 Frequencies --     57.7748               110.7777               158.0109
 Red. masses --      6.5882                 3.8877                 4.9181
 Frc consts  --      0.0130                 0.0281                 0.0723
 IR Inten    --      5.6893                11.8973                 5.4606

                      4                      5                      6
                      A                      A                      A
 Frequencies --    192.0920               224.9200               259.8448
 Red. masses --      7.9844                 5.4382                 6.2787
 Frc consts  --      0.1736                 0.1621                 0.2498
 IR Inten    --      0.5816                 5.2675                17.7827

                      7                      8                      9
                      A                      A                      A
 Frequencies --    292.3675               327.6164               375.0350
 Red. masses --      7.1490                 5.7070                 6.2629
 Frc consts  --      0.3600                 0.3609                 0.5190
 IR Inten    --      4.9915                 2.8899                 5.6819

                     10                     11                     12
                      A                      A                      A
 Frequencies --    403.0916               428.8520               446.7811
 Red. masses --      7.0193                 6.9424                 7.6387
 Frc consts  --      0.6720                 0.7523                 0.8984
 IR Inten    --      7.0841                 4.9763                 0.7365

                     13                     14                     15
                      A                      A                      A
 Frequencies --    460.7055               512.6122               514.2417
 Red. masses --      4.0051                 6.1379                 4.7108
 Frc consts  --      0.5009                 0.9503                 0.7340
 IR Inten    --     31.1655                 2.1921                 7.3792

                     16                     17                     18
                      A                      A                      A
 Frequencies --    570.6835               598.4520               617.9294
 Red. masses --      5.4732                 4.3678                 7.0541
 Frc consts  --      1.0502                 0.9217                 1.5870
 IR Inten    --      5.6106                75.3848                 1.4407

                     19                     20                     21
                      A                      A                      A
 Frequencies --    666.7987               670.0330               673.7660
 Red. masses --      4.1257                 1.2833                 1.3546
 Frc consts  --      1.0808                 0.3395                 0.3623
 IR Inten    --     22.4902                 0.3056               222.9633

                     22                     23                     24
                      A                      A                      A
 Frequencies --    703.5555               716.6092               726.1837
 Red. masses --      4.5843                 5.1317                 4.2101
 Frc consts  --      1.3370                 1.5526                 1.3081
 IR Inten    --     58.2190                50.5174                12.7921

                     25                     26                     27
                      A                      A                      A
 Frequencies --    769.9761               799.1934               804.9382
 Red. masses --      6.2079                 1.5367                 1.4514
 Frc consts  --      2.1684                 0.5783                 0.5541
 IR Inten    --     19.8210                44.6114                37.8086

                     28                     29                     30
                      A                      A                      A
 Frequencies --    880.7166               881.7283               912.7293
 Red. masses --      1.3175                 1.3176                 6.5351
 Frc consts  --      0.6021                 0.6036                 3.2076
 IR Inten    --      5.8864                 5.6617               195.8108

                     31                     32                     33
                      A                      A                      A
 Frequencies --    948.8362               949.9238               999.1286
 Red. masses --      1.2549                 1.2513                 6.1296
 Frc consts  --      0.6656                 0.6653                 3.6051
 IR Inten    --     32.3383                20.0578              2582.6490

                     34                     35                     36
                      A                      A                      A
 Frequencies --   1021.8844              1029.7126              1049.2661
 Red. masses --      2.6672                 2.0356                 5.0955
 Frc consts  --      1.6410                 1.2717                 3.3053
 IR Inten    --     65.6995                 0.7350                24.2745

                     37                     38                     39
                      A                      A                      A
 Frequencies --   1085.7029              1088.6825              1139.0840
 Red. masses --      1.9723                 1.6776                 1.1832
 Frc consts  --      1.3697                 1.1715                 0.9045
 IR Inten    --    135.9048               467.8298                53.6746

                     40                     41                     42
                      A                      A                      A
 Frequencies --   1141.1100              1156.9930              1220.4736
 Red. masses --      1.3995                 1.8242                 1.9601
 Frc consts  --      1.0737                 1.4387                 1.7203
 IR Inten    --     89.3226                31.8777               357.0213

                     43                     44                     45
                      A                      A                      A
 Frequencies --   1244.9635              1308.4077              1316.1327
 Red. masses --      1.8618                 4.8306                 3.8927
 Frc consts  --      1.7002                 4.8723                 3.9729
 IR Inten    --      3.3670              3052.6673               529.4752

                     46                     47                     48
                      A                      A                      A
 Frequencies --   1332.5534              1352.2847              1405.7408
 Red. masses --      3.6582                 4.4898                 2.3261
 Frc consts  --      3.8272                 4.8374                 2.7082
 IR Inten    --    304.6912               570.1298               763.6416

                     49                     50                     51
                      A                      A                      A
 Frequencies --   1439.9149              1450.9708              1466.4819
 Red. masses --      2.8065                 2.3302                 3.7015
 Frc consts  --      3.4283                 2.8904                 4.6901
 IR Inten    --    516.1657                49.0518                13.4865

                     52                     53                     54
                      A                      A                      A
 Frequencies --   1500.0717              1510.0864              1552.5408
 Red. masses --      3.3362                 3.6002                 4.5141
 Frc consts  --      4.4231                 4.8371                 6.4107
 IR Inten    --    384.3134                11.2001               926.2900

                     55                     56                     57
                      A                      A                      A
 Frequencies --   1613.9789              3122.7522              3123.2641
 Red. masses --      6.4833                 1.0862                 1.0864
 Frc consts  --      9.9504                 6.2408                 6.2442
 IR Inten    --     57.2822               184.5601                27.2759

                     58                     59                     60
                      A                      A                      A
 Frequencies --   3135.2433              3135.3292              3170.2530
 Red. masses --      1.0879                 1.0880                 1.0925
 Frc consts  --      6.3008                 6.3017                 6.4694
 IR Inten    --      3.5210                76.3359                60.6929

                     61                     62                     63
                      A                      A                      A
 Frequencies --   3170.5447              3181.4734              3183.2900
 Red. masses --      1.0926                 1.0902                 1.0898
 Frc consts  --      6.4713                 6.5013                 6.5067
 IR Inten    --     38.3923                30.1003                28.8802

 - Thermochemistry -
 -------------------
 Temperature   298.150 Kelvin.  Pressure   1.00000 Atm.
 Atom     1 has atomic number  8 and mass  15.99491

 Molecular mass:   212.02959 amu.
 Principal axes and moments of inertia in atomic units:
                           1         2         3
     Eigenvalues --  1578.751554222.437325568.10723
           X            0.99373   0.05031   0.09984
           Y           -0.06761   0.98166   0.17823
           Z           -0.08905  -0.18386   0.97891
 This molecule is an asymmetric top.
 Rotational symmetry number  1.
 Warning -- assumption of classical behavior for rotation
           may cause significant error
 Rotational temperatures (Kelvin)      0.05486     0.02051     0.01556
 Rotational constants (GHZ):           1.14314     0.42742     0.32412
 Zero-point vibrational energy     432480.5 (Joules/Mol)
                                  103.36532 (Kcal/Mol)
 Warning -- explicit consideration of  18 degrees of freedom as
           vibrations may cause significant error
 Vibrational temperatures:     83.13   159.38   227.34   276.38   323.61
          (Kelvin)            373.86   420.65   471.37   539.59   579.96
                              617.02   642.82   662.85   737.53   739.88
                              821.09   861.04   889.06   959.37   964.03
                              969.40  1012.26  1031.04  1044.82  1107.82
                             1149.86  1158.13  1267.15  1268.61  1313.21
                             1365.16  1366.73  1437.52  1470.26  1481.53
                             1509.66  1562.08  1566.37  1638.89  1641.80
                             1664.65  1755.99  1791.22  1882.51  1893.62
                             1917.25  1945.64  2022.55  2071.72  2087.62
                             2109.94  2158.27  2172.68  2233.76  2322.16
                             4492.94  4493.68  4510.92  4511.04  4561.29
                             4561.71  4577.43  4580.04

 Zero-point correction=                           0.164723 (Hartree/Particle)
 Thermal correction to Energy=                    0.176021
 Thermal correction to Enthalpy=                  0.176965
 Thermal correction to Gibbs Free Energy=         0.127555
 Sum of electronic and zero-point Energies=           -973.811815
 Sum of electronic and thermal Energies=              -973.800518
 Sum of electronic and thermal Enthalpies=            -973.799574
 Sum of electronic and thermal Free Energies=         -973.848984

                     E (Thermal)             CV                S
                      KCal/Mol        Cal/Mol-Kelvin    Cal/Mol-Kelvin
 Total                  110.455             46.864            103.993
 Electronic               0.000              0.000              0.000
 Translational            0.889              2.981             41.958
 Rotational               0.889              2.981             31.985
 Vibrational            108.677             40.902             30.050
 Vibration     1          0.596              1.974              4.532
 Vibration     2          0.607              1.941              3.255
 Vibration     3          0.621              1.894              2.573
 Vibration     4          0.634              1.851              2.208
 Vibration     5          0.650              1.803              1.919
 Vibration     6          0.668              1.746              1.663
 Vibration     7          0.688              1.688              1.460
 Vibration     8          0.711              1.620              1.272
 Vibration     9          0.746              1.523              1.059
 Vibration    10          0.768              1.463              0.951
 Vibration    11          0.790              1.407              0.862
 Vibration    12          0.806              1.368              0.806
 Vibration    13          0.819              1.337              0.764
 Vibration    14          0.868              1.222              0.627
 Vibration    15          0.869              1.218              0.623
 Vibration    16          0.927              1.095              0.503
 Vibration    17          0.956              1.035              0.452
 Vibration    18          0.978              0.994              0.420

 Optimization completed.
    -- Stationary point found.
 Normal termination of Gaussian 16 at Sun Feb 11 17:08:13 2024.
