 Q-Chem 5.4, Q-Chem, Inc., Pleasanton, CA (2021)
 Q-Chem 5.4.0 for Intel X86 EM64T Linux

User input:
--------------------------------------------------------------
$molecule
-1 2
C                 -1.3155720000      1.9803310000      0.5654440000
C                 -2.6103440000      1.3601730000      0.2525810000
C                 -2.6828540000      0.1061860000     -0.2936330000
C                 -1.5212640000     -0.7004430000     -0.6068970000
C                 -0.2395310000     -0.0957480000     -0.2988610000
C                 -0.1652210000      1.1542160000      0.2482300000
O                 -1.2318680000      3.1300830000      1.0674270000
O                 -1.6108500000     -1.8531710000     -1.1128310000
H                  0.6460910000     -0.6786360000     -0.5206360000
I                  1.7433410000      1.9996450000      0.6885520000
C                 -3.8358960000      2.2106420000      0.5503370000
C                 -4.0523310000      3.2583600000     -0.5608030000
C                 -5.1187050000      1.4049740000      0.7936600000
H                 -3.6404150000     -0.3519640000     -0.5202350000
H                 -3.5998710000      2.7685050000      1.4627130000
H                 -4.2771880000      2.7683660000     -1.5146160000
H                 -3.1559630000      3.8682220000     -0.6853770000
H                 -4.8888480000      3.9232620000     -0.3129370000
H                 -5.4520170000      0.8838130000     -0.1098250000
H                 -5.9301290000      2.0732010000      1.1029320000
H                 -4.9774460000      0.6551840000      1.5773360000
$end

$rem
BASIS  =  6-311++G(d,p)
GUI  =  2
JOB_TYPE  =  SP
METHOD  =  B3LYP
SCF_CONVERGENCE  = 8
SOLVENT_METHOD = sm12
$end

$smx
solvent dimethylformamide
charges CM5
$end

--------------------------------------------------------------

             Standard Nuclear Orientation (Angstroms)
    I     Atom           X                Y                Z
 ----------------------------------------------------------------
    1      C      -1.3155720000     1.9803310000     0.5654440000
    2      C      -2.6103440000     1.3601730000     0.2525810000
    3      C      -2.6828540000     0.1061860000    -0.2936330000
    4      C      -1.5212640000    -0.7004430000    -0.6068970000
    5      C      -0.2395310000    -0.0957480000    -0.2988610000
    6      C      -0.1652210000     1.1542160000     0.2482300000
    7      O      -1.2318680000     3.1300830000     1.0674270000
    8      O      -1.6108500000    -1.8531710000    -1.1128310000
    9      H       0.6460910000    -0.6786360000    -0.5206360000
   10      I       1.7433410000     1.9996450000     0.6885520000
   11      C      -3.8358960000     2.2106420000     0.5503370000
   12      C      -4.0523310000     3.2583600000    -0.5608030000
   13      C      -5.1187050000     1.4049740000     0.7936600000
   14      H      -3.6404150000    -0.3519640000    -0.5202350000
   15      H      -3.5998710000     2.7685050000     1.4627130000
   16      H      -4.2771880000     2.7683660000    -1.5146160000
   17      H      -3.1559630000     3.8682220000    -0.6853770000
   18      H      -4.8888480000     3.9232620000    -0.3129370000
   19      H      -5.4520170000     0.8838130000    -0.1098250000
   20      H      -5.9301290000     2.0732010000     1.1029320000
   21      H      -4.9774460000     0.6551840000     1.5773360000
 ----------------------------------------------------------------

   18   -7418.5403655899      7.70e-09  Convergence criterion met
 Total energy in the final basis set =    -7418.6242561430

                    Orbital Energies (a.u.)
 --------------------------------------------------------------

 Alpha MOs
 -- Occupied --
********-176.2992-165.7027-165.7009-165.7008 -35.7955 -31.2881 -31.2831
-31.2828 -22.9388 -22.9377 -22.9375 -22.9339 -22.9339 -19.0901 -19.0872
-10.2385 -10.2330 -10.2209 -10.1885 -10.1855 -10.1845 -10.1751 -10.1674
-10.1666  -6.3447  -4.7557  -4.7432  -4.7425  -2.0215  -2.0178  -2.0172
 -2.0063  -2.0062  -1.0156  -1.0075  -0.8480  -0.8116  -0.7523  -0.7020
 -0.6926  -0.6576  -0.6268  -0.5691  -0.5577  -0.4994  -0.4826  -0.4633
 -0.4469  -0.4304  -0.4223  -0.4124  -0.4049  -0.3995  -0.3875  -0.3863
 -0.3687  -0.3512  -0.3464  -0.3378  -0.3128  -0.2810  -0.2706  -0.2538
 -0.2519  -0.2451  -0.1748

 Beta MOs
 -- Occupied --
********-176.2992-165.7027-165.7009-165.7008 -35.7955 -31.2882 -31.2831
-31.2828 -22.9388 -22.9377 -22.9375 -22.9339 -22.9339 -19.0829 -19.0797
-10.2372 -10.2322 -10.2197 -10.1876 -10.1855 -10.1828 -10.1742 -10.1673
-10.1665  -6.3447  -4.7557  -4.7431  -4.7425  -2.0216  -2.0178  -2.0172
 -2.0063  -2.0062  -1.0032  -0.9944  -0.8428  -0.8094  -0.7502  -0.6948
 -0.6903  -0.6552  -0.6241  -0.5654  -0.5558  -0.4972  -0.4784  -0.4619
 -0.4459  -0.4212  -0.4169  -0.4075  -0.3969  -0.3957  -0.3864  -0.3691
 -0.3570  -0.3499  -0.3449  -0.3362  -0.2982  -0.2698  -0.2564  -0.2470
 -0.2456  -0.2390

          Ground-State Mulliken Net Atomic Charges

     Atom                 Charge (a.u.)    Spin (a.u.)
  --------------------------------------------------------
      1 C                    -2.336150       0.004425
      2 C                     1.299156       0.087154
      3 C                    -0.647930       0.032516
      4 C                    -1.001502       0.098813
      5 C                    -0.343899       0.130905
      6 C                     0.476317       0.109971
      7 O                    -0.211411       0.266919
      8 O                    -0.360204       0.268510
      9 H                     0.151420      -0.010641
     10 I                     0.035415      -0.000887
     11 C                     0.827105       0.006926
     12 C                    -0.433805       0.012403
     13 C                     0.153227      -0.000988
     14 H                     0.141169      -0.005987
     15 H                     0.131430       0.002002
     16 H                     0.134154      -0.000894
     17 H                     0.118077      -0.002317
     18 H                     0.260731       0.001876
     19 H                     0.167923      -0.000124
     20 H                     0.318152      -0.000419
     21 H                     0.120623      -0.000162
  --------------------------------------------------------
  Sum of atomic charges =    -1.000000

                    Cartesian Multipole Moments
 -----------------------------------------------------------------
    Charge (ESU x 10^10)
                -4.8032
    Dipole Moment (Debye)
         X       3.8758      Y      -3.3457      Z      -0.0089
       Tot       5.1201
    Quadrupole Moments (Debye-Ang)
        XX    -108.4237     XY      -2.8277     YY    -130.9931
        XZ      -3.2049     YZ     -12.3314     ZZ    -105.3081

 Total job time:  364.00s(wall), 2721.22s(cpu)
        *  Thank you very much for using Q-Chem.  Have a nice day.  *
