 Q-Chem 5.4, Q-Chem, Inc., Pleasanton, CA (2021)
 Q-Chem 5.4.0 for Intel X86 EM64T Linux

User input:
--------------------------------------------------------------
$molecule
-2 1
O                  1.2604880000      0.8110080000      2.2445280000
C                  0.6877410000      0.4818820000      1.1437010000
C                 -0.7358280000      0.5371550000      0.9838340000
C                 -1.4267000000      0.2691550000     -0.1947960000
N                 -2.8415450000      0.4002640000     -0.3023260000
C                 -3.5773630000      1.2879020000      0.5882630000
C                 -4.5322050000      0.5317030000      1.5245890000
C                 -5.5917440000     -0.2464750000      0.7076670000
C                 -5.0628170000     -0.5894090000     -0.7034350000
C                 -3.5525200000     -0.8236090000     -0.6986250000
C                 -0.6951780000     -0.1546530000     -1.3842680000
O                 -1.2620860000     -0.4110480000     -2.5062230000
C                  0.7235030000     -0.2768100000     -1.2056310000
C                  1.4161820000      0.0317220000     -0.0380730000
N                  2.8376010000     -0.0209000000      0.0291300000
C                  3.6163980000     -0.0884420000     -1.1893320000
C                  4.9898820000      0.5994400000     -0.9785020000
C                  5.4154440000      0.5718600000      0.5018420000
C                  4.9450890000     -0.7341790000      1.1445660000
C                  3.4019750000     -0.8441150000      1.1022580000
H                 -1.2694520000      0.8537360000      1.8756460000
H                 -4.1771110000      2.0051740000     -0.0050630000
H                 -2.8699670000      1.8871580000      1.1596340000
H                 -5.0185950000      1.2288340000      2.2203750000
H                 -3.9405530000     -0.1625850000      2.1303480000
H                 -5.8682230000     -1.1658060000      1.2388220000
H                 -6.5150190000      0.3408360000      0.6265470000
H                 -5.5767130000     -1.4742760000     -1.0993860000
H                 -5.2834440000      0.2327050000     -1.3945340000
H                 -3.1764750000     -1.1129220000     -1.6830420000
H                 -3.3215220000     -1.6542210000     -0.0013980000
H                  1.2533690000     -0.6344740000     -2.0827840000
H                  3.7692440000     -1.1373440000     -1.5255710000
H                  3.0686550000      0.4127370000     -1.9867640000
H                  5.7471130000      0.0934310000     -1.5948870000
H                  4.9430000000      1.6377190000     -1.3270720000
H                  4.9545660000      1.4110580000      1.0300740000
H                  6.5045090000      0.6890300000      0.5890390000
H                  5.2905040000     -0.8086180000      2.1820980000
H                  5.4058170000     -1.5743260000      0.6075440000
H                  3.1163420000     -1.9072300000      0.9581700000
H                  2.9476390000     -0.4930680000      2.0290620000
$end
$rem
MAX_SCF_CYCLES=200
BASIS  =  6-311++G(d,p)
GUI  =  2
JOB_TYPE  =  SP
METHOD  =  B3LYP
SOLVENT_METHOD = PCM
$end
$pcm
theory = CPCM
$end
$solvent
dielectric 37.219
opticaldielectric 1.43
$end

--------------------------------------------------------------

             Standard Nuclear Orientation (Angstroms)
    I     Atom           X                Y                Z
 ----------------------------------------------------------------
    1      O       1.2604880000     0.8110080000     2.2445280000
    2      C       0.6877410000     0.4818820000     1.1437010000
    3      C      -0.7358280000     0.5371550000     0.9838340000
    4      C      -1.4267000000     0.2691550000    -0.1947960000
    5      N      -2.8415450000     0.4002640000    -0.3023260000
    6      C      -3.5773630000     1.2879020000     0.5882630000
    7      C      -4.5322050000     0.5317030000     1.5245890000
    8      C      -5.5917440000    -0.2464750000     0.7076670000
    9      C      -5.0628170000    -0.5894090000    -0.7034350000
   10      C      -3.5525200000    -0.8236090000    -0.6986250000
   11      C      -0.6951780000    -0.1546530000    -1.3842680000
   12      O      -1.2620860000    -0.4110480000    -2.5062230000
   13      C       0.7235030000    -0.2768100000    -1.2056310000
   14      C       1.4161820000     0.0317220000    -0.0380730000
   15      N       2.8376010000    -0.0209000000     0.0291300000
   16      C       3.6163980000    -0.0884420000    -1.1893320000
   17      C       4.9898820000     0.5994400000    -0.9785020000
   18      C       5.4154440000     0.5718600000     0.5018420000
   19      C       4.9450890000    -0.7341790000     1.1445660000
   20      C       3.4019750000    -0.8441150000     1.1022580000
   21      H      -1.2694520000     0.8537360000     1.8756460000
   22      H      -4.1771110000     2.0051740000    -0.0050630000
   23      H      -2.8699670000     1.8871580000     1.1596340000
   24      H      -5.0185950000     1.2288340000     2.2203750000
   25      H      -3.9405530000    -0.1625850000     2.1303480000
   26      H      -5.8682230000    -1.1658060000     1.2388220000
   27      H      -6.5150190000     0.3408360000     0.6265470000
   28      H      -5.5767130000    -1.4742760000    -1.0993860000
   29      H      -5.2834440000     0.2327050000    -1.3945340000
   30      H      -3.1764750000    -1.1129220000    -1.6830420000
   31      H      -3.3215220000    -1.6542210000    -0.0013980000
   32      H       1.2533690000    -0.6344740000    -2.0827840000
   33      H       3.7692440000    -1.1373440000    -1.5255710000
   34      H       3.0686550000     0.4127370000    -1.9867640000
   35      H       5.7471130000     0.0934310000    -1.5948870000
   36      H       4.9430000000     1.6377190000    -1.3270720000
   37      H       4.9545660000     1.4110580000     1.0300740000
   38      H       6.5045090000     0.6890300000     0.5890390000
   39      H       5.2905040000    -0.8086180000     2.1820980000
   40      H       5.4058170000    -1.5743260000     0.6075440000
   41      H       3.1163420000    -1.9072300000     0.9581700000
   42      H       2.9476390000    -0.4930680000     2.0290620000
 ----------------------------------------------------------------

    9    -883.3371642856      8.32e-06  Convergence criterion met
 Total energy in the final basis set =     -883.3371642856

                    Orbital Energies (a.u.)
 --------------------------------------------------------------

 Alpha MOs
 -- Occupied --
-19.0079 -19.0075 -14.2825 -14.2768 -10.1727 -10.1721 -10.1641 -10.1638
-10.1580 -10.1570 -10.1519 -10.1504 -10.1500 -10.1499 -10.1498 -10.1495
-10.1457 -10.1434 -10.1078 -10.1074  -0.9342  -0.9295  -0.9017  -0.8961
 -0.7851  -0.7778  -0.7461  -0.7320  -0.7305  -0.6859  -0.6432  -0.6333
 -0.6151  -0.6090  -0.5948  -0.5525  -0.5307  -0.5149  -0.5061  -0.4800
 -0.4752  -0.4704  -0.4559  -0.4433  -0.4240  -0.4161  -0.4058  -0.4039
 -0.3911  -0.3879  -0.3857  -0.3761  -0.3754  -0.3657  -0.3557  -0.3521
 -0.3470  -0.3467  -0.3416  -0.3378  -0.3210  -0.3200  -0.3105  -0.3091
 -0.3026  -0.2994  -0.2983  -0.2958  -0.2397  -0.2270  -0.1903  -0.1873
 -0.1856  -0.1577  -0.0992

          Ground-State Mulliken Net Atomic Charges

     Atom                 Charge (a.u.)
  ----------------------------------------
      1 O                    -0.741711
      2 C                    -0.229013
      3 C                    -0.150719
      4 C                    -0.424591
      5 N                     0.220605
      6 C                    -0.228535
      7 C                    -0.148329
      8 C                    -0.510825
      9 C                    -0.326834
     10 C                    -0.204391
     11 C                    -0.270586
     12 O                    -0.751978
     13 C                     0.050769
     14 C                    -0.394049
     15 N                     0.282273
     16 C                    -0.168390
     17 C                    -0.424083
     18 C                    -0.260706
     19 C                    -0.409150
     20 C                    -0.183771
     21 H                     0.136106
     22 H                     0.152192
     23 H                     0.160333
     24 H                     0.157783
     25 H                     0.145618
     26 H                     0.155581
     27 H                     0.137486
     28 H                     0.169408
     29 H                     0.159188
     30 H                     0.195325
     31 H                     0.097014
     32 H                     0.153102
     33 H                     0.122862
     34 H                     0.147644
     35 H                     0.130697
     36 H                     0.151497
     37 H                     0.129565
     38 H                     0.175310
     39 H                     0.159943
     40 H                     0.145857
     41 H                     0.098089
     42 H                     0.193410
  ----------------------------------------
  Sum of atomic charges =    -2.000007

                    Cartesian Multipole Moments
 -----------------------------------------------------------------
    Charge (ESU x 10^10)
                -9.6064
    Dipole Moment (Debye)
         X      -0.1359      Y      -2.3516      Z       1.7460
       Tot       2.9321
    Quadrupole Moments (Debye-Ang)
        XX    -146.7416     XY      -6.4221     YY    -137.3461
        XZ     -25.3353     YZ     -10.4962     ZZ    -177.7980

 Total job time:  143.86s(wall), 731.37s(cpu)
        *  Thank you very much for using Q-Chem.  Have a nice day.  *
