 Gaussian 16, Revision A.03,
 Gaussian 16:  ES64L-G16RevA.03 25-Dec-2016

 --------------------------------------
 #P UB3LYP/6-311++G(d,p) nosym opt freq
 --------------------------------------

 -------
 Radical
 -------
 Symbolic Z-matrix:
 Charge = -1 Multiplicity = 2

 SCF Done:  E(UB3LYP) =  -2019.80116389     A.U. after   20 cycles
 SCF Done:  E(UB3LYP) =  -2019.80116387     A.U. after   13 cycles
 SCF Done:  E(UB3LYP) =  -2019.80116386     A.U. after   15 cycles
 SCF Done:  E(UB3LYP) =  -2019.80116389     A.U. after   13 cycles
 Optimization completed.
    -- Stationary point found.
 Normal termination of Gaussian 16 at Wed Jan 10 06:21:36 2024.

 ----------------------------------------------------------------------
 #P Geom=AllCheck Guess=TCheck SCRF=Check GenChk UB3LYP/6-311++G(d,p) F
 req
 ----------------------------------------------------------------------

 Structure from the checkpoint file:  "073-rad.chk"
 -------
 Radical
 -------
 Charge = -1 Multiplicity = 2

                          Input orientation:
 ---------------------------------------------------------------------
 Center     Atomic      Atomic             Coordinates (Angstroms)
 Number     Number       Type             X           Y           Z
 ---------------------------------------------------------------------
      1          6           0        0.871770    1.226679   -1.385504
      2          6           0       -0.519947    1.146894   -1.852146
      3          6           0       -1.425769    0.449385   -1.082402
      4          6           0       -1.074042   -0.295435    0.115347
      5          6           0        0.310563   -0.190691    0.598111
      6          6           0        1.194900    0.582135   -0.123259
      7          8           0        1.741461    1.837946   -2.050298
      8          8           0       -1.918689   -0.994598    0.723407
      9         16           0        2.924077    0.795152    0.405149
     10          6           0        3.267692    2.578968    0.326512
     11          6           0        3.976508    3.103464   -0.748989
     12          6           0        2.878289    3.376058    1.398931
     13          6           0        3.193792    4.734290    1.385360
     14          6           0        4.302099    4.457523   -0.745660
     15          6           0        3.907643    5.273233    0.315818
     16          8           0        3.835881    0.117077   -0.527232
     17          8           0        3.017125    0.464498    1.840819
     18          1           0        4.245598    2.453838   -1.569863
     19          1           0        2.350448    2.933645    2.234478
     20          1           0        4.854271    4.878430   -1.578852
     21          1           0        2.890686    5.365742    2.213481
     22          1           0        4.155660    6.329535    0.308209
     23         16           0       -3.177008    0.314869   -1.561398
     24          6           0       -4.146751    0.711647   -0.075444
     25          6           0       -4.366790    2.050649    0.233808
     26          6           0       -4.716713   -0.310782    0.675520
     27          6           0       -5.526295    0.019758    1.759365
     28          6           0       -5.164808    2.371860    1.331317
     29          6           0       -5.746291    1.357471    2.090821
     30          1           0       -3.930938    2.824720   -0.385338
     31          1           0       -4.507262   -1.337864    0.411835
     32          1           0       -5.976140   -0.768621    2.352967
     33          1           0       -5.338659    3.412063    1.584562
     34          1           0       -6.370010    1.608828    2.942370
     35          8           0       -3.499388   -1.063569   -1.957154
     36          8           0       -3.486899    1.405673   -2.506543
     37          6           0       -0.797082    1.838826   -3.161691
     38          6           0        0.614366   -0.976605    1.847375
     39          1           0        0.156694    2.130416   -3.598692
     40          1           0       -1.411801    2.730474   -3.016272
     41          1           0       -1.346593    1.197608   -3.851160
     42          1           0       -0.240699   -1.616033    2.061062
     43          1           0        0.788640   -0.314749    2.699185
     44          1           0        1.516541   -1.578945    1.738601
 ---------------------------------------------------------------------

 SCF Done:  E(UB3LYP) =  -2019.80116389     A.U. after    2 cycles

 Alpha  occ. eigenvalues --  -88.94423 -88.94421 -19.00695 -19.00690 -19.00526
 Alpha  occ. eigenvalues --  -19.00525 -18.98294 -18.98292 -10.13590 -10.13587
 Alpha  occ. eigenvalues --  -10.11824 -10.11822 -10.10800 -10.10800 -10.10643
 Alpha  occ. eigenvalues --  -10.10642 -10.10528 -10.10528 -10.10307 -10.10306
 Alpha  occ. eigenvalues --  -10.10140 -10.10138 -10.10117 -10.10116 -10.09888
 Alpha  occ. eigenvalues --  -10.09886 -10.05558 -10.05557  -8.00773  -8.00771
 Alpha  occ. eigenvalues --   -5.97033  -5.97031  -5.96957  -5.96955  -5.96888
 Alpha  occ. eigenvalues --   -5.96886  -0.99981  -0.99970  -0.91506  -0.91256
 Alpha  occ. eigenvalues --   -0.89428  -0.89412  -0.78879  -0.78877  -0.74772
 Alpha  occ. eigenvalues --   -0.70487  -0.69003  -0.68673  -0.67759  -0.67757
 Alpha  occ. eigenvalues --   -0.63294  -0.62790  -0.59125  -0.56341  -0.54765
 Alpha  occ. eigenvalues --   -0.53696  -0.53683  -0.53295  -0.50268  -0.47825
 Alpha  occ. eigenvalues --   -0.46123  -0.45252  -0.44231  -0.41568  -0.40512
 Alpha  occ. eigenvalues --   -0.39443  -0.38785  -0.38726  -0.37715  -0.37514
 Alpha  occ. eigenvalues --   -0.37090  -0.36949  -0.35347  -0.35312  -0.34499
 Alpha  occ. eigenvalues --   -0.34282  -0.33578  -0.32769  -0.31960  -0.31485
 Alpha  occ. eigenvalues --   -0.30321  -0.30181  -0.29947  -0.29541  -0.29531
 Alpha  occ. eigenvalues --   -0.28685  -0.28260  -0.27861  -0.27705  -0.27513
 Alpha  occ. eigenvalues --   -0.27287  -0.27081  -0.23048  -0.22854  -0.21860
 Alpha  occ. eigenvalues --   -0.21764  -0.20330  -0.20106  -0.19681  -0.19408
 Alpha  occ. eigenvalues --   -0.18754  -0.18435  -0.18374  -0.18131  -0.17896
 Alpha  occ. eigenvalues --   -0.16273  -0.15165  -0.13811  -0.06950
 Alpha virt. eigenvalues --    0.03744   0.04687   0.05696   0.05910   0.06016
 Alpha virt. eigenvalues --    0.06216   0.06747   0.07626   0.07881   0.08709
 Alpha virt. eigenvalues --    0.09092   0.09828   0.10026   0.11325   0.11509

  Beta  occ. eigenvalues --  -88.94424 -88.94423 -19.00692 -19.00687 -19.00527
  Beta  occ. eigenvalues --  -19.00525 -18.97588 -18.97586 -10.13503 -10.13501
  Beta  occ. eigenvalues --  -10.11823 -10.11821 -10.10800 -10.10800 -10.10643
  Beta  occ. eigenvalues --  -10.10643 -10.10527 -10.10526 -10.10306 -10.10305
  Beta  occ. eigenvalues --  -10.10140 -10.10138 -10.10089 -10.10087 -10.09657
  Beta  occ. eigenvalues --  -10.09655 -10.05574 -10.05572  -8.00774  -8.00772
  Beta  occ. eigenvalues --   -5.97034  -5.97032  -5.96958  -5.96956  -5.96890
  Beta  occ. eigenvalues --   -5.96888  -0.99972  -0.99963  -0.90350  -0.90096
  Beta  occ. eigenvalues --   -0.89404  -0.89353  -0.78877  -0.78875  -0.74172
  Beta  occ. eigenvalues --   -0.70267  -0.68988  -0.68582  -0.67757  -0.67755
  Beta  occ. eigenvalues --   -0.62847  -0.62645  -0.59016  -0.56221  -0.54253
  Beta  occ. eigenvalues --   -0.53694  -0.53672  -0.53192  -0.50210  -0.47723
  Beta  occ. eigenvalues --   -0.45730  -0.45216  -0.44142  -0.41417  -0.40418
  Beta  occ. eigenvalues --   -0.39304  -0.38775  -0.38721  -0.37680  -0.37364
  Beta  occ. eigenvalues --   -0.37056  -0.36935  -0.35339  -0.35307  -0.34321
  Beta  occ. eigenvalues --   -0.34266  -0.32744  -0.32373  -0.31387  -0.30994
  Beta  occ. eigenvalues --   -0.30161  -0.30128  -0.29704  -0.29510  -0.29450
  Beta  occ. eigenvalues --   -0.28554  -0.27712  -0.27621  -0.27284  -0.27201
  Beta  occ. eigenvalues --   -0.26816  -0.25576  -0.22959  -0.22780  -0.21728
  Beta  occ. eigenvalues --   -0.21623  -0.20229  -0.20055  -0.19576  -0.19309
  Beta  occ. eigenvalues --   -0.18356  -0.18334  -0.18317  -0.17861  -0.15628
  Beta  occ. eigenvalues --   -0.15483  -0.14528  -0.13247
  Beta virt. eigenvalues --    0.00146   0.04138   0.04724   0.05718   0.05910
  Beta virt. eigenvalues --    0.06114   0.06256   0.07597   0.07790   0.07882
  Beta virt. eigenvalues --    0.08720   0.09094   0.09837   0.10038   0.11358

 Mulliken charges and spin densities:
               1          2
     1  C   -1.042188  -0.011145
     2  C    0.610401   0.170670
     3  C    0.227296   0.085399
     4  C   -1.043539  -0.010977
     5  C    0.610544   0.170483
     6  C    0.224878   0.085373
     7  O   -0.244859   0.265701
     8  O   -0.244459   0.265820
     9  S    0.200152  -0.032868
    10  C    0.246587  -0.004664
    11  C   -0.283112   0.025829
    12  C    0.225375  -0.008650
    13  C   -0.515737   0.002353
    14  C   -0.376016  -0.003827
    15  C   -0.248695   0.000329
    16  O   -0.084621   0.004756
    17  O   -0.102834  -0.001692
    18  H    0.272969   0.000553
    19  H    0.230634   0.000478
    20  H    0.166982  -0.000149
    21  H    0.162402   0.000023
    22  H    0.140499   0.000021
    23  S    0.202025  -0.032748
    24  C    0.243419  -0.004669
    25  C    0.226577  -0.008748
    26  C   -0.283093   0.025828
    27  C   -0.374730  -0.003822
    28  C   -0.515319   0.002351
    29  C   -0.248997   0.000311
    30  H    0.230817   0.000471
    31  H    0.272615   0.000559
    32  H    0.166994  -0.000148
    33  H    0.162423   0.000025
    34  H    0.140474   0.000023
    35  O   -0.084084   0.004731
    36  O   -0.103055  -0.001706
    37  C   -0.628252  -0.005945
    38  C   -0.627437  -0.005950
    39  H    0.185480  -0.001423
    40  H    0.177550   0.008726
    41  H    0.180604   0.005516
    42  H    0.185853  -0.001463
    43  H    0.177275   0.008705
    44  H    0.180202   0.005561
 Sum of Mulliken charges =  -1.00000   1.00000

 Dipole moment (field-independent basis, Debye):
    X=             -0.3602    Y=              0.6976    Z=              4.9472  Tot=              5.0091
 Quadrupole moment (field-independent basis, Debye-Ang):
   XX=           -237.6697   YY=           -181.0770   ZZ=           -201.2606
   XY=             -3.4614   XZ=            -21.7641   YZ=              6.3055

  Exact polarizability: 368.747  50.008 296.463 -32.929 -20.778 286.561
 Approx polarizability: 488.783  67.885 508.589 -88.660 -57.835 502.623

                      1                      2                      3
                      A                      A                      A
 Frequencies --     13.7977                18.7270                27.9240
 Red. masses --      5.9956                 6.0807                 4.1576
 Frc consts  --      0.0007                 0.0013                 0.0019
 IR Inten    --      0.7389                 0.0349                 0.3618

                      4                      5                      6
                      A                      A                      A
 Frequencies --     37.0272                45.8773                56.0043
 Red. masses --      6.5427                 4.6390                 3.8554
 Frc consts  --      0.0053                 0.0058                 0.0071
 IR Inten    --      1.3851                 0.0029                 1.0889

                      7                      8                      9
                      A                      A                      A
 Frequencies --     69.3476                96.1115                97.2837
 Red. masses --      4.0740                 5.8858                 5.2533
 Frc consts  --      0.0115                 0.0320                 0.0293
 IR Inten    --      1.1560                 0.1691                 4.3375

                     10                     11                     12
                      A                      A                      A
 Frequencies --    139.9331               141.3898               145.0526
 Red. masses --      4.6942                 1.1236                 1.1734
 Frc consts  --      0.0542                 0.0132                 0.0145
 IR Inten    --      1.5380                 0.0925                 0.2789

                     13                     14                     15
                      A                      A                      A
 Frequencies --    172.3074               177.4090               180.1846
 Red. masses --      7.1215                 7.7529                 6.4858
 Frc consts  --      0.1246                 0.1438                 0.1241
 IR Inten    --      1.4850                 0.1135                 0.6725

                     16                     17                     18
                      A                      A                      A
 Frequencies --    186.0713               205.2828               215.2904
 Red. masses --      6.0720                 7.1639                 6.2299
 Frc consts  --      0.1239                 0.1779                 0.1701
 IR Inten    --      6.2391                 8.9163                 1.5793

                     19                     20                     21
                      A                      A                      A
 Frequencies --    238.7813               240.8208               274.8321
 Red. masses --      8.4927                 6.5154                 9.0102
 Frc consts  --      0.2853                 0.2226                 0.4010
 IR Inten    --      0.5428                 1.1230                 0.0553

                     22                     23                     24
                      A                      A                      A
 Frequencies --    296.7596               305.7944               306.8704
 Red. masses --      7.8430                 8.7924                 8.3796
 Frc consts  --      0.4070                 0.4844                 0.4649
 IR Inten    --      0.1091                 1.0320                 2.8793

                     25                     26                     27
                      A                      A                      A
 Frequencies --    346.5425               376.3128               383.2659
 Red. masses --      5.4477                 4.1499                 4.7430
 Frc consts  --      0.3855                 0.3462                 0.4105
 IR Inten    --      0.7735                 1.0594                 1.4386

                     28                     29                     30
                      A                      A                      A
 Frequencies --    390.5588               406.2764               412.4628
 Red. masses --      5.3026                 5.1354                 2.8831
 Frc consts  --      0.4765                 0.4994                 0.2890
 IR Inten    --      4.4284                 0.4230                 0.0920

                     31                     32                     33
                      A                      A                      A
 Frequencies --    413.3395               423.2480               430.9588
 Red. masses --      3.0939                 8.8038                 6.2539
 Frc consts  --      0.3114                 0.9292                 0.6843
 IR Inten    --      0.0207                31.3720                 0.4905

                     34                     35                     36
                      A                      A                      A
 Frequencies --    455.0677               462.3003               476.1185
 Red. masses --      8.9242                 4.9019                 4.8298
 Frc consts  --      1.0889                 0.6173                 0.6451
 IR Inten    --     16.5880                 1.3287                 9.8519

                     37                     38                     39
                      A                      A                      A
 Frequencies --    502.7803               520.5004               546.8453
 Red. masses --      9.5510                 8.3837                11.1174
 Frc consts  --      1.4225                 1.3382                 1.9588
 IR Inten    --     32.2467                 3.3205                40.0711

                     40                     41                     42
                      A                      A                      A
 Frequencies --    581.3087               595.0432               595.4972
 Red. masses --      5.9483                 8.7604                 7.8169
 Frc consts  --      1.1843                 1.8275                 1.6332
 IR Inten    --      9.1832               509.5479                39.5964

                     43                     44                     45
                      A                      A                      A
 Frequencies --    628.2580               628.3178               699.7546
 Red. masses --      6.4201                 6.4204                 3.0039
 Frc consts  --      1.4930                 1.4934                 0.8666
 IR Inten    --      0.0591                 0.0779                 0.0567

                     46                     47                     48
                      A                      A                      A
 Frequencies --    700.4084               701.4073               711.7112
 Red. masses --      1.7952                 2.5477                 6.9975
 Frc consts  --      0.5189                 0.7385                 2.0883
 IR Inten    --    115.5673                 0.6067                55.4005

                     49                     50                     51
                      A                      A                      A
 Frequencies --    714.3211               732.6909               747.2667
 Red. masses --      6.1873                 6.3284                 4.0945
 Frc consts  --      1.8601                 2.0016                 1.3471
 IR Inten    --      7.8547                49.1383                43.4082

                     52                     53                     54
                      A                      A                      A
 Frequencies --    760.6756               762.0747               770.8753
 Red. masses --      1.8595                 2.5705                 4.9033
 Frc consts  --      0.6339                 0.8796                 1.7167
 IR Inten    --      0.0848                 5.7500                 3.3953

                     55                     56                     57
                      A                      A                      A
 Frequencies --    842.4724               845.3501               845.9355
 Red. masses --      6.8154                 1.2459                 1.3111
 Frc consts  --      2.8500                 0.5246                 0.5528
 IR Inten    --     11.0829                 0.5254                 0.2655

                     58                     59                     60
                      A                      A                      A
 Frequencies --    906.2558               930.9846               931.2649
 Red. masses --      2.6553                 1.3837                 1.3856
 Frc consts  --      1.2849                 0.7066                 0.7080
 IR Inten    --      1.2603                 0.1605                 0.7071

                     61                     62                     63
                      A                      A                      A
 Frequencies --    980.3955               980.4960               993.2810
 Red. masses --      1.3756                 1.3739                 1.3068
 Frc consts  --      0.7790                 0.7782                 0.7596
 IR Inten    --      0.2328                 0.0549                 0.0737

                     64                     65                     66
                      A                      A                      A
 Frequencies --    993.3285              1014.6947              1015.1445
 Red. masses --      1.3071                 6.0216                 6.0406
 Frc consts  --      0.7599                 3.6528                 3.6676
 IR Inten    --      0.1112                13.3759                 0.8307

                     67                     68                     69
                      A                      A                      A
 Frequencies --   1035.1718              1040.2765              1042.8506
 Red. masses --      4.3539                 3.6094                 1.5006
 Frc consts  --      2.7489                 2.3013                 0.9615
 IR Inten    --     45.8115                18.4164                 1.8250

                     70                     71                     72
                      A                      A                      A
 Frequencies --   1045.3813              1047.2776              1061.6919
 Red. masses --      2.7430                 1.5207                 1.7087
 Frc consts  --      1.7662                 0.9827                 1.1348
 IR Inten    --     14.5571                 0.0858                 0.1092

                     73                     74                     75
                      A                      A                      A
 Frequencies --   1062.4248              1065.1869              1095.0501
 Red. masses --      4.1381                 3.9835                 1.6118
 Frc consts  --      2.7520                 2.6629                 1.1388
 IR Inten    --    226.8174                25.3306                 3.9010

                     76                     77                     78
                      A                      A                      A
 Frequencies --   1095.2219              1101.1050              1106.2069
 Red. masses --      1.5836                 4.8777                 3.7585
 Frc consts  --      1.1192                 3.4843                 2.7098
 IR Inten    --     16.2829                 5.1416                89.7835

                     79                     80                     81
                      A                      A                      A
 Frequencies --   1108.9188              1152.8557              1177.4825
 Red. masses --      4.2004                 7.8131                 1.1147
 Frc consts  --      3.0433                 6.1182                 0.9106
 IR Inten    --     89.7434                27.4717                 0.1007

                     82                     83                     84
                      A                      A                      A
 Frequencies --   1177.4945              1195.3397              1195.6386
 Red. masses --      1.1149                 1.1492                 1.1489
 Frc consts  --      0.9108                 0.9674                 0.9677
 IR Inten    --      0.1478                10.4588                 2.1675

                     85                     86                     87
                      A                      A                      A
 Frequencies --   1220.6760              1240.6486              1246.1402
 Red. masses --      4.9647                17.4719                 9.6659
 Frc consts  --      4.3586                15.8449                 8.8435
 IR Inten    --     27.7647               190.5184               180.1224

                     88                     89                     90
                      A                      A                      A
 Frequencies --   1331.5202              1331.5523              1342.6591
 Red. masses --      2.2015                 2.1989                 2.2450
 Frc consts  --      2.2996                 2.2971                 2.3845
 IR Inten    --      0.1244                 0.1031                 1.0996

                     91                     92                     93
                      A                      A                      A
 Frequencies --   1342.8367              1368.7054              1400.5547
 Red. masses --      2.2612                 4.7583                 1.2445
 Frc consts  --      2.4023                 5.2520                 1.4383
 IR Inten    --      5.2913                 0.5483                41.1466

                     94                     95                     96
                      A                      A                      A
 Frequencies --   1403.7795              1462.6774              1472.5445
 Red. masses --      1.2443                 1.4303                 2.1419
 Frc consts  --      1.4447                 1.8029                 2.7365
 IR Inten    --      0.0465               149.5356                10.7848

                     97                     98                     99
                      A                      A                      A
 Frequencies --   1472.5866              1473.5873              1483.7327
 Red. masses --      2.1428                 1.2287                 1.8389
 Frc consts  --      2.7377                 1.5719                 2.3852
 IR Inten    --     10.9438                 9.8403                47.9691

                    100                    101                    102
                      A                      A                      A
 Frequencies --   1492.9253              1498.4242              1506.4823
 Red. masses --      1.0569                 1.3615                 2.0561
 Frc consts  --      1.3879                 1.8011                 2.7493
 IR Inten    --     11.5111                25.4431                 4.9911

                    103                    104                    105
                      A                      A                      A
 Frequencies --   1506.5803              1524.9241              1537.3103
 Red. masses --      2.0570                 6.7169                 7.9522
 Frc consts  --      2.7509                 9.2028                11.0729
 IR Inten    --      5.0239                 1.2647               394.7795

                    106                    107                    108
                      A                      A                      A
 Frequencies --   1599.1301              1621.5439              1621.6684
 Red. masses --      9.9433                 5.4485                 5.4494
 Frc consts  --     14.9813                 8.4409                 8.4436
 IR Inten    --      0.3968                 1.2004                 0.7962

                    109                    110                    111
                      A                      A                      A
 Frequencies --   1626.3665              1626.4256              3045.4997
 Red. masses --      5.9087                 5.9085                 1.0380
 Frc consts  --      9.2082                 9.2086                 5.6725
 IR Inten    --      0.1782                 0.4964                46.4970

                    112                    113                    114
                      A                      A                      A
 Frequencies --   3045.7207              3099.1926              3099.3913
 Red. masses --      1.0381                 1.0955                 1.0954
 Frc consts  --      5.6735                 6.1998                 6.2000
 IR Inten    --      0.3255                 9.2530                20.1961

                    115                    116                    117
                      A                      A                      A
 Frequencies --   3135.8539              3135.9634              3152.2678
 Red. masses --      1.1029                 1.1029                 1.0851
 Frc consts  --      6.3899                 6.3904                 6.3529
 IR Inten    --      9.3202                 1.5363                 1.3137

                    118                    119                    120
                      A                      A                      A
 Frequencies --   3152.2894              3166.9110              3166.9336
 Red. masses --      1.0851                 1.0898                 1.0898
 Frc consts  --      6.3530                 6.4399                 6.4399
 IR Inten    --      1.2963                21.0646                25.8073

                    121                    122                    123
                      A                      A                      A
 Frequencies --   3177.6662              3177.7464              3198.5226
 Red. masses --      1.0952                 1.0952                 1.0931
 Frc consts  --      6.5160                 6.5161                 6.5887
 IR Inten    --     48.8795                26.4227                 0.7141

                    124                    125                    126
                      A                      A                      A
 Frequencies --   3198.5647              3223.7394              3223.9638
 Red. masses --      1.0931                 1.0928                 1.0928
 Frc consts  --      6.5890                 6.6912                 6.6921
 IR Inten    --      9.7707                 3.7274                 3.7453

 - Thermochemistry -
 -------------------
 Temperature   298.150 Kelvin.  Pressure   1.00000 Atm.
 Atom     1 has atomic number  6 and mass  12.00000

 Molecular mass:   416.03883 amu.
 Principal axes and moments of inertia in atomic units:
                           1         2         3
     Eigenvalues --  6173.77591********************
           X            0.96501   0.11305  -0.23659
           Y            0.26108  -0.49792   0.82699
           Z            0.02432   0.85982   0.51001
 This molecule is an asymmetric top.
 Rotational symmetry number  1.
 Warning -- assumption of classical behavior for rotation
           may cause significant error
 Rotational temperatures (Kelvin)      0.01403     0.00435     0.00432
 Rotational constants (GHZ):           0.29232     0.09054     0.08998
 Zero-point vibrational energy     836228.3 (Joules/Mol)
                                  199.86336 (Kcal/Mol)
 Warning -- explicit consideration of  42 degrees of freedom as
           vibrations may cause significant error
 Vibrational temperatures:     19.85    26.94    40.18    53.27    66.01
          (Kelvin)             80.58    99.78   138.28   139.97   201.33
                              203.43   208.70   247.91   255.25   259.25
                              267.72   295.36   309.75   343.55   346.49
                              395.42   426.97   439.97   441.52   498.60
                              541.43   551.43   561.93   584.54   593.44
                              594.70   608.96   620.05   654.74   665.15
                              685.03   723.39   748.88   786.79   836.37
                              856.13   856.79   903.92   904.01  1006.79
                             1007.73  1009.17  1023.99  1027.75  1054.18
                             1075.15  1094.44  1096.46  1109.12  1212.13
                             1216.27  1217.11  1303.90  1339.48  1339.88
                             1410.57  1410.71  1429.11  1429.18  1459.92
                             1460.57  1489.38  1496.73  1500.43  1504.07
                             1506.80  1527.54  1528.59  1532.57  1575.53
                             1575.78  1584.24  1591.58  1595.49  1658.70
                             1694.13  1694.15  1719.83  1720.26  1756.28
                             1785.02  1792.92  1915.76  1915.81  1931.79
                             1932.04  1969.26  2015.09  2019.73  2104.47
                             2118.66  2118.72  2120.16  2134.76  2147.99
                             2155.90  2167.49  2167.63  2194.03  2211.85
                             2300.79  2333.04  2333.22  2339.98  2340.06
                             4381.79  4382.11  4459.05  4459.33  4511.79
                             4511.95  4535.41  4535.44  4556.48  4556.51
                             4571.95  4572.07  4601.96  4602.02  4638.24
                             4638.56

 Zero-point correction=                           0.318503 (Hartree/Particle)
 Thermal correction to Energy=                    0.344174
 Thermal correction to Enthalpy=                  0.345118
 Thermal correction to Gibbs Free Energy=         0.259696
 Sum of electronic and zero-point Energies=          -2019.482661
 Sum of electronic and thermal Energies=             -2019.456990
 Sum of electronic and thermal Enthalpies=           -2019.456046
 Sum of electronic and thermal Free Energies=        -2019.541468

                     E (Thermal)             CV                S
                      KCal/Mol        Cal/Mol-Kelvin    Cal/Mol-Kelvin
 Total                  215.973             97.568            179.786
 Electronic               0.000              0.000              1.377
 Translational            0.889              2.981             43.967
 Rotational               0.889              2.981             36.155
 Vibrational            214.195             91.607             98.287
 Vibration     1          0.593              1.986              7.372
 Vibration     2          0.593              1.986              6.765
 Vibration     3          0.593              1.984              5.972
 Vibration     4          0.594              1.982              5.412
 Vibration     5          0.595              1.979              4.988
 Vibration     6          0.596              1.975              4.593
 Vibration     7          0.598              1.969              4.172
 Vibration     8          0.603              1.952              3.532
 Vibration     9          0.603              1.951              3.508
 Vibration    10          0.615              1.913              2.805
 Vibration    11          0.615              1.912              2.785
 Vibration    12          0.616              1.908              2.736
 Vibration    13          0.626              1.877              2.410
 Vibration    14          0.628              1.870              2.356
 Vibration    15          0.629              1.867              2.326
 Vibration    16          0.632              1.859              2.267
 Vibration    17          0.640              1.832              2.085
 Vibration    18          0.645              1.818              1.998
 Vibration    19          0.657              1.781              1.812
 Vibration    20          0.658              1.778              1.797
 Vibration    21          0.677              1.720              1.566
 Vibration    22          0.690              1.680              1.435
 Vibration    23          0.696              1.663              1.385
 Vibration    24          0.697              1.661              1.379
 Vibration    25          0.725              1.582              1.182
 Vibration    26          0.747              1.521              1.054
 Vibration    27          0.752              1.506              1.026
 Vibration    28          0.758              1.490              0.998
 Vibration    29          0.771              1.457              0.940
 Vibration    30          0.776              1.443              0.918
 Vibration    31          0.777              1.441              0.915
 Vibration    32          0.785              1.420              0.881
 Vibration    33          0.792              1.403              0.856
 Vibration    34          0.813              1.350              0.781
 Vibration    35          0.820              1.334              0.759
 Vibration    36          0.833              1.303              0.721
 Vibration    37          0.858              1.244              0.651
 Vibration    38          0.875              1.205              0.609
 Vibration    39          0.902              1.147              0.551
 Vibration    40          0.938              1.072              0.483
 Vibration    41          0.953              1.042              0.458
 Vibration    42          0.953              1.041              0.457

 Optimization completed.
    -- Stationary point found.
 Normal termination of Gaussian 16 at Wed Jan 10 15:57:13 2024.
