 Q-Chem 5.4, Q-Chem, Inc., Pleasanton, CA (2021)
 Q-Chem 5.4.0 for Intel X86 EM64T Linux

User input:
--------------------------------------------------------------
$molecule
-1 2
C                  0.8717700000      1.2266790000     -1.3855040000
C                 -0.5199470000      1.1468940000     -1.8521460000
C                 -1.4257690000      0.4493850000     -1.0824020000
C                 -1.0740420000     -0.2954350000      0.1153470000
C                  0.3105630000     -0.1906910000      0.5981110000
C                  1.1949000000      0.5821350000     -0.1232590000
O                  1.7414610000      1.8379460000     -2.0502980000
O                 -1.9186890000     -0.9945980000      0.7234070000
S                  2.9240770000      0.7951520000      0.4051490000
C                  3.2676920000      2.5789680000      0.3265120000
C                  3.9765080000      3.1034640000     -0.7489890000
C                  2.8782890000      3.3760580000      1.3989310000
C                  3.1937920000      4.7342900000      1.3853600000
C                  4.3020990000      4.4575230000     -0.7456600000
C                  3.9076430000      5.2732330000      0.3158180000
O                  3.8358810000      0.1170770000     -0.5272320000
O                  3.0171250000      0.4644980000      1.8408190000
H                  4.2455980000      2.4538380000     -1.5698630000
H                  2.3504480000      2.9336450000      2.2344780000
H                  4.8542710000      4.8784300000     -1.5788520000
H                  2.8906860000      5.3657420000      2.2134810000
H                  4.1556600000      6.3295350000      0.3082090000
S                 -3.1770080000      0.3148690000     -1.5613980000
C                 -4.1467510000      0.7116470000     -0.0754440000
C                 -4.3667900000      2.0506490000      0.2338080000
C                 -4.7167130000     -0.3107820000      0.6755200000
C                 -5.5262950000      0.0197580000      1.7593650000
C                 -5.1648080000      2.3718600000      1.3313170000
C                 -5.7462910000      1.3574710000      2.0908210000
H                 -3.9309380000      2.8247200000     -0.3853380000
H                 -4.5072620000     -1.3378640000      0.4118350000
H                 -5.9761400000     -0.7686210000      2.3529670000
H                 -5.3386590000      3.4120630000      1.5845620000
H                 -6.3700100000      1.6088280000      2.9423700000
O                 -3.4993880000     -1.0635690000     -1.9571540000
O                 -3.4868990000      1.4056730000     -2.5065430000
C                 -0.7970820000      1.8388260000     -3.1616910000
C                  0.6143660000     -0.9766050000      1.8473750000
H                  0.1566940000      2.1304160000     -3.5986920000
H                 -1.4118010000      2.7304740000     -3.0162720000
H                 -1.3465930000      1.1976080000     -3.8511600000
H                 -0.2406990000     -1.6160330000      2.0610620000
H                  0.7886400000     -0.3147490000      2.6991850000
H                  1.5165410000     -1.5789450000      1.7386010000
$end
$rem
MAX_SCF_CYCLES=200
BASIS  =  6-311++G(d,p)
GUI  =  2
JOB_TYPE  =  SP
METHOD  =  B3LYP
SOLVENT_METHOD = PCM
$end
$pcm
theory = CPCM
$end
$solvent
dielectric 37.219
opticaldielectric 1.43
$end

--------------------------------------------------------------

             Standard Nuclear Orientation (Angstroms)
    I     Atom           X                Y                Z
 ----------------------------------------------------------------
    1      C       0.8717700000     1.2266790000    -1.3855040000
    2      C      -0.5199470000     1.1468940000    -1.8521460000
    3      C      -1.4257690000     0.4493850000    -1.0824020000
    4      C      -1.0740420000    -0.2954350000     0.1153470000
    5      C       0.3105630000    -0.1906910000     0.5981110000
    6      C       1.1949000000     0.5821350000    -0.1232590000
    7      O       1.7414610000     1.8379460000    -2.0502980000
    8      O      -1.9186890000    -0.9945980000     0.7234070000
    9      S       2.9240770000     0.7951520000     0.4051490000
   10      C       3.2676920000     2.5789680000     0.3265120000
   11      C       3.9765080000     3.1034640000    -0.7489890000
   12      C       2.8782890000     3.3760580000     1.3989310000
   13      C       3.1937920000     4.7342900000     1.3853600000
   14      C       4.3020990000     4.4575230000    -0.7456600000
   15      C       3.9076430000     5.2732330000     0.3158180000
   16      O       3.8358810000     0.1170770000    -0.5272320000
   17      O       3.0171250000     0.4644980000     1.8408190000
   18      H       4.2455980000     2.4538380000    -1.5698630000
   19      H       2.3504480000     2.9336450000     2.2344780000
   20      H       4.8542710000     4.8784300000    -1.5788520000
   21      H       2.8906860000     5.3657420000     2.2134810000
   22      H       4.1556600000     6.3295350000     0.3082090000
   23      S      -3.1770080000     0.3148690000    -1.5613980000
   24      C      -4.1467510000     0.7116470000    -0.0754440000
   25      C      -4.3667900000     2.0506490000     0.2338080000
   26      C      -4.7167130000    -0.3107820000     0.6755200000
   27      C      -5.5262950000     0.0197580000     1.7593650000
   28      C      -5.1648080000     2.3718600000     1.3313170000
   29      C      -5.7462910000     1.3574710000     2.0908210000
   30      H      -3.9309380000     2.8247200000    -0.3853380000
   31      H      -4.5072620000    -1.3378640000     0.4118350000
   32      H      -5.9761400000    -0.7686210000     2.3529670000
   33      H      -5.3386590000     3.4120630000     1.5845620000
   34      H      -6.3700100000     1.6088280000     2.9423700000
   35      O      -3.4993880000    -1.0635690000    -1.9571540000
   36      O      -3.4868990000     1.4056730000    -2.5065430000
   37      C      -0.7970820000     1.8388260000    -3.1616910000
   38      C       0.6143660000    -0.9766050000     1.8473750000
   39      H       0.1566940000     2.1304160000    -3.5986920000
   40      H      -1.4118010000     2.7304740000    -3.0162720000
   41      H      -1.3465930000     1.1976080000    -3.8511600000
   42      H      -0.2406990000    -1.6160330000     2.0610620000
   43      H       0.7886400000    -0.3147490000     2.6991850000
   44      H       1.5165410000    -1.5789450000     1.7386010000
 ----------------------------------------------------------------

    8   -2019.8864396096      6.35e-06  Convergence criterion met
 Total energy in the final basis set =    -2019.8864396096

                    Orbital Energies (a.u.)
 --------------------------------------------------------------

 Alpha MOs
 -- Occupied --
-89.0556 -89.0556 -19.1234 -19.1234 -19.1182 -19.1181 -19.0966 -19.0966
-10.2496 -10.2496 -10.2122 -10.2122 -10.2116 -10.2116 -10.2095 -10.2095
-10.1927 -10.1927 -10.1903 -10.1903 -10.1875 -10.1875 -10.1857 -10.1857
-10.1849 -10.1849 -10.1600 -10.1600  -8.1193  -8.1193  -6.0821  -6.0821
 -6.0810  -6.0810  -6.0802  -6.0802  -1.1143  -1.1142  -1.0295  -1.0271
 -1.0099  -1.0097  -0.8761  -0.8761  -0.8588  -0.8133  -0.7806  -0.7785
 -0.7625  -0.7624  -0.7400  -0.7333  -0.6961  -0.6628  -0.6552  -0.6277
 -0.6217  -0.6216  -0.5963  -0.5746  -0.5716  -0.5465  -0.5379  -0.5227
 -0.5088  -0.4947  -0.4851  -0.4829  -0.4759  -0.4757  -0.4569  -0.4555
 -0.4545  -0.4533  -0.4463  -0.4407  -0.4394  -0.4350  -0.4306  -0.4210
 -0.4100  -0.3987  -0.3976  -0.3968  -0.3872  -0.3834  -0.3797  -0.3783
 -0.3775  -0.3771  -0.3591  -0.3591  -0.3465  -0.3436  -0.3339  -0.3333
 -0.3167  -0.3161  -0.3036  -0.3010  -0.2992  -0.2828  -0.2755  -0.2755
 -0.2697  -0.2675  -0.2606  -0.2495  -0.1825

 Beta MOs
 -- Occupied --
-89.0556 -89.0556 -19.1234 -19.1234 -19.1182 -19.1182 -19.0902 -19.0902
-10.2484 -10.2483 -10.2119 -10.2118 -10.2116 -10.2116 -10.2073 -10.2073
-10.1927 -10.1927 -10.1903 -10.1903 -10.1875 -10.1875 -10.1857 -10.1857
-10.1849 -10.1849 -10.1601 -10.1601  -8.1193  -8.1193  -6.0821  -6.0821
 -6.0810  -6.0810  -6.0802  -6.0802  -1.1143  -1.1142  -1.0187  -1.0163
 -1.0097  -1.0092  -0.8760  -0.8760  -0.8529  -0.8107  -0.7804  -0.7777
 -0.7625  -0.7624  -0.7354  -0.7318  -0.6948  -0.6609  -0.6507  -0.6265
 -0.6217  -0.6216  -0.5958  -0.5735  -0.5676  -0.5460  -0.5370  -0.5208
 -0.5081  -0.4925  -0.4845  -0.4828  -0.4757  -0.4756  -0.4557  -0.4554
 -0.4542  -0.4532  -0.4383  -0.4378  -0.4357  -0.4336  -0.4259  -0.4143
 -0.4078  -0.3966  -0.3934  -0.3905  -0.3814  -0.3806  -0.3780  -0.3780
 -0.3746  -0.3681  -0.3590  -0.3589  -0.3454  -0.3424  -0.3329  -0.3324
 -0.3162  -0.3153  -0.3032  -0.2996  -0.2795  -0.2750  -0.2740  -0.2729
 -0.2664  -0.2638  -0.2566  -0.2449

          Ground-State Mulliken Net Atomic Charges

     Atom                 Charge (a.u.)    Spin (a.u.)
  --------------------------------------------------------
      1 C                    -0.985177       0.014041
      2 C                     0.548464       0.168162
      3 C                     0.253462       0.078914
      4 C                    -0.983735       0.014200
      5 C                     0.545511       0.167690
      6 C                     0.256759       0.078399
      7 O                    -0.334160       0.248068
      8 O                    -0.333235       0.248330
      9 S                     0.356983      -0.030724
     10 C                     0.149025      -0.004293
     11 C                    -0.255534       0.023806
     12 C                     0.234891      -0.007540
     13 C                    -0.530987       0.002477
     14 C                    -0.404520      -0.003337
     15 C                    -0.317505      -0.000318
     16 O                    -0.191501       0.003932
     17 O                    -0.189874      -0.001536
     18 H                     0.266646       0.000581
     19 H                     0.260344       0.000406
     20 H                     0.230474      -0.000124
     21 H                     0.229264       0.000020
     22 H                     0.208084       0.000008
     23 S                     0.355821      -0.030402
     24 C                     0.138671      -0.004697
     25 C                     0.241319      -0.007633
     26 C                    -0.253759       0.024133
     27 C                    -0.403223      -0.003387
     28 C                    -0.530087       0.002480
     29 C                    -0.317900      -0.000284
     30 H                     0.260171       0.000402
     31 H                     0.266936       0.000584
     32 H                     0.230497      -0.000123
     33 H                     0.229183       0.000021
     34 H                     0.208076       0.000013
     35 O                    -0.189173       0.003860
     36 O                    -0.190232      -0.001548
     37 C                    -0.616079      -0.005389
     38 C                    -0.616578      -0.005248
     39 H                     0.183235      -0.001190
     40 H                     0.204560       0.008728
     41 H                     0.198952       0.005521
     42 H                     0.183524      -0.001259
     43 H                     0.203820       0.008681
     44 H                     0.198580       0.005577
  --------------------------------------------------------
  Sum of atomic charges =    -1.000006

                    Cartesian Multipole Moments
 -----------------------------------------------------------------
    Charge (ESU x 10^10)
                -4.8032
    Dipole Moment (Debye)
         X      -1.3720      Y       4.2117      Z       7.2171
       Tot       8.4680
    Quadrupole Moments (Debye-Ang)
        XX    -226.0577     XY      -0.8609     YY    -164.1889
        XZ     -28.3647     YZ       9.3343     ZZ    -198.4490

 Total job time:  187.91s(wall), 1305.86s(cpu)
        *  Thank you very much for using Q-Chem.  Have a nice day.  *
