 Gaussian 16, Revision A.03,
 Gaussian 16:  ES64L-G16RevA.03 25-Dec-2016

 --------------------------------------
 #P UB3LYP/6-311++G(d,p) nosym opt freq
 --------------------------------------

 -------
 Reduced
 -------
 Symbolic Z-matrix:
 Charge = -2 Multiplicity = 1

 SCF Done:  E(UB3LYP) =  -649.586929359     A.U. after   43 cycles
 SCF Done:  E(UB3LYP) =  -649.586930710     A.U. after   30 cycles
 SCF Done:  E(UB3LYP) =  -649.586931111     A.U. after   23 cycles
 SCF Done:  E(UB3LYP) =  -649.586931473     A.U. after   25 cycles
 SCF Done:  E(UB3LYP) =  -649.586931689     A.U. after   22 cycles
 SCF Done:  E(UB3LYP) =  -649.586931811     A.U. after   26 cycles
 Optimization completed.
    -- Stationary point found.
 Normal termination of Gaussian 16 at Wed Jan 10 17:32:22 2024.

 ----------------------------------------------------------------------
 #P Geom=AllCheck Guess=TCheck SCRF=Check GenChk UB3LYP/6-311++G(d,p) F
 req
 ----------------------------------------------------------------------

 Structure from the checkpoint file:  "100-an.chk"
 -------
 Reduced
 -------
 Charge = -2 Multiplicity = 1

                          Input orientation:
 ---------------------------------------------------------------------
 Center     Atomic      Atomic             Coordinates (Angstroms)
 Number     Number       Type             X           Y           Z
 ---------------------------------------------------------------------
      1          6           0        2.346102    3.575296    2.756705
      2          6           0        3.423463    3.507009    1.823026
      3          6           0        3.395205    2.690149    0.698695
      4          6           0        2.245994    1.837129    0.404915
      5          6           0        1.168746    1.905217    1.338737
      6          6           0        1.196998    2.722084    2.463062
      7          8           0        2.337457    4.330892    3.797107
      8          8           0        2.254866    1.081136   -0.635196
      9          7           0        0.190369    2.775593    3.436857
     10          6           0       -1.208482    2.592898    3.121983
     11          6           0       -2.053112    2.449925    4.390752
     12          7           0        4.401928    2.636512   -0.274999
     13          6           0        5.800782    2.818924    0.040046
     14          6           0        6.645586    2.961725   -1.228625
     15          1           0        4.283901    4.134719    2.037581
     16          1           0        0.308390    1.277358    1.124289
     17          1           0        0.402922    3.562761    4.048861
     18          1           0       -1.317465    1.692270    2.513003
     19          1           0       -1.615451    3.426382    2.511195
     20          1           0       -1.724220    1.590611    4.983306
     21          1           0       -3.114129    2.318120    4.148474
     22          1           0       -1.972474    3.341754    5.023100
     23          1           0        4.189296    1.849443   -0.887100
     24          1           0        6.207506    1.985358    0.650885
     25          1           0        5.909875    3.719532    0.649035
     26          1           0        6.564844    2.069911   -1.860980
     27          1           0        7.706601    3.093320   -0.986225
     28          1           0        6.316935    3.821103   -1.821219
 ---------------------------------------------------------------------

 SCF Done:  E(UB3LYP) =  -649.586931811     A.U. after    2 cycles

 Alpha  occ. eigenvalues --  -18.81257 -18.81256 -14.08542 -14.08542  -9.99426
 Alpha  occ. eigenvalues --   -9.99426  -9.96995  -9.96995  -9.96444  -9.96443
 Alpha  occ. eigenvalues --   -9.95279  -9.95277  -9.90674  -9.90673  -0.73547
 Alpha  occ. eigenvalues --   -0.73049  -0.68969  -0.68796  -0.57051  -0.55306
 Alpha  occ. eigenvalues --   -0.53006  -0.47219  -0.43853  -0.42497  -0.39489
 Alpha  occ. eigenvalues --   -0.33856  -0.33610  -0.28557  -0.26528  -0.26369
 Alpha  occ. eigenvalues --   -0.25165  -0.24721  -0.22393  -0.19650  -0.19592
 Alpha  occ. eigenvalues --   -0.19267  -0.18130  -0.17889  -0.16674  -0.15807
 Alpha  occ. eigenvalues --   -0.14876  -0.14547  -0.14092  -0.13961  -0.10897
 Alpha  occ. eigenvalues --   -0.10073  -0.06799  -0.04690   0.00925   0.01175
 Alpha  occ. eigenvalues --    0.01475   0.04125   0.11967
 Alpha virt. eigenvalues --    0.13450   0.13859   0.16724   0.16777   0.17448
 Alpha virt. eigenvalues --    0.17571   0.18238   0.18496   0.20401   0.20628
 Alpha virt. eigenvalues --    0.21657   0.22392   0.23015   0.23749   0.24562

  Beta  occ. eigenvalues --  -18.81257 -18.81256 -14.08542 -14.08542  -9.99426
  Beta  occ. eigenvalues --   -9.99426  -9.96995  -9.96995  -9.96444  -9.96443
  Beta  occ. eigenvalues --   -9.95279  -9.95277  -9.90674  -9.90673  -0.73547
  Beta  occ. eigenvalues --   -0.73049  -0.68969  -0.68796  -0.57051  -0.55306
  Beta  occ. eigenvalues --   -0.53006  -0.47219  -0.43853  -0.42497  -0.39489
  Beta  occ. eigenvalues --   -0.33856  -0.33610  -0.28557  -0.26528  -0.26369
  Beta  occ. eigenvalues --   -0.25165  -0.24721  -0.22393  -0.19650  -0.19592
  Beta  occ. eigenvalues --   -0.19267  -0.18130  -0.17889  -0.16674  -0.15807
  Beta  occ. eigenvalues --   -0.14876  -0.14547  -0.14092  -0.13961  -0.10897
  Beta  occ. eigenvalues --   -0.10073  -0.06799  -0.04690   0.00925   0.01175
  Beta  occ. eigenvalues --    0.01475   0.04125   0.11967
  Beta virt. eigenvalues --    0.13450   0.13859   0.16724   0.16777   0.17448
  Beta virt. eigenvalues --    0.17571   0.18238   0.18496   0.20401   0.20628
  Beta virt. eigenvalues --    0.21657   0.22392   0.23015   0.23749   0.24562

 Mulliken charges and spin densities:
               1          2
     1  C   -0.587818  -0.000000
     2  C    0.001741   0.000000
     3  C    0.215308   0.000000
     4  C   -0.587562  -0.000000
     5  C    0.002229  -0.000000
     6  C    0.215777   0.000000
     7  O   -0.517485  -0.000000
     8  O   -0.517496  -0.000000
     9  N   -0.053785   0.000000
    10  C   -0.819395  -0.000000
    11  C    1.444718   0.000000
    12  N   -0.053742   0.000000
    13  C   -0.819125   0.000000
    14  C    1.444230  -0.000000
    15  H    0.039027   0.000000
    16  H    0.039090  -0.000000
    17  H    0.429401   0.000000
    18  H    0.197643   0.000000
    19  H   -0.065157  -0.000000
    20  H   -0.182579  -0.000000
    21  H   -0.829427  -0.000000
    22  H   -0.272773  -0.000000
    23  H    0.429320  -0.000000
    24  H   -0.065005   0.000000
    25  H    0.197656  -0.000000
    26  H   -0.272679   0.000000
    27  H   -0.829463   0.000000
    28  H   -0.182649   0.000000
 Sum of Mulliken charges =  -2.00000   0.00000

 Dipole moment (field-independent basis, Debye):
    X=            -22.0578    Y=            -25.9947    Z=            -15.1877  Tot=             37.3221
 Quadrupole moment (field-independent basis, Debye-Ang):
   XX=           -285.8440   YY=           -191.8875   ZZ=           -193.3727
   XY=            -66.7987   XZ=             26.0668   YZ=            -53.8215

  Exact polarizability:4476.096 206.650 595.833********-136.2391843.885
 Approx polarizability:******** 625.716 578.469********-277.7053846.122

                      1                      2                      3
                      A                      A                      A
 Frequencies --     35.4912                53.1649                55.9446
 Red. masses --      3.8585                 1.7870                 1.9319
 Frc consts  --      0.0029                 0.0030                 0.0036
 IR Inten    --      7.3604                 0.2242                 0.0000

                      4                      5                      6
                      A                      A                      A
 Frequencies --     80.6048                96.5408               139.3993
 Red. masses --      3.2515                 2.9219                 7.2439
 Frc consts  --      0.0124                 0.0160                 0.0829
 IR Inten    --      0.0000                 9.5038                34.8041

                      7                      8                      9
                      A                      A                      A
 Frequencies --    141.5558               201.9927               247.9088
 Red. masses --      3.7645                 4.8405                 1.2938
 Frc consts  --      0.0444                 0.1164                 0.0469
 IR Inten    --      0.0000                30.6366                 0.0000

                     10                     11                     12
                      A                      A                      A
 Frequencies --    251.7887               257.6087               271.7001
 Red. masses --      1.2065                 3.9865                 4.0288
 Frc consts  --      0.0451                 0.1559                 0.1752
 IR Inten    --     12.8429                 0.0000                 0.0000

                     13                     14                     15
                      A                      A                      A
 Frequencies --    318.0534               357.5337               361.4532
 Red. masses --      4.8707                 3.7354                 3.3857
 Frc consts  --      0.2903                 0.2813                 0.2606
 IR Inten    --    165.7923                 0.0001                18.0909

                     16                     17                     18
                      A                      A                      A
 Frequencies --    429.4323               437.5478               467.4930
 Red. masses --      8.4278                 3.0804                11.4856
 Frc consts  --      0.9157                 0.3475                 1.4790
 IR Inten    --      0.0000                12.0382                 0.0000

                     19                     20                     21
                      A                      A                      A
 Frequencies --    481.9322               554.8258               655.2591
 Red. masses --      4.7232                 5.0352                 4.2244
 Frc consts  --      0.6463                 0.9132                 1.0687
 IR Inten    --     45.0453                 0.0000                 0.0000

                     22                     23                     24
                      A                      A                      A
 Frequencies --    693.6137               717.4453               729.5669
 Red. masses --      3.3472                 2.2177                 5.8887
 Frc consts  --      0.9488                 0.6726                 1.8467
 IR Inten    --    130.0251                 0.0000                11.7146

                     25                     26                     27
                      A                      A                      A
 Frequencies --    741.2618               795.6706               797.5160
 Red. masses --      1.8596                 1.3321                 1.2060
 Frc consts  --      0.6020                 0.4969                 0.4519
 IR Inten    --      0.0000                59.1310                 0.0002

                     28                     29                     30
                      A                      A                      A
 Frequencies --    804.2179               811.2669               820.3063
 Red. masses --      1.3195                 1.7899                 2.5485
 Frc consts  --      0.5028                 0.6941                 1.0104
 IR Inten    --    100.2113                 0.0001                 0.0002

                     31                     32                     33
                      A                      A                      A
 Frequencies --    820.9633               905.0865               917.5655
 Red. masses --      1.6988                 1.6256                 1.5977
 Frc consts  --      0.6746                 0.7846                 0.7925
 IR Inten    --     18.8827                30.0962                 0.0000

                     34                     35                     36
                      A                      A                      A
 Frequencies --    929.9990              1053.6135              1063.9348
 Red. masses --      2.3837                 2.8636                 2.4479
 Frc consts  --      1.2147                 1.8729                 1.6326
 IR Inten    --    152.3458                 0.0000                29.8706

                     37                     38                     39
                      A                      A                      A
 Frequencies --   1111.8660              1116.2110              1151.2379
 Red. masses --      1.8251                 1.9869                 1.9864
 Frc consts  --      1.3293                 1.4585                 1.5511
 IR Inten    --      0.0000               195.5575                57.6789

                     40                     41                     42
                      A                      A                      A
 Frequencies --   1164.4012              1199.7435              1204.6767
 Red. masses --      1.8193                 4.3432                 3.5440
 Frc consts  --      1.4533                 3.6833                 3.0303
 IR Inten    --      0.0000                84.6074                 0.0000

                     43                     44                     45
                      A                      A                      A
 Frequencies --   1224.4467              1241.0560              1277.2857
 Red. masses --      4.3437                 1.4803                 1.6843
 Frc consts  --      3.8370                 1.3433                 1.6190
 IR Inten    --    341.6012                 0.0000               284.5725

                     46                     47                     48
                      A                      A                      A
 Frequencies --   1285.3534              1292.7234              1339.5733
 Red. masses --      1.1913                 1.2857                 2.3115
 Frc consts  --      1.1596                 1.2659                 2.4438
 IR Inten    --      0.0000                44.9941                 0.0000

                     49                     50                     51
                      A                      A                      A
 Frequencies --   1375.9281              1378.9405              1389.3535
 Red. masses --      1.3175                 1.5855                 1.3321
 Frc consts  --      1.4696                 1.7763                 1.5150
 IR Inten    --    169.6535                 0.0000              2371.1634

                     52                     53                     54
                      A                      A                      A
 Frequencies --   1400.6113              1417.6633              1467.9849
 Red. masses --      1.9551                 2.3249                 1.1093
 Frc consts  --      2.2598                 2.7529                 1.4084
 IR Inten    --      0.0000                 0.0000               455.0016

                     55                     56                     57
                      A                      A                      A
 Frequencies --   1470.3421              1483.7864              1489.9608
 Red. masses --      1.0583                 2.5724                 1.0484
 Frc consts  --      1.3480                 3.3369                 1.3713
 IR Inten    --      0.0001               634.4501                 0.0141

                     58                     59                     60
                      A                      A                      A
 Frequencies --   1490.1312              1502.7275              1510.0128
 Red. masses --      1.2698                 1.9418                 1.0897
 Frc consts  --      1.6612                 2.5836                 1.4639
 IR Inten    --    452.7405               363.7282                 0.0000

                     61                     62                     63
                      A                      A                      A
 Frequencies --   1511.2273              1529.6709              1536.8250
 Red. masses --      1.2013                 2.4066                 1.9370
 Frc consts  --      1.6164                 3.3178                 2.6954
 IR Inten    --    180.0108               372.6560                 0.0000

                     64                     65                     66
                      A                      A                      A
 Frequencies --   1609.6821              2840.9210              2840.9479
 Red. masses --      6.6454                 1.0748                 1.0748
 Frc consts  --     10.1450                 5.1108                 5.1110
 IR Inten    --      0.0000                36.1438               454.4600

                     67                     68                     69
                      A                      A                      A
 Frequencies --   2990.6417              2990.6795              3042.6729
 Red. masses --      1.0366                 1.0366                 1.0954
 Frc consts  --      5.4624                 5.4626                 5.9752
 IR Inten    --      0.2137               323.2233                78.6660

                     70                     71                     72
                      A                      A                      A
 Frequencies --   3042.8560              3058.1074              3058.1513
 Red. masses --      1.0954                 1.0904                 1.0903
 Frc consts  --      5.9757                 6.0080                 6.0075
 IR Inten    --      0.0001                 0.0596               258.3946

                     73                     74                     75
                      A                      A                      A
 Frequencies --   3069.3327              3069.3512              3136.4578
 Red. masses --      1.0985                 1.0985                 1.0870
 Frc consts  --      6.0974                 6.0974                 6.3004
 IR Inten    --     18.8721                 0.0096                81.0210

                     76                     77                     78
                      A                      A                      A
 Frequencies --   3138.2034              3455.3705              3455.4878
 Red. masses --      1.0875                 1.0739                 1.0742
 Frc consts  --      6.3102                 7.5548                 7.5568
 IR Inten    --      0.0002                 0.6068               201.5296

 - Thermochemistry -
 -------------------
 Temperature   298.150 Kelvin.  Pressure   1.00000 Atm.
 Atom     1 has atomic number  6 and mass  12.00000

 Molecular mass:   194.10553 amu.
 Principal axes and moments of inertia in atomic units:
                           1         2         3
     Eigenvalues --  1125.862365686.877276725.70318
           X            0.82403   0.43980  -0.35714
           Y           -0.01057   0.64221   0.76646
           Z           -0.56645   0.62781  -0.53385
 This molecule is an asymmetric top.
 Rotational symmetry number  1.
 Warning -- assumption of classical behavior for rotation
           may cause significant error
 Rotational temperatures (Kelvin)      0.07693     0.01523     0.01288
 Rotational constants (GHZ):           1.60299     0.31735     0.26833
 Zero-point vibrational energy     597306.6 (Joules/Mol)
                                  142.75970 (Kcal/Mol)
 Warning -- explicit consideration of  20 degrees of freedom as
           vibrations may cause significant error
 Vibrational temperatures:     51.06    76.49    80.49   115.97   138.90
          (Kelvin)            200.56   203.67   290.62   356.69   362.27
                              370.64   390.92   457.61   514.41   520.05
                              617.86   629.53   672.62   693.39   798.27
                              942.77   997.96  1032.24  1049.68  1066.51
                             1144.79  1147.45  1157.09  1167.23  1180.24
                             1181.18  1302.22  1320.17  1338.06  1515.91
                             1530.76  1599.73  1605.98  1656.37  1675.31
                             1726.16  1733.26  1761.71  1785.60  1837.73
                             1849.34  1859.94  1927.35  1979.65  1983.99
                             1998.97  2015.17  2039.70  2112.10  2115.49
                             2134.84  2143.72  2143.97  2162.09  2172.57
                             2174.32  2200.86  2211.15  2315.97  4087.45
                             4087.49  4302.87  4302.92  4377.73  4377.99
                             4399.93  4400.00  4416.09  4416.11  4512.66
                             4515.17  4971.51  4971.68

 Zero-point correction=                           0.227502 (Hartree/Particle)
 Thermal correction to Energy=                    0.241982
 Thermal correction to Enthalpy=                  0.242927
 Thermal correction to Gibbs Free Energy=         0.185133
 Sum of electronic and zero-point Energies=           -649.359430
 Sum of electronic and thermal Energies=              -649.344949
 Sum of electronic and thermal Enthalpies=            -649.344005
 Sum of electronic and thermal Free Energies=         -649.401799

                     E (Thermal)             CV                S
                      KCal/Mol        Cal/Mol-Kelvin    Cal/Mol-Kelvin
 Total                  151.846             53.456            121.638
 Electronic               0.000              0.000              0.000
 Translational            0.889              2.981             41.695
 Rotational               0.889              2.981             32.132
 Vibrational            150.069             47.494             47.811
 Vibration     1          0.594              1.982              5.496
 Vibration     2          0.596              1.976              4.696
 Vibration     3          0.596              1.975              4.595
 Vibration     4          0.600              1.962              3.876
 Vibration     5          0.603              1.952              3.523
 Vibration     6          0.615              1.914              2.812
 Vibration     7          0.615              1.912              2.783
 Vibration     8          0.639              1.837              2.115
 Vibration     9          0.662              1.766              1.745
 Vibration    10          0.664              1.760              1.718
 Vibration    11          0.667              1.750              1.678
 Vibration    12          0.675              1.725              1.585
 Vibration    13          0.704              1.639              1.320
 Vibration    14          0.733              1.560              1.133
 Vibration    15          0.736              1.552              1.116
 Vibration    16          0.791              1.406              0.861
 Vibration    17          0.798              1.388              0.834
 Vibration    18          0.825              1.322              0.745
 Vibration    19          0.838              1.290              0.705
 Vibration    20          0.910              1.129              0.534

 Optimization completed.
    -- Stationary point found.
 Normal termination of Gaussian 16 at Wed Jan 10 18:15:38 2024.
