 Q-Chem 5.4, Q-Chem, Inc., Pleasanton, CA (2021)
 Q-Chem 5.4.0 for Intel X86 EM64T Linux

User input:
--------------------------------------------------------------
$molecule
-2 1
C                  2.3461020000      3.5752960000      2.7567050000
C                  3.4234630000      3.5070090000      1.8230260000
C                  3.3952050000      2.6901490000      0.6986950000
C                  2.2459940000      1.8371290000      0.4049150000
C                  1.1687460000      1.9052170000      1.3387370000
C                  1.1969980000      2.7220840000      2.4630620000
O                  2.3374570000      4.3308920000      3.7971070000
O                  2.2548660000      1.0811360000     -0.6351960000
N                  0.1903690000      2.7755930000      3.4368570000
C                 -1.2084820000      2.5928980000      3.1219830000
C                 -2.0531120000      2.4499250000      4.3907520000
N                  4.4019280000      2.6365120000     -0.2749990000
C                  5.8007820000      2.8189240000      0.0400460000
C                  6.6455860000      2.9617250000     -1.2286250000
H                  4.2839010000      4.1347190000      2.0375810000
H                  0.3083900000      1.2773580000      1.1242890000
H                  0.4029220000      3.5627610000      4.0488610000
H                 -1.3174650000      1.6922700000      2.5130030000
H                 -1.6154510000      3.4263820000      2.5111950000
H                 -1.7242200000      1.5906110000      4.9833060000
H                 -3.1141290000      2.3181200000      4.1484740000
H                 -1.9724740000      3.3417540000      5.0231000000
H                  4.1892960000      1.8494430000     -0.8871000000
H                  6.2075060000      1.9853580000      0.6508850000
H                  5.9098750000      3.7195320000      0.6490350000
H                  6.5648440000      2.0699110000     -1.8609800000
H                  7.7066010000      3.0933200000     -0.9862250000
H                  6.3169350000      3.8211030000     -1.8212190000
$end

$rem
BASIS  =  6-311++G(d,p)
GUI  =  2
JOB_TYPE  =  SP
METHOD  =  B3LYP
SCF_CONVERGENCE  = 8
SOLVENT_METHOD = sm12
$end

$smx
solvent dimethylformamide
charges CM5
$end

--------------------------------------------------------------

             Standard Nuclear Orientation (Angstroms)
    I     Atom           X                Y                Z
 ----------------------------------------------------------------
    1      C       2.3461020000     3.5752960000     2.7567050000
    2      C       3.4234630000     3.5070090000     1.8230260000
    3      C       3.3952050000     2.6901490000     0.6986950000
    4      C       2.2459940000     1.8371290000     0.4049150000
    5      C       1.1687460000     1.9052170000     1.3387370000
    6      C       1.1969980000     2.7220840000     2.4630620000
    7      O       2.3374570000     4.3308920000     3.7971070000
    8      O       2.2548660000     1.0811360000    -0.6351960000
    9      N       0.1903690000     2.7755930000     3.4368570000
   10      C      -1.2084820000     2.5928980000     3.1219830000
   11      C      -2.0531120000     2.4499250000     4.3907520000
   12      N       4.4019280000     2.6365120000    -0.2749990000
   13      C       5.8007820000     2.8189240000     0.0400460000
   14      C       6.6455860000     2.9617250000    -1.2286250000
   15      H       4.2839010000     4.1347190000     2.0375810000
   16      H       0.3083900000     1.2773580000     1.1242890000
   17      H       0.4029220000     3.5627610000     4.0488610000
   18      H      -1.3174650000     1.6922700000     2.5130030000
   19      H      -1.6154510000     3.4263820000     2.5111950000
   20      H      -1.7242200000     1.5906110000     4.9833060000
   21      H      -3.1141290000     2.3181200000     4.1484740000
   22      H      -1.9724740000     3.3417540000     5.0231000000
   23      H       4.1892960000     1.8494430000    -0.8871000000
   24      H       6.2075060000     1.9853580000     0.6508850000
   25      H       5.9098750000     3.7195320000     0.6490350000
   26      H       6.5648440000     2.0699110000    -1.8609800000
   27      H       7.7066010000     3.0933200000    -0.9862250000
   28      H       6.3169350000     3.8211030000    -1.8212190000
 ----------------------------------------------------------------

   33    -649.5458962385      4.75e-09  Convergence criterion met
 Total energy in the final basis set =     -649.8568226771

                    Orbital Energies (a.u.)
 --------------------------------------------------------------

 Alpha MOs
 -- Occupied --
-19.0507 -19.0507 -14.3204 -14.3204 -10.2192 -10.2192 -10.2031 -10.2030
-10.1914 -10.1914 -10.1811 -10.1811 -10.1559 -10.1559  -0.9742  -0.9705
 -0.9255  -0.9238  -0.8070  -0.7759  -0.7563  -0.7149  -0.6687  -0.6484
 -0.6255  -0.5809  -0.5751  -0.5184  -0.4961  -0.4928  -0.4844  -0.4714
 -0.4533  -0.4381  -0.4226  -0.4142  -0.4113  -0.3966  -0.3908  -0.3824
 -0.3795  -0.3791  -0.3738  -0.3681  -0.3496  -0.3425  -0.3088  -0.2843
 -0.2325  -0.2291  -0.2246  -0.2054  -0.1274

          Ground-State Mulliken Net Atomic Charges

     Atom                 Charge (a.u.)
  ----------------------------------------
      1 C                    -1.051247
      2 C                    -1.234930
      3 C                     1.252774
      4 C                    -1.050846
      5 C                    -1.234455
      6 C                     1.253786
      7 O                    -0.359371
      8 O                    -0.359356
      9 N                     0.028700
     10 C                    -0.147382
     11 C                     0.775264
     12 N                     0.028826
     13 C                    -0.147624
     14 C                     0.775300
     15 H                    -1.787486
     16 H                    -1.788078
     17 H                     0.273687
     18 H                     0.406741
     19 H                     0.117249
     20 H                     0.190925
     21 H                     0.349962
     22 H                     0.184641
     23 H                     0.273538
     24 H                     0.117208
     25 H                     0.406640
     26 H                     0.184660
     27 H                     0.349965
     28 H                     0.190908
  ----------------------------------------
  Sum of atomic charges =    -2.000000

                    Cartesian Multipole Moments
 -----------------------------------------------------------------
    Charge (ESU x 10^10)
                -9.6064
    Dipole Moment (Debye)
         X     -22.0565      Y     -25.9947      Z     -15.1863
       Tot      37.3207
    Quadrupole Moments (Debye-Ang)
        XX    -165.1172     XY     -75.2994     YY    -202.3882
        XZ     -42.9202     YZ     -63.4501     ZZ    -162.1137

 Total job time:  1036.64s(wall), 7940.00s(cpu)
        *  Thank you very much for using Q-Chem.  Have a nice day.  *
