 Q-Chem 5.4, Q-Chem, Inc., Pleasanton, CA (2021)
 Q-Chem 5.4.0 for Intel X86 EM64T Linux

User input:
--------------------------------------------------------------
$molecule
-1 2
C                 -0.0897200000     -0.7941340000      1.4633420000
C                 -0.1210210000     -0.7956000000     -0.0010020000
C                 -0.6620710000     -1.8610170000     -0.6936480000
C                 -1.2329520000     -3.0207850000     -0.0523650000
C                 -1.1913990000     -3.0078940000      1.3990240000
C                 -0.6520820000     -1.9697390000      2.1002270000
O                  0.4123930000      0.1481760000      2.1276760000
O                 -1.7304550000     -3.9809420000     -0.7063800000
C                  0.5468670000      0.3031100000     -0.7244200000
H                 -1.6144170000     -3.8707140000      1.9061850000
H                 -0.7004850000     -1.8506410000     -1.7790270000
H                 -0.6270160000     -1.9742160000      3.1860580000
C                  0.4456850000      1.6728530000     -0.4118040000
C                  1.2002840000      2.6510120000     -1.0561110000
C                  2.0656590000      2.2975570000     -2.0831690000
C                  2.1712680000      0.9541430000     -2.4461090000
C                  1.4381270000     -0.0120840000     -1.7690670000
N                 -0.5634960000      2.1911540000      0.5392270000
O                 -0.2698180000      3.1913010000      1.1877120000
O                 -1.6609540000      1.6549980000      0.5545290000
H                  1.0834530000      3.6813410000     -0.7478560000
H                  2.6458600000      3.0591460000     -2.5917860000
H                  2.8441180000      0.6552670000     -3.2433150000
H                  1.5690190000     -1.0583440000     -2.0176930000
$end
$rem
MAX_SCF_CYCLES=200
BASIS  =  6-311++G(d,p)
GUI  =  2
JOB_TYPE  =  SP
METHOD  =  B3LYP
SOLVENT_METHOD = COSMO
$end
$solvent
dielectric 37.219
opticaldielectric 1.43
$end

--------------------------------------------------------------

             Standard Nuclear Orientation (Angstroms)
    I     Atom           X                Y                Z
 ----------------------------------------------------------------
    1      C       1.1069789746    -0.9594054704     0.8286843103
    2      C       0.7626125940     0.2543642457     0.0847353037
    3      C       1.7487399167     1.0361831493    -0.4844035836
    4      C       3.1558959616     0.7267127601    -0.4047119296
    5      C       3.4830765611    -0.4766599013     0.3391092533
    6      C       2.5241325580    -1.2557694833     0.9168020226
    7      O       0.2387292388    -1.6850255224     1.3773401230
    8      O       4.0409761971     1.4523861184    -0.9406013525
    9      C      -0.6455296604     0.6937788639     0.0597987441
   10      H       4.5366550834    -0.7314007379     0.4145696022
   11      H       1.4888134877     1.9255053043    -1.0511268199
   12      H       2.7837931038    -2.1529253212     1.4712072101
   13      C      -1.7608489278    -0.1366794182    -0.1650665936
   14      C      -3.0734780849     0.3167646495    -0.0521978041
   15      C      -3.3256368876     1.6483304631     0.2511186728
   16      C      -2.2478446846     2.5124344246     0.4494320379
   17      C      -0.9458377673     2.0353028979     0.3681934700
   18      N      -1.6221614635    -1.5241163933    -0.6623860156
   19      O      -2.4693985802    -2.3396400097    -0.3099883940
   20      O      -0.7332322907    -1.7550433188    -1.4677363433
   21      H      -3.8795976966    -0.3848686657    -0.2199188181
   22      H      -4.3466430843     2.0043663663     0.3293940839
   23      H      -2.4219917348     3.5559258911     0.6910717626
   24      H      -0.1160587558     2.6986506903     0.5804293991
 ----------------------------------------------------------------

   11    -817.3189945873      7.78e-06  Convergence criterion met
 Total energy in the final basis set =     -817.3189945873
    5    -817.4090741430      8.35e-06  Convergence criterion met
 Total energy in the final basis set =     -817.4090741430

                    Orbital Energies (a.u.)
 --------------------------------------------------------------

 Alpha MOs
 -- Occupied --
-19.1709 -19.1697 -19.0882 -19.0866 -14.5625 -10.2398 -10.2315 -10.2267
-10.2118 -10.1967 -10.1905 -10.1887 -10.1885 -10.1871 -10.1704 -10.1697
-10.1690  -1.2472  -1.0736  -1.0138  -1.0070  -0.8930  -0.8342  -0.8080
 -0.7873  -0.7396  -0.7051  -0.6865  -0.6391  -0.6084  -0.5985  -0.5800
 -0.5526  -0.5461  -0.5323  -0.5053  -0.4851  -0.4758  -0.4664  -0.4614
 -0.4434  -0.4278  -0.4179  -0.4134  -0.3951  -0.3896  -0.3865  -0.3802
 -0.3673  -0.3638  -0.3317  -0.3296  -0.3194  -0.2964  -0.2821  -0.2766
 -0.2538  -0.2511  -0.2477  -0.1709

 Beta MOs
 -- Occupied --
-19.1709 -19.1698 -19.0817 -19.0795 -14.5626 -10.2396 -10.2301 -10.2254
-10.2120 -10.1967 -10.1905 -10.1885 -10.1884 -10.1859 -10.1690 -10.1688
-10.1681  -1.2472  -1.0736  -1.0024  -0.9944  -0.8926  -0.8288  -0.8078
 -0.7853  -0.7376  -0.7031  -0.6779  -0.6371  -0.6075  -0.5955  -0.5780
 -0.5513  -0.5453  -0.5321  -0.5042  -0.4835  -0.4719  -0.4651  -0.4595
 -0.4417  -0.4263  -0.4083  -0.4029  -0.3896  -0.3870  -0.3803  -0.3669
 -0.3618  -0.3555  -0.3305  -0.3290  -0.3188  -0.2864  -0.2760  -0.2585
 -0.2475  -0.2436  -0.2408

          Ground-State Mulliken Net Atomic Charges

     Atom                 Charge (a.u.)    Spin (a.u.)
  --------------------------------------------------------
      1 C                    -1.431577       0.077299
      2 C                     2.007797       0.085825
      3 C                    -0.264581       0.064626
      4 C                    -0.303949       0.133679
      5 C                    -0.042741       0.066243
      6 C                    -0.127217       0.071406
      7 O                    -0.443835       0.235571
      8 O                    -0.539445       0.244349
      9 C                     1.125928       0.008787
     10 H                     0.214610      -0.005471
     11 H                     0.224389      -0.009328
     12 H                     0.212763      -0.007112
     13 C                    -0.622520       0.026489
     14 C                    -0.148081      -0.006270
     15 C                    -0.429049       0.013552
     16 C                    -0.441074      -0.006654
     17 C                    -0.684573       0.007517
     18 N                    -0.105574       0.000813
     19 O                    -0.055891      -0.000257
     20 O                    -0.070936       0.000712
     21 H                     0.259770       0.000321
     22 H                     0.223456      -0.000935
     23 H                     0.224908       0.000566
     24 H                     0.217421      -0.001725
  --------------------------------------------------------
  Sum of atomic charges =    -1.000000

                    Cartesian Multipole Moments
 -----------------------------------------------------------------
    Charge (ESU x 10^10)
                -4.8032
    Dipole Moment (Debye)
         X      -9.7998      Y       5.7009      Z       1.2895
       Tot      11.4105
    Quadrupole Moments (Debye-Ang)
        XX    -132.1927     XY     -28.7436     YY    -114.9265
        XZ      10.8154     YZ       6.9826     ZZ    -111.8704

 Total job time:  76.09s(wall), 574.12s(cpu)
        *  Thank you very much for using Q-Chem.  Have a nice day.  *
