 Q-Chem 5.4, Q-Chem, Inc., Pleasanton, CA (2021)
 Q-Chem 5.4.0 for Intel X86 EM64T Linux

User input:
--------------------------------------------------------------
$molecule
-1 2
C                  2.4861380000     -4.8028150000      2.0561040000
C                  2.4926000000     -3.9294680000      0.8980880000
C                  2.1096820000     -2.6158220000      0.8522560000
C                  1.6438850000     -1.9950020000      2.0934490000
C                  1.6518530000     -2.8647990000      3.2567680000
C                  2.0237890000     -4.1810860000      3.2903600000
O                  2.8550730000     -5.9992290000      1.9985680000
O                  1.2386570000     -0.8107540000      2.1523430000
C                  1.9908560000     -5.0379880000      4.5248320000
C                  2.1457730000     -1.7929470000     -0.4270320000
C                  0.7355280000     -1.3454270000     -0.8602810000
C                  3.1090370000     -0.5951570000     -0.3110870000
N                  2.9712160000     -4.5885750000     -0.3443930000
N                  1.1938270000     -2.2312040000      4.5126710000
H                  2.1113970000     -4.4525190000      5.4381590000
H                  2.7795740000     -5.7886300000      4.4618360000
H                  1.0383000000     -5.5742690000      4.5958710000
H                  2.5332030000     -2.4348430000     -1.2229670000
H                  0.7905510000     -0.8156720000     -1.8178520000
H                  0.2979740000     -0.6807960000     -0.1147000000
H                  0.0769960000     -2.2087590000     -0.9895490000
H                  3.1606450000     -0.0645920000     -1.2683600000
H                  4.1179320000     -0.9317190000     -0.0569480000
H                  2.7685710000      0.0988430000      0.4580710000
O                  4.1673730000     -4.5281740000     -0.5948900000
O                  2.1406860000     -5.1477430000     -1.0473790000
O                  0.0942510000     -2.5566090000      4.9499610000
O                  1.9442520000     -1.4314550000      5.0531410000
$end
$rem
MAX_SCF_CYCLES=200
BASIS  =  6-311++G(d,p)
GUI  =  2
JOB_TYPE  =  SP
METHOD  =  B3LYP
SOLVENT_METHOD = PCM
$end
$pcm
theory = CPCM
$end
$solvent
dielectric 37.219
opticaldielectric 1.43
$end

--------------------------------------------------------------

             Standard Nuclear Orientation (Angstroms)
    I     Atom           X                Y                Z
 ----------------------------------------------------------------
    1      C       2.4861380000    -4.8028150000     2.0561040000
    2      C       2.4926000000    -3.9294680000     0.8980880000
    3      C       2.1096820000    -2.6158220000     0.8522560000
    4      C       1.6438850000    -1.9950020000     2.0934490000
    5      C       1.6518530000    -2.8647990000     3.2567680000
    6      C       2.0237890000    -4.1810860000     3.2903600000
    7      O       2.8550730000    -5.9992290000     1.9985680000
    8      O       1.2386570000    -0.8107540000     2.1523430000
    9      C       1.9908560000    -5.0379880000     4.5248320000
   10      C       2.1457730000    -1.7929470000    -0.4270320000
   11      C       0.7355280000    -1.3454270000    -0.8602810000
   12      C       3.1090370000    -0.5951570000    -0.3110870000
   13      N       2.9712160000    -4.5885750000    -0.3443930000
   14      N       1.1938270000    -2.2312040000     4.5126710000
   15      H       2.1113970000    -4.4525190000     5.4381590000
   16      H       2.7795740000    -5.7886300000     4.4618360000
   17      H       1.0383000000    -5.5742690000     4.5958710000
   18      H       2.5332030000    -2.4348430000    -1.2229670000
   19      H       0.7905510000    -0.8156720000    -1.8178520000
   20      H       0.2979740000    -0.6807960000    -0.1147000000
   21      H       0.0769960000    -2.2087590000    -0.9895490000
   22      H       3.1606450000    -0.0645920000    -1.2683600000
   23      H       4.1179320000    -0.9317190000    -0.0569480000
   24      H       2.7685710000     0.0988430000     0.4580710000
   25      O       4.1673730000    -4.5281740000    -0.5948900000
   26      O       2.1406860000    -5.1477430000    -1.0473790000
   27      O       0.0942510000    -2.5566090000     4.9499610000
   28      O       1.9442520000    -1.4314550000     5.0531410000
 ----------------------------------------------------------------

   10    -948.1585743674      8.11e-06  Convergence criterion met
 Total energy in the final basis set =     -948.1585743674

                    Orbital Energies (a.u.)
 --------------------------------------------------------------

 Alpha MOs
 -- Occupied --
-19.1825 -19.1825 -19.1801 -19.1792 -19.1035 -19.1021 -14.5680 -14.5659
-10.2562 -10.2548 -10.2344 -10.2326 -10.2097 -10.2072 -10.1872 -10.1708
-10.1537 -10.1536  -1.2558  -1.2528  -1.0823  -1.0791  -1.0335  -1.0305
 -0.8824  -0.8481  -0.7960  -0.7671  -0.7427  -0.6921  -0.6815  -0.6505
 -0.6199  -0.5992  -0.5803  -0.5715  -0.5658  -0.5412  -0.5398  -0.5333
 -0.5278  -0.4951  -0.4530  -0.4512  -0.4477  -0.4355  -0.4284  -0.4221
 -0.4047  -0.4025  -0.3981  -0.3907  -0.3768  -0.3535  -0.3461  -0.3410
 -0.3405  -0.3384  -0.3350  -0.3343  -0.3325  -0.3313  -0.2979  -0.2729
 -0.2703  -0.2624  -0.1869

 Beta MOs
 -- Occupied --
-19.1825 -19.1824 -19.1800 -19.1791 -19.0966 -19.0954 -14.5681 -14.5659
-10.2550 -10.2534 -10.2337 -10.2318 -10.2080 -10.2057 -10.1873 -10.1709
-10.1536 -10.1535  -1.2558  -1.2526  -1.0822  -1.0788  -1.0219  -1.0187
 -0.8774  -0.8463  -0.7943  -0.7636  -0.7394  -0.6879  -0.6812  -0.6468
 -0.6176  -0.5982  -0.5789  -0.5705  -0.5651  -0.5408  -0.5393  -0.5314
 -0.5251  -0.4937  -0.4491  -0.4448  -0.4403  -0.4299  -0.4261  -0.4157
 -0.4001  -0.3965  -0.3907  -0.3826  -0.3691  -0.3522  -0.3444  -0.3406
 -0.3400  -0.3380  -0.3336  -0.3315  -0.3309  -0.3259  -0.2713  -0.2667
 -0.2637  -0.2565

          Ground-State Mulliken Net Atomic Charges

     Atom                 Charge (a.u.)    Spin (a.u.)
  --------------------------------------------------------
      1 C                    -0.653581       0.087724
      2 C                     0.046914       0.049596
      3 C                     1.150902       0.112977
      4 C                    -0.794960       0.100707
      5 C                    -1.314956       0.020814
      6 C                     1.813859       0.120329
      7 O                    -0.418366       0.256777
      8 O                    -0.385717       0.251413
      9 C                    -0.404490      -0.003270
     10 C                    -0.087166      -0.020120
     11 C                    -0.651898       0.009356
     12 C                    -0.666858       0.010641
     13 N                    -0.233111      -0.011912
     14 N                    -0.237110      -0.006080
     15 H                     0.203180       0.001745
     16 H                     0.187260       0.001429
     17 H                     0.225082       0.007463
     18 H                     0.214531      -0.000765
     19 H                     0.164044       0.000571
     20 H                     0.188790      -0.001061
     21 H                     0.147842       0.000331
     22 H                     0.164144       0.000637
     23 H                     0.149252       0.000202
     24 H                     0.186571      -0.001032
     25 O                    -0.000391       0.002378
     26 O                     0.000233       0.002548
     27 O                    -0.004230       0.002761
     28 O                     0.010228       0.003841
  --------------------------------------------------------
  Sum of atomic charges =    -1.000000

                    Cartesian Multipole Moments
 -----------------------------------------------------------------
    Charge (ESU x 10^10)
                -4.8032
    Dipole Moment (Debye)
         X      -9.9432      Y      16.5772      Z     -10.2075
       Tot      21.8601
    Quadrupole Moments (Debye-Ang)
        XX    -140.6314     XY      47.1427     YY    -199.7085
        XZ      -9.7200     YZ      11.4736     ZZ    -151.6314

 Total job time:  75.87s(wall), 511.02s(cpu)
        *  Thank you very much for using Q-Chem.  Have a nice day.  *
