 Gaussian 16, Revision A.03,
 Gaussian 16:  ES64L-G16RevA.03 25-Dec-2016

 --------------------------------------
 #P UB3LYP/6-311++G(d,p) nosym opt freq
 --------------------------------------

 -------
 Reduced
 -------
 Symbolic Z-matrix:
 Charge = -2 Multiplicity = 1

 SCF Done:  E(UB3LYP) =  -653.173134584     A.U. after   53 cycles
 SCF Done:  E(UB3LYP) =  -653.203263539     A.U. after   38 cycles
 SCF Done:  E(UB3LYP) =  -653.209295191     A.U. after   33 cycles
 SCF Done:  E(UB3LYP) =  -653.210352841     A.U. after   33 cycles
 SCF Done:  E(UB3LYP) =  -653.210876966     A.U. after   32 cycles
 SCF Done:  E(UB3LYP) =  -653.211297240     A.U. after   31 cycles
 SCF Done:  E(UB3LYP) =  -653.211404460     A.U. after   27 cycles
 SCF Done:  E(UB3LYP) =  -653.211481419     A.U. after   27 cycles
 SCF Done:  E(UB3LYP) =  -653.211491067     A.U. after   23 cycles
 SCF Done:  E(UB3LYP) =  -653.211493688     A.U. after   26 cycles
 SCF Done:  E(UB3LYP) =  -653.211494308     A.U. after   21 cycles
 SCF Done:  E(UB3LYP) =  -653.211494977     A.U. after   23 cycles
 SCF Done:  E(UB3LYP) =  -653.211495273     A.U. after   21 cycles
 SCF Done:  E(UB3LYP) =  -653.211495301     A.U. after   23 cycles
 Optimization completed.
    -- Stationary point found.
 Normal termination of Gaussian 16 at Tue Dec 26 21:58:32 2023.

 ----------------------------------------------------------------------
 #P Geom=AllCheck Guess=TCheck SCRF=Check GenChk UB3LYP/6-311++G(d,p) F
 req
 ----------------------------------------------------------------------

 Structure from the checkpoint file:  "247-an.chk"
 -------
 Reduced
 -------
 Charge = -2 Multiplicity = 1

                          Input orientation:
 ---------------------------------------------------------------------
 Center     Atomic      Atomic             Coordinates (Angstroms)
 Number     Number       Type             X           Y           Z
 ---------------------------------------------------------------------
      1          6           0       -3.197371    1.394340    0.180932
      2          6           0       -2.386245    0.670260   -0.916250
      3          6           0       -1.025260    0.198157   -0.463706
      4          6           0       -0.829532   -1.120406    0.028401
      5          6           0       -1.991137   -2.081639    0.150644
      6          6           0        0.445747   -1.622168    0.432460
      7          8           0        0.637772   -2.820488    0.882169
      8          6           0        1.549510   -0.677673    0.307794
      9          6           0        2.854272   -1.069127    0.688529
     10          6           0        3.937769   -0.214066    0.585345
     11          6           0        3.749408    1.098348    0.082449
     12          6           0        2.480801    1.509708   -0.289808
     13          6           0        1.356811    0.659388   -0.190083
     14          6           0        0.041573    1.146620   -0.593039
     15          8           0       -0.124680    2.342863   -1.043207
     16          1           0       -4.182665    1.718550   -0.193009
     17          1           0       -2.649313    2.276638    0.522568
     18          1           0       -3.368430    0.741726    1.044254
     19          1           0       -2.986024   -0.166089   -1.299260
     20          1           0       -2.236339    1.382036   -1.736707
     21          1           0       -1.633957   -2.980166    0.659923
     22          1           0       -2.836487   -1.660676    0.716864
     23          1           0       -2.394562   -2.384089   -0.827975
     24          1           0        2.963054   -2.081155    1.066873
     25          1           0        4.930673   -0.547354    0.884887
     26          1           0        4.596177    1.777504   -0.006943
     27          1           0        2.298435    2.508960   -0.674105
 ---------------------------------------------------------------------

 SCF Done:  E(UB3LYP) =  -653.211495301     A.U. after    2 cycles

 Alpha  occ. eigenvalues --  -18.77503 -18.77135  -9.93227  -9.92911  -9.92805
 Alpha  occ. eigenvalues --   -9.92733  -9.92521  -9.91750  -9.91690  -9.91588
 Alpha  occ. eigenvalues --   -9.91004  -9.90209  -9.90168  -9.89116  -9.89044
 Alpha  occ. eigenvalues --   -0.69094  -0.68440  -0.59424  -0.55061  -0.51020
 Alpha  occ. eigenvalues --   -0.49161  -0.48758  -0.43673  -0.39604  -0.37905
 Alpha  occ. eigenvalues --   -0.33744  -0.32210  -0.28651  -0.25008  -0.23420
 Alpha  occ. eigenvalues --   -0.20674  -0.19778  -0.18639  -0.17101  -0.16720
 Alpha  occ. eigenvalues --   -0.16354  -0.14146  -0.13854  -0.13062  -0.12306
 Alpha  occ. eigenvalues --   -0.11711  -0.10922  -0.10509  -0.09215  -0.07413
 Alpha  occ. eigenvalues --   -0.07009  -0.06767  -0.06070   0.00409   0.01737
 Alpha  occ. eigenvalues --    0.03547   0.04634   0.05416   0.13524
 Alpha virt. eigenvalues --    0.15895   0.16171   0.17935   0.18398   0.19420
 Alpha virt. eigenvalues --    0.20387   0.20994   0.21796   0.22038   0.22323
 Alpha virt. eigenvalues --    0.22538   0.23933   0.24093   0.24719   0.25677

  Beta  occ. eigenvalues --  -18.77503 -18.77135  -9.93227  -9.92911  -9.92805
  Beta  occ. eigenvalues --   -9.92733  -9.92521  -9.91750  -9.91690  -9.91588
  Beta  occ. eigenvalues --   -9.91004  -9.90209  -9.90168  -9.89116  -9.89044
  Beta  occ. eigenvalues --   -0.69094  -0.68440  -0.59424  -0.55061  -0.51020
  Beta  occ. eigenvalues --   -0.49161  -0.48758  -0.43673  -0.39604  -0.37905
  Beta  occ. eigenvalues --   -0.33744  -0.32210  -0.28651  -0.25008  -0.23420
  Beta  occ. eigenvalues --   -0.20674  -0.19778  -0.18639  -0.17101  -0.16720
  Beta  occ. eigenvalues --   -0.16354  -0.14146  -0.13854  -0.13062  -0.12306
  Beta  occ. eigenvalues --   -0.11711  -0.10922  -0.10509  -0.09215  -0.07413
  Beta  occ. eigenvalues --   -0.07009  -0.06767  -0.06070   0.00409   0.01737
  Beta  occ. eigenvalues --    0.03547   0.04634   0.05416   0.13524
  Beta virt. eigenvalues --    0.15895   0.16171   0.17935   0.18398   0.19420
  Beta virt. eigenvalues --    0.20387   0.20994   0.21796   0.22038   0.22323
  Beta virt. eigenvalues --    0.22538   0.23933   0.24093   0.24719   0.25677

 Mulliken charges and spin densities:
               1          2
     1  C    0.780210  -0.000000
     2  C   -1.726323   0.000000
     3  C    1.295189  -0.000000
     4  C    0.819086  -0.000000
     5  C   -0.444349  -0.000000
     6  C   -0.818581   0.000000
     7  O   -0.526686  -0.000000
     8  C    0.616043   0.000000
     9  C    0.022849  -0.000000
    10  C   -0.356961   0.000000
    11  C   -0.364127   0.000000
    12  C   -0.092551  -0.000000
    13  C    0.206440   0.000000
    14  C   -0.951912  -0.000000
    15  O   -0.503595  -0.000000
    16  H   -0.848875   0.000000
    17  H    0.153109  -0.000000
    18  H    0.028846  -0.000000
    19  H   -0.036926   0.000000
    20  H    0.089526  -0.000000
    21  H    0.159422   0.000000
    22  H   -0.005980   0.000000
    23  H    0.105510  -0.000000
    24  H    0.129849  -0.000000
    25  H    0.069769  -0.000000
    26  H    0.065941   0.000000
    27  H    0.135078  -0.000000
 Sum of Mulliken charges =  -2.00000   0.00000

 Dipole moment (field-independent basis, Debye):
    X=              1.3098    Y=             -0.4335    Z=              0.1842  Tot=              1.3919
 Quadrupole moment (field-independent basis, Debye-Ang):
   XX=           -168.3726   YY=           -152.5951   ZZ=           -112.2959
   XY=             14.9256   XZ=             -4.6810   YZ=             15.8887

  Exact polarizability:1376.567-296.944 446.201  34.575 -61.466 296.164
 Approx polarizability:2853.752-706.625 691.182  68.275 -90.824 324.006

                      1                      2                      3
                      A                      A                      A
 Frequencies --     63.8876                70.7222                95.5699
 Red. masses --      4.2491                 2.8808                 3.1370
 Frc consts  --      0.0102                 0.0085                 0.0169
 IR Inten    --      3.0803                 2.2171                 5.0774

                      4                      5                      6
                      A                      A                      A
 Frequencies --    122.4801               140.0966               168.4610
 Red. masses --      1.1807                 3.3325                 5.0522
 Frc consts  --      0.0104                 0.0385                 0.0845
 IR Inten    --      1.1926                 0.4842                 5.1239

                      7                      8                      9
                      A                      A                      A
 Frequencies --    219.5500               226.0301               260.9189
 Red. masses --      4.1314                 1.2340                 3.0203
 Frc consts  --      0.1173                 0.0371                 0.1211
 IR Inten    --      6.6259                18.7354                12.7421

                     10                     11                     12
                      A                      A                      A
 Frequencies --    320.2308               340.2204               348.6220
 Red. masses --      4.0323                 3.0933                 2.7054
 Frc consts  --      0.2436                 0.2110                 0.1937
 IR Inten    --     10.8692                 0.3296                 9.4808

                     13                     14                     15
                      A                      A                      A
 Frequencies --    375.7152               402.2307               424.6377
 Red. masses --      6.9561                 6.7042                 6.2956
 Frc consts  --      0.5785                 0.6391                 0.6688
 IR Inten    --      7.5491                19.8936               224.6879

                     16                     17                     18
                      A                      A                      A
 Frequencies --    439.9618               464.5495               506.6053
 Red. masses --      4.1424                 4.0107                 7.3289
 Frc consts  --      0.4724                 0.5100                 1.1082
 IR Inten    --     42.8395               104.3602               218.7794

                     19                     20                     21
                      A                      A                      A
 Frequencies --    550.6832               609.0440               661.8605
 Red. masses --      4.7305                 4.6012                 5.6018
 Frc consts  --      0.8452                 1.0056                 1.4458
 IR Inten    --      6.0077                10.8968                 0.1729

                     22                     23                     24
                      A                      A                      A
 Frequencies --    670.0394               677.1480               695.6724
 Red. masses --      3.4872                 3.3380                 1.9645
 Frc consts  --      0.9224                 0.9018                 0.5602
 IR Inten    --      3.3920                20.5454                48.7812

                     25                     26                     27
                      A                      A                      A
 Frequencies --    757.4489               770.8529               774.7214
 Red. masses --      2.8501                 1.5578                 1.8822
 Frc consts  --      0.9634                 0.5454                 0.6656
 IR Inten    --     14.3542                 4.7828                 0.7812

                     28                     29                     30
                      A                      A                      A
 Frequencies --    825.8483               845.9759               871.8217
 Red. masses --      2.8233                 2.8254                 2.8952
 Frc consts  --      1.1345                 1.1914                 1.2965
 IR Inten    --      2.6659                23.7359                16.9331

                     31                     32                     33
                      A                      A                      A
 Frequencies --    946.7468               951.7019               957.3801
 Red. masses --      3.1831                 1.2295                 1.3601
 Frc consts  --      1.6810                 0.6561                 0.7345
 IR Inten    --     31.3334                 1.0574                 3.7489

                     34                     35                     36
                      A                      A                      A
 Frequencies --    994.3900              1015.4275              1031.1417
 Red. masses --      2.5550                 2.1663                 1.8098
 Frc consts  --      1.4885                 1.3161                 1.1337
 IR Inten    --      8.5009               324.9538                 5.1498

                     37                     38                     39
                      A                      A                      A
 Frequencies --   1037.5243              1066.2544              1093.5146
 Red. masses --      1.5311                 1.9423                 1.9265
 Frc consts  --      0.9711                 1.3010                 1.3573
 IR Inten    --     12.0682                66.8487                10.2834

                     40                     41                     42
                      A                      A                      A
 Frequencies --   1115.9664              1122.3084              1171.5480
 Red. masses --      2.0181                 1.5070                 2.5947
 Frc consts  --      1.4808                 1.1184                 2.0983
 IR Inten    --     44.8798               202.3222               166.9947

                     43                     44                     45
                      A                      A                      A
 Frequencies --   1197.6298              1228.6079              1262.6426
 Red. masses --      1.9710                 3.3220                 2.2836
 Frc consts  --      1.6656                 2.9544                 2.1450
 IR Inten    --     28.3091               122.1864                19.3068

                     46                     47                     48
                      A                      A                      A
 Frequencies --   1295.0175              1331.3578              1332.6537
 Red. masses --      1.2915                 2.4684                 2.4388
 Frc consts  --      1.2761                 2.5778                 2.5519
 IR Inten    --     10.3031               368.6344               341.3152

                     49                     50                     51
                      A                      A                      A
 Frequencies --   1351.0834              1368.4403              1401.1156
 Red. masses --      1.5233                 1.2820                 3.8366
 Frc consts  --      1.6383                 1.4145                 4.4376
 IR Inten    --     21.8207               128.2350               720.7873

                     52                     53                     54
                      A                      A                      A
 Frequencies --   1415.1928              1422.9658              1439.2418
 Red. masses --      2.8092                 2.9217                 3.5112
 Frc consts  --      3.3149                 3.4856                 4.2852
 IR Inten    --    448.7629               199.4484               550.4759

                     55                     56                     57
                      A                      A                      A
 Frequencies --   1466.0094              1472.8641              1474.9813
 Red. masses --      1.4475                 1.2263                 1.0535
 Frc consts  --      1.8329                 1.5674                 1.3503
 IR Inten    --    160.4990                43.8446                57.3228

                     58                     59                     60
                      A                      A                      A
 Frequencies --   1486.7803              1494.8610              1499.4201
 Red. masses --      1.7118                 1.7250                 1.1586
 Frc consts  --      2.2294                 2.2711                 1.5347
 IR Inten    --    586.0623               224.0793                10.6885

                     61                     62                     63
                      A                      A                      A
 Frequencies --   1506.2402              1564.8436              1584.0323
 Red. masses --      1.9763                 6.7398                 5.3968
 Frc consts  --      2.6417                 9.7238                 7.9784
 IR Inten    --    194.2746              2065.7219                33.5027

                     64                     65                     66
                      A                      A                      A
 Frequencies --   2937.5558              2941.3044              2958.9010
 Red. masses --      1.0541                 1.0455                 1.0958
 Frc consts  --      5.3592                 5.3291                 5.6527
 IR Inten    --     58.6282                57.1541               190.0665

                     67                     68                     69
                      A                      A                      A
 Frequencies --   2981.1700              3019.5129              3035.3094
 Red. masses --      1.0589                 1.0960                 1.0819
 Frc consts  --      5.5446                 5.8876                 5.8730
 IR Inten    --    169.1826                27.7819                49.9169

                     70                     71                     72
                      A                      A                      A
 Frequencies --   3073.0298              3081.0121              3085.1516
 Red. masses --      1.0914                 1.0997                 1.0824
 Frc consts  --      6.0723                 6.1503                 6.0699
 IR Inten    --     21.0730                15.9013                35.8985

                     73                     74                     75
                      A                      A                      A
 Frequencies --   3109.7137              3154.0726              3156.7770
 Red. masses --      1.0907                 1.0901                 1.0910
 Frc consts  --      6.2146                 6.3893                 6.4058
 IR Inten    --    272.8530                29.7938               161.7772

 - Thermochemistry -
 -------------------
 Temperature   298.150 Kelvin.  Pressure   1.00000 Atm.
 Atom     1 has atomic number  6 and mass  12.00000

 Molecular mass:   200.08373 amu.
 Principal axes and moments of inertia in atomic units:
                           1         2         3
     Eigenvalues --  1889.865083472.789085184.09145
           X            0.99304   0.06849  -0.09578
           Y           -0.03922   0.95937   0.27942
           Z            0.11102  -0.27372   0.95538
 This molecule is an asymmetric top.
 Rotational symmetry number  1.
 Warning -- assumption of classical behavior for rotation
           may cause significant error
 Rotational temperatures (Kelvin)      0.04583     0.02494     0.01671
 Rotational constants (GHZ):           0.95496     0.51968     0.34813
 Zero-point vibrational energy     552286.0 (Joules/Mol)
                                  131.99951 (Kcal/Mol)
 Warning -- explicit consideration of  20 degrees of freedom as
           vibrations may cause significant error
 Vibrational temperatures:     91.92   101.75   137.50   176.22   201.57
          (Kelvin)            242.38   315.88   325.21   375.40   460.74
                              489.50   501.59   540.57   578.72   610.96
                              633.01   668.38   728.89   792.31   876.28
                              952.27   964.04   974.26  1000.92  1089.80
                             1109.09  1114.65  1188.21  1217.17  1254.36
                             1362.16  1369.29  1377.46  1430.71  1460.97
                             1483.58  1492.77  1534.10  1573.32  1605.63
                             1614.75  1685.60  1723.12  1767.69  1816.66
                             1863.24  1915.53  1917.39  1943.91  1968.88
                             2015.89  2036.15  2047.33  2070.75  2109.26
                             2119.12  2122.17  2139.15  2150.77  2157.33
                             2167.14  2251.46  2279.07  4226.49  4231.88
                             4257.20  4289.24  4344.41  4367.13  4421.40
                             4432.89  4438.84  4474.18  4538.01  4541.90

 Zero-point correction=                           0.210355 (Hartree/Particle)
 Thermal correction to Energy=                    0.223669
 Thermal correction to Enthalpy=                  0.224613
 Thermal correction to Gibbs Free Energy=         0.170797
 Sum of electronic and zero-point Energies=           -653.001141
 Sum of electronic and thermal Energies=              -652.987826
 Sum of electronic and thermal Enthalpies=            -652.986882
 Sum of electronic and thermal Free Energies=         -653.040699

                     E (Thermal)             CV                S
                      KCal/Mol        Cal/Mol-Kelvin    Cal/Mol-Kelvin
 Total                  140.354             51.949            113.266
 Electronic               0.000              0.000              0.000
 Translational            0.889              2.981             41.785
 Rotational               0.889              2.981             31.898
 Vibrational            138.577             45.988             39.583
 Vibration     1          0.597              1.972              4.333
 Vibration     2          0.598              1.968              4.133
 Vibration     3          0.603              1.952              3.543
 Vibration     4          0.610              1.930              3.061
 Vibration     5          0.615              1.913              2.803
 Vibration     6          0.625              1.881              2.453
 Vibration     7          0.647              1.811              1.963
 Vibration     8          0.650              1.801              1.910
 Vibration     9          0.669              1.744              1.656
 Vibration    10          0.706              1.635              1.309
 Vibration    11          0.720              1.595              1.211
 Vibration    12          0.726              1.578              1.172
 Vibration    13          0.747              1.522              1.056
 Vibration    14          0.768              1.465              0.954
 Vibration    15          0.787              1.417              0.876
 Vibration    16          0.800              1.383              0.827
 Vibration    17          0.822              1.329              0.753
 Vibration    18          0.862              1.235              0.642
 Vibration    19          0.906              1.138              0.543
 Vibration    20          0.968              1.013              0.434

                           ! Non-Optimized Parameters !
 Normal termination of Gaussian 16 at Tue Dec 26 22:48:29 2023.
