 Q-Chem 5.4, Q-Chem, Inc., Pleasanton, CA (2021)
 Q-Chem 5.4.0 for Intel X86 EM64T Linux

User input:
--------------------------------------------------------------
$molecule
-1 2
O                 -0.0501910000     -1.5332880000     -2.3532670000
C                 -0.0273680000     -0.8346250000     -1.3131140000
C                  1.2315800000     -0.4550330000     -0.6610090000
C                  2.4360690000     -0.8835860000     -1.2143930000
C                  3.6754580000     -0.5587690000     -0.6451340000
C                  4.9158790000     -0.9916110000     -1.2024450000
C                  6.1115710000     -0.6569670000     -0.6215830000
C                  6.1373800000      0.1377090000      0.5619390000
C                  4.9668780000      0.5727360000      1.1273650000
C                  3.7013170000      0.2461390000      0.5535520000
C                  2.4870210000      0.6750850000      1.1068200000
C                  1.2573350000      0.3498390000      0.5375130000
C                  0.0271090000      0.8347630000      1.1727800000
O                  0.0505050000      1.5337110000      2.2136700000
C                 -1.2310970000      0.4555480000      0.5214480000
C                 -2.4364010000      0.8838450000      1.0745410000
C                 -3.6751550000      0.5587820000      0.5051210000
C                 -4.9160540000      0.9913990000      1.0622120000
C                 -6.1116470000      0.6565280000      0.4811830000
C                 -6.1375800000     -0.1379900000     -0.7020910000
C                 -4.9667640000     -0.5728110000     -1.2673310000
C                 -3.7016910000     -0.2462050000     -0.6937090000
C                 -2.4868920000     -0.6748620000     -1.2466630000
C                 -1.2576550000     -0.3494930000     -0.6773710000
H                  2.3884450000     -1.4868740000     -2.1147740000
H                  4.8928410000     -1.5967570000     -2.1039480000
H                  7.0450850000     -0.9952710000     -1.0597080000
H                  7.0902710000      0.3960850000      1.0124930000
H                  4.9836200000      1.1781290000      2.0288110000
H                  2.4790180000      1.2807110000      2.0068290000
H                 -2.3888460000      1.4871490000      1.9749220000
H                 -4.8934850000      1.5965620000      1.9636910000
H                 -7.0449070000      0.9949970000      0.9196850000
H                 -7.0901590000     -0.3967770000     -1.1531050000
H                 -4.9829910000     -1.1782610000     -2.1688140000
H                 -2.4784990000     -1.2805380000     -2.1467180000
$end
$rem
MAX_SCF_CYCLES=200
BASIS  =  6-311++G(d,p)
GUI  =  2
JOB_TYPE  =  SP
THRESH = 14
SCF_CONVERGENCE = 8
SCF_ALGORITHM = RCA_DIIS
scf_guess = GWH
METHOD  =  B3LYP
SOLVENT_METHOD = PCM
$end
$pcm
theory = CPCM
$end
$solvent
dielectric 37.219
opticaldielectric 1.43
$end

--------------------------------------------------------------

             Standard Nuclear Orientation (Angstroms)
    I     Atom           X                Y                Z
 ----------------------------------------------------------------
    1      O      -0.0501910000    -1.5332880000    -2.3532670000
    2      C      -0.0273680000    -0.8346250000    -1.3131140000
    3      C       1.2315800000    -0.4550330000    -0.6610090000
    4      C       2.4360690000    -0.8835860000    -1.2143930000
    5      C       3.6754580000    -0.5587690000    -0.6451340000
    6      C       4.9158790000    -0.9916110000    -1.2024450000
    7      C       6.1115710000    -0.6569670000    -0.6215830000
    8      C       6.1373800000     0.1377090000     0.5619390000
    9      C       4.9668780000     0.5727360000     1.1273650000
   10      C       3.7013170000     0.2461390000     0.5535520000
   11      C       2.4870210000     0.6750850000     1.1068200000
   12      C       1.2573350000     0.3498390000     0.5375130000
   13      C       0.0271090000     0.8347630000     1.1727800000
   14      O       0.0505050000     1.5337110000     2.2136700000
   15      C      -1.2310970000     0.4555480000     0.5214480000
   16      C      -2.4364010000     0.8838450000     1.0745410000
   17      C      -3.6751550000     0.5587820000     0.5051210000
   18      C      -4.9160540000     0.9913990000     1.0622120000
   19      C      -6.1116470000     0.6565280000     0.4811830000
   20      C      -6.1375800000    -0.1379900000    -0.7020910000
   21      C      -4.9667640000    -0.5728110000    -1.2673310000
   22      C      -3.7016910000    -0.2462050000    -0.6937090000
   23      C      -2.4868920000    -0.6748620000    -1.2466630000
   24      C      -1.2576550000    -0.3494930000    -0.6773710000
   25      H       2.3884450000    -1.4868740000    -2.1147740000
   26      H       4.8928410000    -1.5967570000    -2.1039480000
   27      H       7.0450850000    -0.9952710000    -1.0597080000
   28      H       7.0902710000     0.3960850000     1.0124930000
   29      H       4.9836200000     1.1781290000     2.0288110000
   30      H       2.4790180000     1.2807110000     2.0068290000
   31      H      -2.3888460000     1.4871490000     1.9749220000
   32      H      -4.8934850000     1.5965620000     1.9636910000
   33      H      -7.0449070000     0.9949970000     0.9196850000
   34      H      -7.0901590000    -0.3967770000    -1.1531050000
   35      H      -4.9829910000    -1.1782610000    -2.1688140000
   36      H      -2.4784990000    -1.2805380000    -2.1467180000
 ----------------------------------------------------------------

  103    -996.4497186765      4.72E-09 Convergence criterion met
 Total energy in the final basis set = -996.44971868

                    Orbital Energies (a.u.)
 --------------------------------------------------------------

 Alpha MOs
 -- Occupied --
-19.0779 -19.0775 -10.2271 -10.2266 -10.1848 -10.1848 -10.1845 -10.1844
-10.1765 -10.1764 -10.1764 -10.1764 -10.1758 -10.1757 -10.1754 -10.1754
-10.1752 -10.1752 -10.1749 -10.1749 -10.1728 -10.1728 -10.1727 -10.1727
 -1.0070  -1.0046  -0.8784  -0.8759  -0.8362  -0.8208  -0.7776  -0.7776
 -0.7704  -0.7384  -0.7309  -0.7248  -0.6638  -0.6611  -0.6223  -0.6175
 -0.5967  -0.5927  -0.5678  -0.5520  -0.5265  -0.5174  -0.5124  -0.4791
 -0.4728  -0.4645  -0.4568  -0.4450  -0.4352  -0.4330  -0.4265  -0.4202
 -0.4187  -0.4170  -0.4132  -0.4038  -0.4010  -0.3961  -0.3841  -0.3809
 -0.3780  -0.3606  -0.3581  -0.3428  -0.3316  -0.3298  -0.3268  -0.3155
 -0.2945  -0.2909  -0.2613  -0.2496  -0.2455  -0.2407  -0.2276  -0.2243
 -0.1325

 Beta MOs
 -- Occupied --
-19.0732 -19.0728 -10.2251 -10.2246 -10.1845 -10.1845 -10.1841 -10.1841
-10.1764 -10.1764 -10.1764 -10.1764 -10.1756 -10.1756 -10.1752 -10.1752
-10.1747 -10.1747 -10.1743 -10.1743 -10.1726 -10.1726 -10.1724 -10.1724
 -0.9986  -0.9960  -0.8771  -0.8750  -0.8338  -0.8200  -0.7765  -0.7762
 -0.7676  -0.7372  -0.7282  -0.7240  -0.6621  -0.6551  -0.6206  -0.6167
 -0.5965  -0.5922  -0.5655  -0.5491  -0.5259  -0.5159  -0.5120  -0.4782
 -0.4702  -0.4632  -0.4562  -0.4446  -0.4345  -0.4323  -0.4199  -0.4167
 -0.4165  -0.4160  -0.4082  -0.4027  -0.4001  -0.3938  -0.3776  -0.3744
 -0.3628  -0.3592  -0.3575  -0.3418  -0.3314  -0.3273  -0.3259  -0.3047
 -0.2914  -0.2863  -0.2477  -0.2453  -0.2421  -0.2363  -0.2212  -0.2186

          Ground-State Mulliken Net Atomic Charges

     Atom                 Charge (a.u.)    Spin (a.u.)
  --------------------------------------------------------
      1 O                    -0.462372       0.176970
      2 C                    -0.616650       0.111771
      3 C                     0.251987       0.025763
      4 C                     0.045993       0.034122
      5 C                     0.079361       0.026235
      6 C                    -0.240517       0.000159
      7 C                    -0.378452       0.021857
      8 C                    -0.377055       0.020493
      9 C                    -0.240913       0.001572
     10 C                     0.080132       0.024855
     11 C                     0.048587       0.036682
     12 C                     0.248363       0.025004
     13 C                    -0.613586       0.113979
     14 O                    -0.464590       0.178609
     15 C                     0.248747       0.025079
     16 C                     0.045607       0.036684
     17 C                     0.080898       0.024911
     18 C                    -0.242091       0.001527
     19 C                    -0.378227       0.020584
     20 C                    -0.377374       0.021917
     21 C                    -0.238965       0.000225
     22 C                     0.078173       0.026327
     23 C                     0.049229       0.034209
     24 C                     0.250176       0.025958
     25 H                     0.149136      -0.002633
     26 H                     0.177914       0.000620
     27 H                     0.203842      -0.001773
     28 H                     0.203910      -0.001683
     29 H                     0.177721       0.000548
     30 H                     0.149292      -0.002819
     31 H                     0.149088      -0.002810
     32 H                     0.177882       0.000550
     33 H                     0.203821      -0.001691
     34 H                     0.203902      -0.001778
     35 H                     0.177736       0.000622
     36 H                     0.149292      -0.002645
  --------------------------------------------------------
  Sum of atomic charges =    -1.000000

                    Cartesian Multipole Moments
 -----------------------------------------------------------------
    Charge (ESU x 10^10)
                -4.8032
    Dipole Moment (Debye)
         X       0.0008      Y      -0.0215      Z       0.3049
       Tot       0.3056
    Quadrupole Moments (Debye-Ang)
        XX    -128.2385     XY      -1.0570     YY    -154.5553
        XZ      -0.1537     YZ      -8.5283     ZZ    -161.5896

 Total job time:  2669.08s(wall), 17525.47s(cpu)
        *  Thank you very much for using Q-Chem.  Have a nice day.  *
