 Q-Chem 5.4, Q-Chem, Inc., Pleasanton, CA (2021)
 Q-Chem 5.4.0 for Intel X86 EM64T Linux

User input:
--------------------------------------------------------------
$molecule
0 1
C                 -4.1274410000      3.6410230000      1.5168370000
C                 -4.6133980000      3.8629350000      0.2313490000
C                 -4.0292610000      3.2247490000     -0.8517450000
C                 -2.9470140000      2.3505320000     -0.6776060000
C                 -2.4390320000      2.1119650000      0.6198140000
C                 -3.0543710000      2.7765050000      1.7054720000
C                 -2.5660700000      2.5685420000      3.1037810000
C                 -1.4291260000      1.6523620000      3.3075450000
C                 -0.8468320000      1.0231740000      2.2790200000
C                 -1.2899260000      1.1892680000      0.8453820000
O                 -3.0800910000      3.1304600000      4.0573370000
O                 -0.7204290000      0.5913430000     -0.0413530000
H                 -4.5633160000      4.1250490000      2.3808270000
H                 -4.4075090000      3.3970050000     -1.8553420000
O                 -2.3870880000      1.7349500000     -1.7425360000
Br                 0.6160380000     -0.1534180000      2.5583170000
H                 -5.4490730000      4.5342950000      0.0714360000
H                 -1.1005600000      1.5238120000      4.3313710000
H                 -2.8473720000      2.0035110000     -2.5461040000
$end

$rem
BASIS  =  6-311++G(d,p)
GUI  =  2
JOB_TYPE  =  SP
METHOD  =  B3LYP
SCF_CONVERGENCE  = 8
SOLVENT_METHOD = sm12
$end

$smx
solvent dimethylformamide
charges CM5
$end

--------------------------------------------------------------

             Standard Nuclear Orientation (Angstroms)
    I     Atom           X                Y                Z
 ----------------------------------------------------------------
    1      C      -4.1274410000     3.6410230000     1.5168370000
    2      C      -4.6133980000     3.8629350000     0.2313490000
    3      C      -4.0292610000     3.2247490000    -0.8517450000
    4      C      -2.9470140000     2.3505320000    -0.6776060000
    5      C      -2.4390320000     2.1119650000     0.6198140000
    6      C      -3.0543710000     2.7765050000     1.7054720000
    7      C      -2.5660700000     2.5685420000     3.1037810000
    8      C      -1.4291260000     1.6523620000     3.3075450000
    9      C      -0.8468320000     1.0231740000     2.2790200000
   10      C      -1.2899260000     1.1892680000     0.8453820000
   11      O      -3.0800910000     3.1304600000     4.0573370000
   12      O      -0.7204290000     0.5913430000    -0.0413530000
   13      H      -4.5633160000     4.1250490000     2.3808270000
   14      H      -4.4075090000     3.3970050000    -1.8553420000
   15      O      -2.3870880000     1.7349500000    -1.7425360000
   16      Br      0.6160380000    -0.1534180000     2.5583170000
   17      H      -5.4490730000     4.5342950000     0.0714360000
   18      H      -1.1005600000     1.5238120000     4.3313710000
   19      H      -2.8473720000     2.0035110000    -2.5461040000
 ----------------------------------------------------------------

   16   -3184.0339053498      2.55e-09  Convergence criterion met
 Total energy in the final basis set =    -3184.0589223594

                    Orbital Energies (a.u.)
 --------------------------------------------------------------

 Alpha MOs
 -- Occupied --
******** -62.5005 -56.3211 -56.3172 -56.3168 -19.1773 -19.1368 -19.1360
-10.2946 -10.2885 -10.2744 -10.2677 -10.2185 -10.2170 -10.2157 -10.2046
-10.2025 -10.1963  -8.7093  -6.5411  -6.5282  -6.5268  -2.6519  -2.6485
 -2.6475  -2.6372  -2.6371  -1.0955  -1.0730  -1.0700  -0.8956  -0.8689
 -0.8097  -0.7784  -0.7698  -0.7007  -0.6681  -0.6416  -0.6122  -0.5647
 -0.5506  -0.5151  -0.5111  -0.4880  -0.4730  -0.4675  -0.4613  -0.4413
 -0.4323  -0.4276  -0.4218  -0.4098  -0.3906  -0.3835  -0.3647  -0.3517
 -0.3071  -0.2948  -0.2903  -0.2797  -0.2782  -0.2568

          Ground-State Mulliken Net Atomic Charges

     Atom                 Charge (a.u.)
  ----------------------------------------
      1 C                     0.354410
      2 C                     0.626174
      3 C                     1.479184
      4 C                     0.200418
      5 C                    -0.811601
      6 C                    -0.022586
      7 C                    -1.183299
      8 C                     0.285881
      9 C                     0.304698
     10 C                    -1.887473
     11 O                    -0.286430
     12 O                    -0.201571
     13 H                     0.165700
     14 H                     0.339111
     15 O                    -0.201020
     16 Br                   -0.151446
     17 H                     0.353094
     18 H                     0.299544
     19 H                     0.337213
  ----------------------------------------
  Sum of atomic charges =     0.000000

                    Cartesian Multipole Moments
 -----------------------------------------------------------------
    Charge (ESU x 10^10)
                 0.0000
    Dipole Moment (Debye)
         X      -3.6326      Y       2.5180      Z      -3.5122
       Tot       5.6455
    Quadrupole Moments (Debye-Ang)
        XX     -72.4156     XY     -14.6802     YY     -83.1624
        XZ      18.0741     YZ     -15.3046     ZZ     -95.2634

 Total job time:  277.98s(wall), 2152.05s(cpu)
        *  Thank you very much for using Q-Chem.  Have a nice day.  *
