 Gaussian 16, Revision A.03,
 Gaussian 16:  ES64L-G16RevA.03 25-Dec-2016

 ----------------------------------------------------------------
 #P UB3LYP/6-311++G(d,p) SCRF=(PCM,Solvent=n,n-DiMethylFormamide)
 ----------------------------------------------------------------

 ------------------
 Quinone PCM in DMF
 ------------------
 Symbolic Z-matrix:
 Charge =  0 Multiplicity = 1

                         Standard orientation:
 ---------------------------------------------------------------------
 Center     Atomic      Atomic             Coordinates (Angstroms)
 Number     Number       Type             X           Y           Z
 ---------------------------------------------------------------------
      1          6           0       -4.968496   -1.492535    0.193071
      2          6           0       -3.512962   -1.636889    0.520784
      3          8           0       -3.019178   -1.736645    1.606255
      4          8           0       -2.766360   -1.659679   -0.645511
      5          6           0       -1.389752   -1.587676   -0.549576
      6          6           0       -0.693077   -2.766980   -0.786569
      7          6           0        0.689897   -2.767850   -0.786379
      8          6           0        1.388066   -1.589415   -0.549403
      9          8           0        2.764558   -1.663500   -0.644848
     10          6           0        3.510850   -1.639550    0.521674
     11          6           0        4.966724   -1.498058    0.194288
     12          8           0        3.016532   -1.736182    1.607185
     13          6           0        0.710975   -0.378997   -0.324483
     14          6           0        1.472761    0.895504   -0.127427
     15          8           0        2.687818    0.917821   -0.015452
     16          6           0        0.701412    2.168532   -0.088330
     17          6           0        1.397839    3.380612   -0.027330
     18          6           0        0.701786    4.581298    0.021893
     19          6           0       -0.696656    4.582020    0.022732
     20          6           0       -1.393986    3.382037   -0.025672
     21          6           0       -0.698850    2.169254   -0.087533
     22          6           0       -1.471485    0.897003   -0.125969
     23          8           0       -2.686380    0.920429   -0.012557
     24          6           0       -0.711163   -0.378200   -0.324275
     25          1           0       -5.140651   -0.462087   -0.127036
     26          1           0       -5.563723   -1.706782    1.078276
     27          1           0       -5.248983   -2.152472   -0.629310
     28          1           0       -1.254877   -3.674793   -0.967219
     29          1           0        1.250623   -3.676386   -0.966738
     30          1           0        5.141115   -0.467348   -0.123829
     31          1           0        5.245911   -2.157042   -0.629264
     32          1           0        5.561392   -1.715014    1.079220
     33          1           0        2.480046    3.355804   -0.017708
     34          1           0        1.244177    5.518952    0.063665
     35          1           0       -1.238042    5.520226    0.065165
     36          1           0       -2.476207    3.358317   -0.014769
 ---------------------------------------------------------------------

 SCF Done:  E(UB3LYP) =  -1144.84552857     A.U. after   15 cycles

 The electronic state is 1-A.
 Alpha  occ. eigenvalues --  -19.19047 -19.19045 -19.13676 -19.13675 -19.13653
 Alpha  occ. eigenvalues --  -19.13653 -10.32743 -10.32742 -10.29275 -10.29274
 Alpha  occ. eigenvalues --  -10.27364 -10.27362 -10.22964 -10.22919 -10.21215
 Alpha  occ. eigenvalues --  -10.21187 -10.21163 -10.21128 -10.20129 -10.20084
 Alpha  occ. eigenvalues --  -10.20021 -10.20015 -10.18495 -10.18494  -1.13531
 Alpha  occ. eigenvalues --   -1.13489  -1.07422  -1.07247  -1.05513  -1.05460
 Alpha  occ. eigenvalues --   -0.90475  -0.88941  -0.82465  -0.80920  -0.78193
 Alpha  occ. eigenvalues --   -0.78177  -0.77297  -0.74885  -0.70468  -0.68469
 Alpha  occ. eigenvalues --   -0.66091  -0.65984  -0.62017  -0.60897  -0.57470
 Alpha  occ. eigenvalues --   -0.57411  -0.54555  -0.52541  -0.51419  -0.51325
 Alpha  occ. eigenvalues --   -0.50923  -0.50435  -0.49966  -0.49454  -0.48575
 Alpha  occ. eigenvalues --   -0.47563  -0.46683  -0.46078  -0.46070  -0.45374
 Alpha  occ. eigenvalues --   -0.45369  -0.44182  -0.43264  -0.42755  -0.42410
 Alpha  occ. eigenvalues --   -0.41957  -0.41263  -0.40650  -0.39546  -0.39438
 Alpha  occ. eigenvalues --   -0.38729  -0.38633  -0.37406  -0.37180  -0.34752
 Alpha  occ. eigenvalues --   -0.34095  -0.30901  -0.30694  -0.29987  -0.29222
 Alpha  occ. eigenvalues --   -0.28340  -0.28247  -0.27966  -0.27242
 Alpha virt. eigenvalues --   -0.12513  -0.08033  -0.04602  -0.03396  -0.01769
 Alpha virt. eigenvalues --   -0.01513  -0.00745  -0.00041   0.00115   0.01248
 Alpha virt. eigenvalues --    0.01864   0.02087   0.02662   0.02808   0.03181

  Beta  occ. eigenvalues --  -19.19047 -19.19045 -19.13676 -19.13675 -19.13653
  Beta  occ. eigenvalues --  -19.13653 -10.32743 -10.32742 -10.29275 -10.29274
  Beta  occ. eigenvalues --  -10.27364 -10.27362 -10.22964 -10.22919 -10.21215
  Beta  occ. eigenvalues --  -10.21187 -10.21163 -10.21128 -10.20129 -10.20084
  Beta  occ. eigenvalues --  -10.20021 -10.20015 -10.18495 -10.18494  -1.13531
  Beta  occ. eigenvalues --   -1.13489  -1.07422  -1.07247  -1.05513  -1.05460
  Beta  occ. eigenvalues --   -0.90475  -0.88941  -0.82465  -0.80920  -0.78193
  Beta  occ. eigenvalues --   -0.78177  -0.77297  -0.74885  -0.70468  -0.68469
  Beta  occ. eigenvalues --   -0.66091  -0.65984  -0.62017  -0.60897  -0.57470
  Beta  occ. eigenvalues --   -0.57411  -0.54555  -0.52541  -0.51419  -0.51325
  Beta  occ. eigenvalues --   -0.50923  -0.50435  -0.49966  -0.49454  -0.48575
  Beta  occ. eigenvalues --   -0.47563  -0.46683  -0.46078  -0.46070  -0.45374
  Beta  occ. eigenvalues --   -0.45369  -0.44182  -0.43264  -0.42755  -0.42410
  Beta  occ. eigenvalues --   -0.41957  -0.41263  -0.40650  -0.39546  -0.39438
  Beta  occ. eigenvalues --   -0.38729  -0.38633  -0.37406  -0.37180  -0.34752
  Beta  occ. eigenvalues --   -0.34095  -0.30901  -0.30694  -0.29987  -0.29222
  Beta  occ. eigenvalues --   -0.28340  -0.28247  -0.27966  -0.27242
  Beta virt. eigenvalues --   -0.12513  -0.08033  -0.04602  -0.03396  -0.01769
  Beta virt. eigenvalues --   -0.01513  -0.00745  -0.00041   0.00115   0.01248
  Beta virt. eigenvalues --    0.01864   0.02087   0.02662   0.02808   0.03181

 Mulliken charges and spin densities:
               1          2
     1  C   -0.482342  -0.000000
     2  C    0.057579   0.000000
     3  O   -0.246889  -0.000000
     4  O    0.015205   0.000000
     5  C   -0.391494  -0.000000
     6  C    0.071709   0.000000
     7  C    0.071186  -0.000000
     8  C   -0.391718   0.000000
     9  O    0.015148  -0.000000
    10  C    0.057130   0.000000
    11  C   -0.482198  -0.000000
    12  O   -0.246897  -0.000000
    13  C    0.774731  -0.000000
    14  C   -0.449944  -0.000000
    15  O   -0.245234   0.000000
    16  C    0.078171   0.000000
    17  C   -0.013337   0.000000
    18  C   -0.364537   0.000000
    19  C   -0.364718   0.000000
    20  C   -0.013744   0.000000
    21  C    0.077659   0.000000
    22  C   -0.450268   0.000000
    23  O   -0.245306  -0.000000
    24  C    0.776887  -0.000000
    25  H    0.198958   0.000000
    26  H    0.175716  -0.000000
    27  H    0.186217   0.000000
    28  H    0.236560   0.000000
    29  H    0.236582  -0.000000
    30  H    0.199023   0.000000
    31  H    0.186173  -0.000000
    32  H    0.175700  -0.000000
    33  H    0.188136   0.000000
    34  H    0.211010  -0.000000
    35  H    0.210991   0.000000
    36  H    0.188155   0.000000
 Sum of Mulliken charges =  -0.00000  -0.00000

 Dipole moment (field-independent basis, Debye):
    X=              0.0020    Y=              1.3214    Z=             -4.8186  Tot=              4.9965
 Quadrupole moment (field-independent basis, Debye-Ang):
   XX=           -120.8325   YY=           -103.7196   ZZ=           -149.7927
   XY=             -0.0063   XZ=              0.0228   YZ=             10.6627

 Normal termination of Gaussian 16 at Sun Jan 14 01:12:17 2024.
