 Q-Chem 5.4, Q-Chem, Inc., Pleasanton, CA (2021)
 Q-Chem 5.4.0 for Intel X86 EM64T Linux

User input:
--------------------------------------------------------------
$molecule
-2 1
N                 -2.7866990000     -2.0736430000      0.3379190000
C                 -2.4900330000     -0.7119450000      0.1730520000
C                 -3.5254260000      0.2117540000      0.0691740000
C                 -3.2555480000      1.5794770000     -0.1836430000
C                 -1.9583770000      2.0067280000     -0.3359310000
C                 -0.8636130000      1.1050290000     -0.2172860000
C                  0.4692120000      1.6422860000     -0.3589570000
O                  0.6865760000      2.8894100000     -0.6000870000
C                  1.5405500000      0.6891250000     -0.2064210000
C                  2.8637520000      1.1788220000     -0.3369720000
C                  3.9660110000      0.3691310000     -0.2113710000
C                  3.7765750000     -1.0171370000      0.0434730000
C                  2.5013020000     -1.5173870000      0.1811590000
Cl                 2.4713220000     -3.3028410000      0.4358980000
C                  1.3083820000     -0.7327530000      0.0911160000
C                 -0.0290490000     -1.2417100000      0.2825490000
O                 -0.2551930000     -2.4667580000      0.6523600000
C                 -1.1092710000     -0.2940830000      0.0628400000
H                 -3.5978800000     -2.2380130000      0.9191220000
H                 -1.9143190000     -2.5719140000      0.6110150000
H                 -4.5524860000     -0.1447480000      0.1400930000
H                 -4.0830350000      2.2832610000     -0.2678010000
H                 -1.7100900000      3.0419620000     -0.5410250000
H                  2.9509900000      2.2406640000     -0.5426470000
H                  4.9737040000      0.7663950000     -0.3138810000
H                  4.6226450000     -1.6911120000      0.1162540000
$end
$rem
MAX_SCF_CYCLES=200
BASIS  =  6-311++G(d,p)
GUI  =  2
JOB_TYPE  =  SP
METHOD  =  B3LYP
SOLVENT_METHOD = COSMO
$end
$solvent
dielectric 37.219
opticaldielectric 1.43
$end

--------------------------------------------------------------

             Standard Nuclear Orientation (Angstroms)
    I     Atom           X                Y                Z
 ----------------------------------------------------------------
    1      N      -2.3151166357    -2.7058211550    -0.1354242212
    2      C      -2.5074737592    -1.3193321977    -0.0351227028
    3      C      -3.7990801187    -0.8027202847    -0.0048854845
    4      C      -4.0212121416     0.5965212367     0.0091610193
    5      C      -2.9536998072     1.4615541016    -0.0137128452
    6      C      -1.6134393592     0.9827452461    -0.0231970288
    7      C      -0.5497953365     1.9593288669    -0.0140285232
    8      O      -0.7796182514     3.2273543824    -0.0126955920
    9      C       0.7870676259     1.4188059706    -0.0005878501
   10      C       1.8582795443     2.3462191401     0.0103705736
   11      C       3.1742820978     1.9534417568     0.0249731784
   12      C       3.4783668694     0.5642166600     0.0124626876
   13      C       2.4559863037    -0.3578731629     0.0083324447
   14      Cl      3.0464773319    -2.0603694973    -0.0720623403
   15      C       1.0644529909    -0.0257604515     0.0206843109
   16      C      -0.0117594574    -0.9870975900     0.0654411365
   17      O       0.2059985392    -2.2617097612     0.1942400294
   18      C      -1.3570224616    -0.4422183202    -0.0153213299
   19      H      -3.0037604222    -3.2424061516     0.3751395024
   20      H      -1.3173280527    -2.9176438040     0.0730257442
   21      H      -4.6395092309    -1.4951773982    -0.0389072058
   22      H      -5.0417087229     0.9778836751     0.0258535623
   23      H      -3.0808953127     2.5382338107    -0.0149479000
   24      H       1.5707129647     3.3925071137     0.0075340732
   25      H       3.9816506877     2.6827099075     0.0347758573
   26      H       4.5057796518     0.2187795870    -0.0092173179
 ----------------------------------------------------------------

   11   -1203.9276462447      7.13e-06  Convergence criterion met
 Total energy in the final basis set =    -1203.9276462447
    6   -1204.1957452495      3.25e-06  Convergence criterion met
 Total energy in the final basis set =    -1204.1957452495

                    Orbital Energies (a.u.)
 --------------------------------------------------------------

 Alpha MOs
 -- Occupied --
******** -19.0316 -19.0274 -14.2795 -10.2184 -10.1930 -10.1928 -10.1797
-10.1588 -10.1583 -10.1554 -10.1509 -10.1499 -10.1492 -10.1465 -10.1424
-10.1393 -10.1366  -9.4457  -7.2100  -7.2011  -7.2000  -0.9560  -0.9454
 -0.8847  -0.8600  -0.8152  -0.8057  -0.7585  -0.7162  -0.7141  -0.7031
 -0.6438  -0.6113  -0.6021  -0.5531  -0.5346  -0.5179  -0.4993  -0.4734
 -0.4506  -0.4475  -0.4439  -0.4210  -0.4154  -0.4066  -0.3954  -0.3876
 -0.3765  -0.3675  -0.3651  -0.3592  -0.3445  -0.3359  -0.3245  -0.3235
 -0.3153  -0.3073  -0.2979  -0.2839  -0.2368  -0.2297  -0.2233  -0.2110
 -0.2037  -0.1911  -0.1144

          Ground-State Mulliken Net Atomic Charges

     Atom                 Charge (a.u.)
  ----------------------------------------
      1 N                    -0.489321
      2 C                     0.129782
      3 C                    -0.371444
      4 C                    -0.391002
      5 C                    -0.149755
      6 C                     0.265745
      7 C                    -0.572695
      8 O                    -0.688709
      9 C                     0.208491
     10 C                     0.152213
     11 C                    -0.754310
     12 C                    -0.269657
     13 C                     0.948193
     14 Cl                    0.260528
     15 C                    -0.087597
     16 C                    -1.508231
     17 O                    -0.537115
     18 C                     0.218902
     19 H                     0.266133
     20 H                     0.328821
     21 H                     0.163799
     22 H                     0.182716
     23 H                     0.149395
     24 H                     0.162062
     25 H                     0.184142
     26 H                     0.198916
  ----------------------------------------
  Sum of atomic charges =    -2.000000

                    Cartesian Multipole Moments
 -----------------------------------------------------------------
    Charge (ESU x 10^10)
                -9.6064
    Dipole Moment (Debye)
         X       1.8032      Y      -3.8877      Z       0.8972
       Tot       4.3785
    Quadrupole Moments (Debye-Ang)
        XX    -141.2066     XY      17.2214     YY    -174.4495
        XZ      -3.6690     YZ      -2.9446     ZZ    -124.8726

 Total job time:  72.42s(wall), 555.62s(cpu)
        *  Thank you very much for using Q-Chem.  Have a nice day.  *
