 Gaussian 16, Revision A.03,
 Gaussian 16:  ES64L-G16RevA.03 25-Dec-2016

 --------------------------------------
 #P UB3LYP/6-311++G(d,p) nosym opt freq
 --------------------------------------

 --------
 Oxidized
 --------
 Symbolic Z-matrix:
 Charge =  0 Multiplicity = 1

 SCF Done:  E(UB3LYP) =  -839.410601464     A.U. after   16 cycles
 SCF Done:  E(UB3LYP) =  -839.440717876     A.U. after   14 cycles
 SCF Done:  E(UB3LYP) =  -839.445559601     A.U. after   14 cycles
 SCF Done:  E(UB3LYP) =  -839.451403834     A.U. after   13 cycles
 SCF Done:  E(UB3LYP) =  -839.451604436     A.U. after   12 cycles
 SCF Done:  E(UB3LYP) =  -839.451669928     A.U. after   12 cycles
 SCF Done:  E(UB3LYP) =  -839.451681777     A.U. after   10 cycles
 SCF Done:  E(UB3LYP) =  -839.451682668     A.U. after    9 cycles
 Optimization completed.
    -- Stationary point found.
 Normal termination of Gaussian 16 at Thu Dec 21 19:40:18 2023.

 ----------------------------------------------------------------------
 #P Geom=AllCheck Guess=TCheck SCRF=Check GenChk UB3LYP/6-311++G(d,p) F
 req
 ----------------------------------------------------------------------

 Structure from the checkpoint file:  "187.chk"
 --------
 Oxidized
 --------
 Charge =  0 Multiplicity = 1

                          Input orientation:
 ---------------------------------------------------------------------
 Center     Atomic      Atomic             Coordinates (Angstroms)
 Number     Number       Type             X           Y           Z
 ---------------------------------------------------------------------
      1          8           0       -2.290441   -2.667184   -0.430604
      2          6           0       -2.353647   -1.334904   -0.202486
      3          6           0       -3.596939   -0.701244   -0.080583
      4          6           0       -3.683711    0.662950    0.153257
      5          6           0       -2.525763    1.424178    0.270447
      6          6           0       -1.281362    0.811424    0.152117
      7          6           0       -0.072123    1.685508    0.288098
      8          8           0       -0.190238    2.882497    0.493823
      9          6           0        1.264492    1.047118    0.164897
     10          6           0        2.399013    1.839553    0.288272
     11          6           0        3.663815    1.256050    0.175251
     12          6           0        3.797905   -0.101874   -0.058122
     13          6           0        2.661568   -0.917118   -0.185420
     14          8           0        2.855353   -2.221729   -0.410409
     15          6           0        1.370034   -0.341617   -0.073425
     16          6           0        0.179049   -1.199629   -0.207331
     17          8           0        0.312874   -2.412148   -0.415767
     18          6           0       -1.163123   -0.578088   -0.086417
     19          1           0       -3.185594   -3.021991   -0.481286
     20          1           0       -4.500372   -1.297508   -0.172413
     21          1           0       -4.657273    1.130733    0.243856
     22          1           0       -2.562200    2.489833    0.452774
     23          1           0        2.278501    2.899234    0.470577
     24          1           0        4.551262    1.871428    0.271007
     25          1           0        4.770841   -0.569555   -0.148289
     26          1           0        1.958080   -2.635918   -0.471824
 ---------------------------------------------------------------------

 SCF Done:  E(UB3LYP) =  -839.451682668     A.U. after    1 cycles

 Alpha  occ. eigenvalues --  -19.18170 -19.15394 -19.13179 -19.12591 -10.28716
 Alpha  occ. eigenvalues --  -10.27924 -10.27709 -10.26343 -10.21680 -10.21545
 Alpha  occ. eigenvalues --  -10.21143 -10.20942 -10.20806 -10.20625 -10.20194
 Alpha  occ. eigenvalues --  -10.19733 -10.19396 -10.19146  -1.09995  -1.08496
 Alpha  occ. eigenvalues --   -1.06080  -1.05448  -0.89615  -0.88039  -0.81870
 Alpha  occ. eigenvalues --   -0.78108  -0.77809  -0.76758  -0.69559  -0.67843
 Alpha  occ. eigenvalues --   -0.66259  -0.63249  -0.60605  -0.58747  -0.56379
 Alpha  occ. eigenvalues --   -0.53838  -0.52773  -0.51386  -0.50106  -0.49130
 Alpha  occ. eigenvalues --   -0.48070  -0.46711  -0.45829  -0.45504  -0.44911
 Alpha  occ. eigenvalues --   -0.43865  -0.42372  -0.41959  -0.41079  -0.40291
 Alpha  occ. eigenvalues --   -0.40188  -0.38627  -0.38573  -0.37288  -0.36653
 Alpha  occ. eigenvalues --   -0.35201  -0.29516  -0.28497  -0.28190  -0.27074
 Alpha  occ. eigenvalues --   -0.25975  -0.24598
 Alpha virt. eigenvalues --   -0.11885  -0.06747  -0.04335  -0.02434  -0.01689
 Alpha virt. eigenvalues --   -0.00350  -0.00137   0.01225   0.01995   0.02738
 Alpha virt. eigenvalues --    0.02953   0.03955   0.04101   0.04168   0.04225

  Beta  occ. eigenvalues --  -19.18170 -19.15394 -19.13179 -19.12591 -10.28716
  Beta  occ. eigenvalues --  -10.27924 -10.27709 -10.26343 -10.21680 -10.21545
  Beta  occ. eigenvalues --  -10.21143 -10.20942 -10.20806 -10.20625 -10.20194
  Beta  occ. eigenvalues --  -10.19733 -10.19396 -10.19146  -1.09995  -1.08496
  Beta  occ. eigenvalues --   -1.06080  -1.05448  -0.89615  -0.88039  -0.81870
  Beta  occ. eigenvalues --   -0.78108  -0.77809  -0.76758  -0.69559  -0.67843
  Beta  occ. eigenvalues --   -0.66259  -0.63249  -0.60605  -0.58747  -0.56379
  Beta  occ. eigenvalues --   -0.53838  -0.52773  -0.51386  -0.50106  -0.49130
  Beta  occ. eigenvalues --   -0.48070  -0.46711  -0.45829  -0.45504  -0.44911
  Beta  occ. eigenvalues --   -0.43865  -0.42372  -0.41959  -0.41079  -0.40291
  Beta  occ. eigenvalues --   -0.40188  -0.38627  -0.38573  -0.37288  -0.36653
  Beta  occ. eigenvalues --   -0.35201  -0.29516  -0.28497  -0.28190  -0.27074
  Beta  occ. eigenvalues --   -0.25975  -0.24598
  Beta virt. eigenvalues --   -0.11885  -0.06747  -0.04335  -0.02434  -0.01689
  Beta virt. eigenvalues --   -0.00350  -0.00137   0.01225   0.01995   0.02738
  Beta virt. eigenvalues --    0.02953   0.03955   0.04101   0.04168   0.04225

 Mulliken charges and spin densities:
               1          2
     1  O   -0.161055  -0.000000
     2  C    0.117717   0.000000
     3  C   -0.182806   0.000000
     4  C   -0.263497  -0.000000
     5  C    0.050846   0.000000
     6  C    0.351916  -0.000000
     7  C   -0.577358  -0.000000
     8  O   -0.208080   0.000000
     9  C    0.287508  -0.000000
    10  C    0.008520   0.000000
    11  C   -0.316531  -0.000000
    12  C   -0.133906  -0.000000
    13  C   -0.113264   0.000000
    14  O   -0.284540   0.000000
    15  C    0.387049   0.000000
    16  C   -0.386332  -0.000000
    17  O   -0.267487   0.000000
    18  C    0.022695  -0.000000
    19  H    0.271057   0.000000
    20  H    0.125593  -0.000000
    21  H    0.190250  -0.000000
    22  H    0.175886   0.000000
    23  H    0.176079  -0.000000
    24  H    0.184865   0.000000
    25  H    0.193809  -0.000000
    26  H    0.351065   0.000000
 Sum of Mulliken charges =  -0.00000   0.00000

 Dipole moment (field-independent basis, Debye):
    X=             -3.2017    Y=             -0.0970    Z=              0.0190  Tot=              3.2032
 Quadrupole moment (field-independent basis, Debye-Ang):
   XX=            -75.4551   YY=           -111.9056   ZZ=           -105.3910
   XY=             12.6934   XZ=              1.8451   YZ=             -1.2897

  Exact polarizability: 269.701   6.784 198.671  -0.855  19.616  86.734
 Approx polarizability: 403.055  -0.141 384.402  -2.921  42.657 141.937

                      1                      2                      3
                      A                      A                      A
 Frequencies --     34.3171                59.5584               103.0437
 Red. masses --      7.2284                 6.7814                10.0370
 Frc consts  --      0.0050                 0.0142                 0.0628
 IR Inten    --      6.2173                 0.2804                 0.3773

                      4                      5                      6
                      A                      A                      A
 Frequencies --    159.4102               196.3008               200.5131
 Red. masses --      6.6701                 4.5406                 6.4060
 Frc consts  --      0.0999                 0.1031                 0.1517
 IR Inten    --      0.0021                 0.5569                 1.0482

                      7                      8                      9
                      A                      A                      A
 Frequencies --    233.6436               267.9532               312.0429
 Red. masses --      4.7131                 4.2786                 7.0662
 Frc consts  --      0.1516                 0.1810                 0.4054
 IR Inten    --      0.8569                 8.4494                 3.6434

                     10                     11                     12
                      A                      A                      A
 Frequencies --    339.0503               356.3591               371.4206
 Red. masses --      6.6849                 1.2067                11.5122
 Frc consts  --      0.4528                 0.0903                 0.9357
 IR Inten    --      0.8998                84.0453                 5.3008

                     13                     14                     15
                      A                      A                      A
 Frequencies --    428.9296               436.0875               446.7728
 Red. masses --      5.2187                12.5327                 7.2626
 Frc consts  --      0.5657                 1.4042                 0.8541
 IR Inten    --      0.3957                20.5482                 7.5207

                     16                     17                     18
                      A                      A                      A
 Frequencies --    462.2885               481.6892               487.9953
 Red. masses --      6.5119                 4.0624                 7.2052
 Frc consts  --      0.8199                 0.5554                 1.0109
 IR Inten    --     12.9239                 0.0000                 3.2251

                     19                     20                     21
                      A                      A                      A
 Frequencies --    527.5227               554.6367               578.8239
 Red. masses --      4.5656                 8.1752                 4.8168
 Frc consts  --      0.7486                 1.4817                 0.9508
 IR Inten    --      5.3530                 0.1109                 0.0026

                     22                     23                     24
                      A                      A                      A
 Frequencies --    579.3018               633.8550               665.9802
 Red. masses --      5.5975                 6.7834                 4.1400
 Frc consts  --      1.1068                 1.6057                 1.0819
 IR Inten    --      2.1328                 5.0848                 7.1759

                     25                     26                     27
                      A                      A                      A
 Frequencies --    710.3287               715.5554               760.8462
 Red. masses --      7.0321                 3.2561                 2.5441
 Frc consts  --      2.0905                 0.9823                 0.8677
 IR Inten    --      4.8692                 0.0154                69.3972

                     28                     29                     30
                      A                      A                      A
 Frequencies --    785.8109               790.7689               804.6965
 Red. masses --      3.9195                 6.4912                 1.5492
 Frc consts  --      1.4260                 2.3915                 0.5911
 IR Inten    --      4.4597                 1.9916                23.6524

                     31                     32                     33
                      A                      A                      A
 Frequencies --    820.6665               836.3703               845.8233
 Red. masses --      1.8957                 1.3215                 8.8518
 Frc consts  --      0.7522                 0.5447                 3.7311
 IR Inten    --    110.5894                 3.8798                69.7297

                     34                     35                     36
                      A                      A                      A
 Frequencies --    911.8215               925.4879               932.7805
 Red. masses --      1.3794                 6.3547                 1.4242
 Frc consts  --      0.6757                 3.2069                 0.7301
 IR Inten    --      0.3231                 5.9977                 0.1567

                     37                     38                     39
                      A                      A                      A
 Frequencies --    988.4613               995.6507              1002.1860
 Red. masses --      6.6470                 1.3133                 1.3176
 Frc consts  --      3.8264                 0.7670                 0.7797
 IR Inten    --     39.0534                 0.2906                 0.5285

                     40                     41                     42
                      A                      A                      A
 Frequencies --   1055.0962              1085.2848              1106.3149
 Red. masses --      3.7396                 2.3718                 1.8929
 Frc consts  --      2.4528                 1.6460                 1.3650
 IR Inten    --     28.5181                12.0274                19.9966

                     43                     44                     45
                      A                      A                      A
 Frequencies --   1169.9806              1183.6417              1193.1320
 Red. masses --      2.2247                 1.2538                 1.1563
 Frc consts  --      1.7942                 1.0349                 0.9699
 IR Inten    --      7.5761                33.3670                 7.5552

                     46                     47                     48
                      A                      A                      A
 Frequencies --   1208.2862              1233.1004              1282.6133
 Red. masses --      1.7162                 2.1736                 2.5309
 Frc consts  --      1.4763                 1.9473                 2.4532
 IR Inten    --     56.2951               157.3895               378.6302

                     49                     50                     51
                      A                      A                      A
 Frequencies --   1302.8571              1312.7690              1344.1695
 Red. masses --      2.4708                 4.4280                 4.1269
 Frc consts  --      2.4710                 4.4961                 4.3932
 IR Inten    --    206.2194               310.6948                44.0062

                     52                     53                     54
                      A                      A                      A
 Frequencies --   1366.2876              1372.6314              1399.1997
 Red. masses --      4.2102                 6.4765                 3.2721
 Frc consts  --      4.6306                 7.1895                 3.7743
 IR Inten    --     39.7694                52.7900                80.8865

                     55                     56                     57
                      A                      A                      A
 Frequencies --   1480.8410              1487.9315              1494.5127
 Red. masses --      2.5218                 2.6175                 2.9320
 Frc consts  --      3.2583                 3.4143                 3.8584
 IR Inten    --     75.8043                30.4406                66.2328

                     58                     59                     60
                      A                      A                      A
 Frequencies --   1517.1305              1609.6244              1611.8488
 Red. masses --      2.7827                 5.8587                 4.0695
 Frc consts  --      3.7737                 8.9433                 6.2292
 IR Inten    --     94.2128                16.5763                50.1669

                     61                     62                     63
                      A                      A                      A
 Frequencies --   1627.7191              1632.4389              1678.4737
 Red. masses --      6.3936                 6.0133                 7.7764
 Frc consts  --      9.9805                 9.4414                12.9080
 IR Inten    --    123.5190                 9.7115               324.6336

                     64                     65                     66
                      A                      A                      A
 Frequencies --   1723.3806              3149.8648              3175.1155
 Red. masses --     11.9970                 1.0892                 1.0882
 Frc consts  --     20.9936                 6.3672                 6.4639
 IR Inten    --    140.8993                11.7535                 9.3442

                     67                     68                     69
                      A                      A                      A
 Frequencies --   3183.0998              3196.6594              3209.4958
 Red. masses --      1.0921                 1.0935                 1.0932
 Frc consts  --      6.5197                 6.5833                 6.6347
 IR Inten    --      9.4226                 4.1336                 3.2080

                     70                     71                     72
                      A                      A                      A
 Frequencies --   3212.1643              3291.0285              3809.3137
 Red. masses --      1.0931                 1.0681                 1.0660
 Frc consts  --      6.6451                 6.8159                 9.1138
 IR Inten    --      3.1388               303.4623                80.6926

 - Thermochemistry -
 -------------------
 Temperature   298.150 Kelvin.  Pressure   1.00000 Atm.
 Atom     1 has atomic number  8 and mass  15.99491

 Molecular mass:   240.04226 amu.
 Principal axes and moments of inertia in atomic units:
                           1         2         3
     Eigenvalues --  2399.143944856.056057255.19983
           X            0.99629  -0.08537   0.01065
           Y            0.08594   0.98198  -0.16831
           Z            0.00391   0.16860   0.98568
 This molecule is an asymmetric top.
 Rotational symmetry number  1.
 Warning -- assumption of classical behavior for rotation
           may cause significant error
 Rotational temperatures (Kelvin)      0.03610     0.01784     0.01194
 Rotational constants (GHZ):           0.75224     0.37165     0.24875
 Zero-point vibrational energy     493165.1 (Joules/Mol)
                                  117.86928 (Kcal/Mol)
 Warning -- explicit consideration of  22 degrees of freedom as
           vibrations may cause significant error
 Vibrational temperatures:     49.37    85.69   148.26   229.36   282.43
          (Kelvin)            288.49   336.16   385.52   448.96   487.82
                              512.72   534.39   617.13   627.43   642.81
                              665.13   693.04   702.12   758.99   798.00
                              832.80   833.49   911.98   958.20  1022.00
                             1029.52  1094.69  1130.61  1137.74  1157.78
                             1180.76  1203.35  1216.95  1311.91  1331.57
                             1342.06  1422.18  1432.52  1441.92  1518.05
                             1561.48  1591.74  1683.34  1703.00  1716.65
                             1738.45  1774.16  1845.39  1874.52  1888.78
                             1933.96  1965.78  1974.91  2013.14  2130.60
                             2140.80  2150.27  2182.81  2315.89  2319.09
                             2341.92  2348.72  2414.95  2479.56  4531.95
                             4568.28  4579.77  4599.28  4617.75  4621.59
                             4735.06  5480.75

 Zero-point correction=                           0.187837 (Hartree/Particle)
 Thermal correction to Energy=                    0.201115
 Thermal correction to Enthalpy=                  0.202059
 Thermal correction to Gibbs Free Energy=         0.147659
 Sum of electronic and zero-point Energies=           -839.263846
 Sum of electronic and thermal Energies=              -839.250568
 Sum of electronic and thermal Enthalpies=            -839.249623
 Sum of electronic and thermal Free Energies=         -839.304023

                     E (Thermal)             CV                S
                      KCal/Mol        Cal/Mol-Kelvin    Cal/Mol-Kelvin
 Total                  126.202             53.763            114.495
 Electronic               0.000              0.000              0.000
 Translational            0.889              2.981             42.328
 Rotational               0.889              2.981             32.802
 Vibrational            124.424             47.801             39.364
 Vibration     1          0.594              1.983              5.563
 Vibration     2          0.597              1.974              4.472
 Vibration     3          0.605              1.947              3.396
 Vibration     4          0.621              1.892              2.557
 Vibration     5          0.636              1.845              2.167
 Vibration     6          0.638              1.839              2.128
 Vibration     7          0.654              1.789              1.851
 Vibration     8          0.673              1.732              1.609
 Vibration     9          0.700              1.651              1.351
 Vibration    10          0.719              1.597              1.217
 Vibration    11          0.732              1.562              1.138
 Vibration    12          0.743              1.531              1.074
 Vibration    13          0.790              1.407              0.862
 Vibration    14          0.797              1.392              0.839
 Vibration    15          0.806              1.368              0.806
 Vibration    16          0.820              1.334              0.759
 Vibration    17          0.838              1.291              0.706
 Vibration    18          0.844              1.277              0.689
 Vibration    19          0.882              1.189              0.593
 Vibration    20          0.910              1.130              0.535
 Vibration    21          0.935              1.077              0.488
 Vibration    22          0.936              1.076              0.487

 Optimization completed.
    -- Stationary point found.
 Normal termination of Gaussian 16 at Thu Dec 21 20:53:32 2023.
