 Gaussian 16, Revision A.03,
 Gaussian 16:  ES64L-G16RevA.03 25-Dec-2016

 ----------------------------------------------------------------
 #P UB3LYP/6-311++G(d,p) SCRF=(PCM,Solvent=n,n-DiMethylFormamide)
 ----------------------------------------------------------------

 ------------------
 Quinone PCM in DMF
 ------------------
 Symbolic Z-matrix:
 Charge =  0 Multiplicity = 1

                         Standard orientation:
 ---------------------------------------------------------------------
 Center     Atomic      Atomic             Coordinates (Angstroms)
 Number     Number       Type             X           Y           Z
 ---------------------------------------------------------------------
      1          6           0       11.673944    1.431807    1.082527
      2          6           0       12.201254    2.449652    0.293786
      3          6           0       11.572467    2.802896   -0.901576
      4          6           0       10.515184    0.767980    0.672564
      5          6           0        9.880428    1.120942   -0.529592
      6          6           0       10.416723    2.141435   -1.312861
      7          6           0        9.944012   -0.312587    1.496743
      8          6           0        8.702864   -0.985351    1.016037
      9          6           0        8.078033   -0.669299   -0.144969
     10          6           0        8.633829    0.414099   -0.982733
     11          8           0       10.426097   -0.695052    2.557092
     12          8           0        8.095169    0.735088   -2.033005
     13          8           0        8.253187   -1.948706    1.836666
     14          6           0        6.821301   -1.357038   -0.598924
     15          6           0        5.541014   -0.624682   -0.142749
     16          6           0        4.263570   -1.322302   -0.620997
     17          6           0        2.980812   -0.611415   -0.175171
     18          6           0        1.699583   -1.302636   -0.655334
     19          6           0        0.416041   -0.591935   -0.211368
     20          6           0       -0.864562   -1.279363   -0.697810
     21          6           0       -2.148019   -0.568174   -0.253527
     22          6           0       -3.422919   -1.260155   -0.749136
     23          6           0       -4.686480   -0.544310   -0.297970
     24          1           0       12.143984    1.139598    2.013578
     25          1           0       13.099912    2.967520    0.608295
     26          1           0       11.984862    3.596218   -1.514675
     27          1           0        9.916746    2.402629   -2.237252
     28          1           0        8.883567   -1.985134    2.581130
     29          1           0        6.811194   -2.378359   -0.209781
     30          1           0        6.829572   -1.407915   -1.690536
     31          1           0        5.562679    0.401658   -0.524117
     32          1           0        5.535893   -0.558080    0.951135
     33          1           0        4.253474   -2.355172   -0.249652
     34          1           0        4.278447   -1.390713   -1.716112
     35          1           0        2.994012    0.422231   -0.543984
     36          1           0        2.966639   -0.543466    0.920322
     37          1           0        1.686366   -2.336696   -0.287297
     38          1           0        1.714702   -1.370597   -1.750752
     39          1           0        0.431662    0.443324   -0.576066
     40          1           0        0.398668   -0.527501    0.884366
     41          1           0       -0.881277   -2.314582   -0.333947
     42          1           0       -0.847996   -1.342660   -1.793269
     43          1           0       -2.128800    0.467857   -0.615500
     44          1           0       -2.165227   -0.508388    0.842345
     45          1           0       -3.455800   -2.292510   -0.384910
     46          1           0       -3.420937   -1.311706   -1.843122
     47          1           0       -4.702010    0.487208   -0.673783
     48          1           0       -4.739908   -0.507585    0.798059
     49          8           0       -5.807944   -1.262591   -0.812506
     50          6           0       -7.067755   -0.808836   -0.538275
     51          6           0       -7.357286    0.325437    0.225317
     52          6           0       -8.120623   -1.556456   -1.074877
     53          6           0       -8.686599    0.693269    0.441989
     54          1           0       -6.566131    0.925978    0.653996
     55          6           0       -9.435410   -1.170488   -0.849021
     56          1           0       -7.887029   -2.434769   -1.665061
     57          6           0       -9.752680   -0.038392   -0.086077
     58          1           0       -8.882020    1.577475    1.040052
     59          1           0      -10.237533   -1.764286   -1.276716
     60          6           0      -11.197561    0.367255    0.142304
     61          6           0      -11.615372    0.274115    1.637826
     62          1           0      -10.772662    0.567446    2.270970
     63          1           0      -11.823398   -0.774148    1.876594
     64          6           0      -12.843227    1.151258    1.975854
     65          1           0      -12.513031    2.148273    2.290846
     66          1           0      -13.381055    0.726713    2.828894
     67          6           0      -13.773889    1.299209    0.766900
     68          1           0      -14.684569    1.838643    1.043637
     69          1           0      -14.097413    0.302914    0.443285
     70          6           0      -13.058194    2.026014   -0.395984
     71          1           0      -13.239966    3.103631   -0.327052
     72          1           0      -13.492143    1.703230   -1.348044
     73          6           0      -11.532648    1.770067   -0.405874
     74          1           0      -11.137356    1.881769   -1.419231
     75          1           0      -11.022148    2.523066    0.205345
     76          1           0      -11.813042   -0.345126   -0.420085
 ---------------------------------------------------------------------

 SCF Done:  E(UB3LYP) =  -1544.85088642     A.U. after   15 cycles

 The electronic state is 1-A.
 Alpha  occ. eigenvalues --  -19.18061 -19.15569 -19.15132 -19.13079 -10.29518
 Alpha  occ. eigenvalues --  -10.28228 -10.26893 -10.23705 -10.22507 -10.21287
 Alpha  occ. eigenvalues --  -10.21158 -10.20550 -10.20353 -10.20183 -10.20015
 Alpha  occ. eigenvalues --  -10.19971 -10.17807 -10.17693 -10.17655 -10.17616
 Alpha  occ. eigenvalues --  -10.17600 -10.17445 -10.17337 -10.16910 -10.16910
 Alpha  occ. eigenvalues --  -10.16672 -10.16304 -10.16245 -10.16201 -10.16182
 Alpha  occ. eigenvalues --  -10.16123 -10.16118 -10.16085 -10.16073 -10.16049
 Alpha  occ. eigenvalues --  -10.16029  -1.11061  -1.07083  -1.06911  -1.06432
 Alpha  occ. eigenvalues --   -0.89482  -0.86489  -0.84606  -0.82947  -0.81620
 Alpha  occ. eigenvalues --   -0.80635  -0.79175  -0.78246  -0.77625  -0.76352
 Alpha  occ. eigenvalues --   -0.75417  -0.74215  -0.73581  -0.71981  -0.70450
 Alpha  occ. eigenvalues --   -0.68889  -0.66647  -0.65488  -0.63633  -0.62899
 Alpha  occ. eigenvalues --   -0.61657  -0.61047  -0.60732  -0.59937  -0.58652
 Alpha  occ. eigenvalues --   -0.58232  -0.57716  -0.57606  -0.57492  -0.54460
 Alpha  occ. eigenvalues --   -0.54031  -0.52638  -0.52090  -0.50002  -0.49800
 Alpha  occ. eigenvalues --   -0.49663  -0.48424  -0.48408  -0.47998  -0.47361
 Alpha  occ. eigenvalues --   -0.47096  -0.46925  -0.46549  -0.45531  -0.45213
 Alpha  occ. eigenvalues --   -0.45131  -0.43909  -0.43599  -0.43501  -0.43212
 Alpha  occ. eigenvalues --   -0.43034  -0.42687  -0.42311  -0.41526  -0.41396
 Alpha  occ. eigenvalues --   -0.41005  -0.40544  -0.40348  -0.39456  -0.39235
 Alpha  occ. eigenvalues --   -0.38566  -0.38117  -0.37886  -0.37783  -0.37405
 Alpha  occ. eigenvalues --   -0.37207  -0.36921  -0.36322  -0.36088  -0.35694
 Alpha  occ. eigenvalues --   -0.35428  -0.35176  -0.34741  -0.34631  -0.33580
 Alpha  occ. eigenvalues --   -0.33254  -0.33050  -0.32585  -0.32437  -0.32198
 Alpha  occ. eigenvalues --   -0.32038  -0.30973  -0.30512  -0.30382  -0.29931
 Alpha  occ. eigenvalues --   -0.29693  -0.29169  -0.28233  -0.28047  -0.26169
 Alpha  occ. eigenvalues --   -0.25842  -0.22401
 Alpha virt. eigenvalues --   -0.12737  -0.05820  -0.02778  -0.02011  -0.00972
 Alpha virt. eigenvalues --   -0.00779  -0.00352  -0.00280   0.00142   0.00285
 Alpha virt. eigenvalues --    0.00460   0.00691   0.00928   0.01183   0.01415

  Beta  occ. eigenvalues --  -19.18061 -19.15569 -19.15132 -19.13079 -10.29518
  Beta  occ. eigenvalues --  -10.28228 -10.26893 -10.23705 -10.22507 -10.21287
  Beta  occ. eigenvalues --  -10.21158 -10.20550 -10.20353 -10.20183 -10.20015
  Beta  occ. eigenvalues --  -10.19971 -10.17807 -10.17693 -10.17655 -10.17616
  Beta  occ. eigenvalues --  -10.17600 -10.17445 -10.17337 -10.16910 -10.16910
  Beta  occ. eigenvalues --  -10.16672 -10.16304 -10.16245 -10.16201 -10.16182
  Beta  occ. eigenvalues --  -10.16123 -10.16118 -10.16085 -10.16073 -10.16049
  Beta  occ. eigenvalues --  -10.16029  -1.11061  -1.07083  -1.06911  -1.06432
  Beta  occ. eigenvalues --   -0.89482  -0.86489  -0.84606  -0.82947  -0.81620
  Beta  occ. eigenvalues --   -0.80635  -0.79175  -0.78246  -0.77625  -0.76352
  Beta  occ. eigenvalues --   -0.75417  -0.74215  -0.73581  -0.71981  -0.70450
  Beta  occ. eigenvalues --   -0.68889  -0.66647  -0.65488  -0.63633  -0.62899
  Beta  occ. eigenvalues --   -0.61657  -0.61047  -0.60732  -0.59937  -0.58652
  Beta  occ. eigenvalues --   -0.58232  -0.57716  -0.57606  -0.57492  -0.54460
  Beta  occ. eigenvalues --   -0.54031  -0.52638  -0.52090  -0.50002  -0.49800
  Beta  occ. eigenvalues --   -0.49663  -0.48424  -0.48408  -0.47998  -0.47361
  Beta  occ. eigenvalues --   -0.47096  -0.46925  -0.46549  -0.45531  -0.45213
  Beta  occ. eigenvalues --   -0.45131  -0.43909  -0.43599  -0.43501  -0.43212
  Beta  occ. eigenvalues --   -0.43034  -0.42687  -0.42311  -0.41526  -0.41396
  Beta  occ. eigenvalues --   -0.41005  -0.40544  -0.40348  -0.39456  -0.39235
  Beta  occ. eigenvalues --   -0.38566  -0.38117  -0.37886  -0.37783  -0.37405
  Beta  occ. eigenvalues --   -0.37207  -0.36921  -0.36322  -0.36088  -0.35694
  Beta  occ. eigenvalues --   -0.35428  -0.35176  -0.34741  -0.34631  -0.33580
  Beta  occ. eigenvalues --   -0.33254  -0.33050  -0.32585  -0.32437  -0.32198
  Beta  occ. eigenvalues --   -0.32038  -0.30973  -0.30512  -0.30382  -0.29931
  Beta  occ. eigenvalues --   -0.29693  -0.29169  -0.28233  -0.28047  -0.26169
  Beta  occ. eigenvalues --   -0.25842  -0.22401
  Beta virt. eigenvalues --   -0.12737  -0.05820  -0.02778  -0.02011  -0.00972
  Beta virt. eigenvalues --   -0.00779  -0.00352  -0.00280   0.00142   0.00285
  Beta virt. eigenvalues --    0.00460   0.00691   0.00928   0.01183   0.01415

 Mulliken charges and spin densities:
               1          2
     1  C    0.188099   0.000000
     2  C   -0.389046   0.000000
     3  C   -0.375658  -0.000000
     4  C    0.321254   0.000000
     5  C    0.020079  -0.000000
     6  C    0.194366  -0.000000
     7  C   -0.717679  -0.000000
     8  C   -0.510636   0.000000
     9  C    1.764951   0.000000
    10  C   -0.798598  -0.000000
    11  O   -0.313290  -0.000000
    12  O   -0.273486  -0.000000
    13  O   -0.221350  -0.000000
    14  C   -0.286720  -0.000000
    15  C   -0.625922  -0.000000
    16  C   -0.193664   0.000000
    17  C   -0.170302  -0.000000
    18  C   -0.242768   0.000000
    19  C   -0.400448   0.000000
    20  C   -0.237657   0.000000
    21  C   -0.158010  -0.000000
    22  C   -0.309752  -0.000000
    23  C   -0.676921   0.000000
    24  H    0.191926   0.000000
    25  H    0.211011   0.000000
    26  H    0.208093  -0.000000
    27  H    0.188900   0.000000
    28  H    0.308219  -0.000000
    29  H    0.231996   0.000000
    30  H    0.218298   0.000000
    31  H    0.177234  -0.000000
    32  H    0.176209   0.000000
    33  H    0.116534  -0.000000
    34  H    0.119993  -0.000000
    35  H    0.127418   0.000000
    36  H    0.127321  -0.000000
    37  H    0.134996  -0.000000
    38  H    0.134999  -0.000000
    39  H    0.132250  -0.000000
    40  H    0.132450  -0.000000
    41  H    0.127911   0.000000
    42  H    0.127369   0.000000
    43  H    0.121016  -0.000000
    44  H    0.122529  -0.000000
    45  H    0.164920  -0.000000
    46  H    0.166466  -0.000000
    47  H    0.195055  -0.000000
    48  H    0.193729  -0.000000
    49  O   -0.102504   0.000000
    50  C    0.191535  -0.000000
    51  C   -0.132136  -0.000000
    52  C   -0.312257  -0.000000
    53  C   -0.405526  -0.000000
    54  H    0.177908   0.000000
    55  C   -0.250948   0.000000
    56  H    0.191771   0.000000
    57  C    0.649549   0.000000
    58  H    0.212307   0.000000
    59  H    0.180530   0.000000
    60  C    0.384432  -0.000000
    61  C   -0.556634   0.000000
    62  H    0.152246   0.000000
    63  H    0.163659   0.000000
    64  C   -0.448670  -0.000000
    65  H    0.131273   0.000000
    66  H    0.169597   0.000000
    67  C   -0.272790   0.000000
    68  H    0.178164  -0.000000
    69  H    0.135075   0.000000
    70  C   -0.499281  -0.000000
    71  H    0.156151   0.000000
    72  H    0.145312   0.000000
    73  C   -0.486307   0.000000
    74  H    0.174168   0.000000
    75  H    0.141451   0.000000
    76  H    0.188241  -0.000000
 Sum of Mulliken charges =  -0.00000   0.00000

 Dipole moment (field-independent basis, Debye):
    X=              3.1195    Y=              2.9901    Z=              1.7058  Tot=              4.6456
 Quadrupole moment (field-independent basis, Debye-Ang):
   XX=           -168.2686   YY=           -213.3693   ZZ=           -228.6028
   XY=             16.1710   XZ=             -3.4516   YZ=              1.9350

 Normal termination of Gaussian 16 at Fri Mar  8 02:11:20 2024.
