 Q-Chem 5.4, Q-Chem, Inc., Pleasanton, CA (2021)
 Q-Chem 5.4.0 for Intel X86 EM64T Linux

User input:
--------------------------------------------------------------
$molecule
-1 2
C                 -3.03768400    1.85362700    0.33486100
C                 -3.98389800    1.53992200   -0.70254700
C                 -3.96274000    0.33386300   -1.33242100
C                 -3.01122600   -0.71092000   -1.01705400
C                 -2.02567400   -0.42277200    0.03855700
C                 -2.05029900    0.82077700    0.66989400
O                 -3.05675800    2.96869800    0.93397100
O                 -3.07641500   -1.80090100   -1.65855500
C                 -1.10721200    1.27398500    1.76263400
C                 -0.99585100   -1.50993600    0.48467700
C                  0.45367300   -1.00833800    0.30831600
C                  0.79923000   -0.26816400   -0.83156700
C                  1.48609100   -1.35236200    1.19042600
C                  2.80538500   -0.96149100    0.95534700
C                  2.11391600    0.12039100   -1.07364000
C                  3.12866800   -0.22116900   -0.17885000
H                 -4.71137300    2.30709100   -0.95330900
H                 -4.67327200    0.08680100   -2.11621500
H                 -1.61779500    1.27730000    2.73422300
H                 -0.82756200    2.31413600    1.57996400
H                 -0.20510200    0.67585800    1.84765000
H                  0.01714600    0.01615300   -1.52581400
H                  1.26465300   -1.92333300    2.08418200
H                  3.57971700   -1.23466100    1.66594300
H                  2.34554600    0.69896600   -1.96243600
C                 -1.32646600   -1.91568900    1.94552300
H                 -2.37082000   -2.23420400    1.98502100
H                 -0.71428600   -2.76225500    2.27496500
H                 -1.19948500   -1.09987200    2.65641900
C                 -1.01718200   -2.84539200   -0.31953600
H                 -1.97782100   -3.34939400   -0.23081300
H                 -0.83029400   -2.69298300   -1.38015000
H                 -0.22843300   -3.48923200    0.09004100
H                  4.15260800    0.08784700   -0.36210900
$end

$rem
BASIS  =  6-311++G(d,p)
GUI  =  2
JOB_TYPE  =  SP
METHOD  =  B3LYP
SCF_CONVERGENCE  = 8
SOLVENT_METHOD = sm12
$end

$smx
solvent dimethylformamide
charges CM5
$end

--------------------------------------------------------------

             Standard Nuclear Orientation (Angstroms)
    I     Atom           X                Y                Z
 ----------------------------------------------------------------
    1      C      -3.0376840000     1.8536270000     0.3348610000
    2      C      -3.9838980000     1.5399220000    -0.7025470000
    3      C      -3.9627400000     0.3338630000    -1.3324210000
    4      C      -3.0112260000    -0.7109200000    -1.0170540000
    5      C      -2.0256740000    -0.4227720000     0.0385570000
    6      C      -2.0502990000     0.8207770000     0.6698940000
    7      O      -3.0567580000     2.9686980000     0.9339710000
    8      O      -3.0764150000    -1.8009010000    -1.6585550000
    9      C      -1.1072120000     1.2739850000     1.7626340000
   10      C      -0.9958510000    -1.5099360000     0.4846770000
   11      C       0.4536730000    -1.0083380000     0.3083160000
   12      C       0.7992300000    -0.2681640000    -0.8315670000
   13      C       1.4860910000    -1.3523620000     1.1904260000
   14      C       2.8053850000    -0.9614910000     0.9553470000
   15      C       2.1139160000     0.1203910000    -1.0736400000
   16      C       3.1286680000    -0.2211690000    -0.1788500000
   17      H      -4.7113730000     2.3070910000    -0.9533090000
   18      H      -4.6732720000     0.0868010000    -2.1162150000
   19      H      -1.6177950000     1.2773000000     2.7342230000
   20      H      -0.8275620000     2.3141360000     1.5799640000
   21      H      -0.2051020000     0.6758580000     1.8476500000
   22      H       0.0171460000     0.0161530000    -1.5258140000
   23      H       1.2646530000    -1.9233330000     2.0841820000
   24      H       3.5797170000    -1.2346610000     1.6659430000
   25      H       2.3455460000     0.6989660000    -1.9624360000
   26      C      -1.3264660000    -1.9156890000     1.9455230000
   27      H      -2.3708200000    -2.2342040000     1.9850210000
   28      H      -0.7142860000    -2.7622550000     2.2749650000
   29      H      -1.1994850000    -1.0998720000     2.6564190000
   30      C      -1.0171820000    -2.8453920000    -0.3195360000
   31      H      -1.9778210000    -3.3493940000    -0.2308130000
   32      H      -0.8302940000    -2.6929830000    -1.3801500000
   33      H      -0.2284330000    -3.4892320000     0.0900410000
   34      H       4.1526080000     0.0878470000    -0.3621090000
 ----------------------------------------------------------------

   16    -770.0246883265      9.15e-09  Convergence criterion met
 Total energy in the final basis set =     -770.1093709660

                    Orbital Energies (a.u.)
 --------------------------------------------------------------

 Alpha MOs
 -- Occupied --
-19.0715 -19.0694 -10.2193 -10.2151 -10.2030 -10.1916 -10.1840 -10.1837
-10.1817 -10.1805 -10.1789 -10.1782 -10.1764 -10.1654 -10.1649 -10.1641
-10.1611 -10.1565  -0.9944  -0.9920  -0.8723  -0.8339  -0.8064  -0.7635
 -0.7554  -0.7412  -0.7016  -0.6859  -0.6625  -0.6296  -0.6132  -0.5948
 -0.5634  -0.5463  -0.5191  -0.4870  -0.4723  -0.4638  -0.4578  -0.4519
 -0.4423  -0.4313  -0.4279  -0.4183  -0.4073  -0.3953  -0.3940  -0.3909
 -0.3871  -0.3816  -0.3779  -0.3719  -0.3622  -0.3567  -0.3553  -0.3411
 -0.3363  -0.3293  -0.2773  -0.2656  -0.2577  -0.2454  -0.2362  -0.2284
 -0.1591

 Beta MOs
 -- Occupied --
-19.0644 -19.0619 -10.2182 -10.2139 -10.2031 -10.1915 -10.1840 -10.1838
-10.1817 -10.1805 -10.1789 -10.1773 -10.1752 -10.1654 -10.1637 -10.1630
-10.1612 -10.1565  -0.9818  -0.9791  -0.8721  -0.8309  -0.8030  -0.7613
 -0.7552  -0.7409  -0.6983  -0.6854  -0.6544  -0.6287  -0.6131  -0.5926
 -0.5605  -0.5440  -0.5185  -0.4855  -0.4710  -0.4624  -0.4555  -0.4510
 -0.4413  -0.4300  -0.4239  -0.4156  -0.4052  -0.3935  -0.3915  -0.3864
 -0.3818  -0.3774  -0.3712  -0.3695  -0.3556  -0.3540  -0.3404  -0.3380
 -0.3329  -0.3282  -0.2655  -0.2560  -0.2479  -0.2343  -0.2294  -0.2218

          Ground-State Mulliken Net Atomic Charges

     Atom                 Charge (a.u.)    Spin (a.u.)
  --------------------------------------------------------
      1 C                    -1.144450       0.077771
      2 C                    -0.188457       0.075453
      3 C                    -0.523612       0.093427
      4 C                    -1.301571       0.055336
      5 C                    -0.364383       0.084336
      6 C                    -0.202841       0.078602
      7 O                    -0.365607       0.257155
      8 O                    -0.288186       0.272899
      9 C                    -0.185139       0.004503
     10 C                    -0.272360      -0.011688
     11 C                     0.776590      -0.002803
     12 C                    -1.490091       0.002360
     13 C                     0.108736       0.001844
     14 C                     0.719397       0.001088
     15 C                     0.095153      -0.002430
     16 C                     0.686094      -0.000980
     17 H                     0.196678      -0.007224
     18 H                     0.206024      -0.009759
     19 H                     0.189964       0.008529
     20 H                     0.118695       0.001847
     21 H                     0.104004       0.000934
     22 H                     0.072196       0.000670
     23 H                     0.270430      -0.000319
     24 H                     0.355632      -0.000027
     25 H                     0.290841       0.000044
     26 C                     0.050005       0.010138
     27 H                     0.090081       0.000517
     28 H                     0.317997       0.001018
     29 H                     0.248872      -0.000999
     30 C                    -0.270037       0.010270
     31 H                     0.069410      -0.001061
     32 H                     0.051241      -0.000645
     33 H                     0.232486      -0.000829
     34 H                     0.346208       0.000023
  --------------------------------------------------------
  Sum of atomic charges =    -1.000000

                    Cartesian Multipole Moments
 -----------------------------------------------------------------
    Charge (ESU x 10^10)
                -4.8032
    Dipole Moment (Debye)
         X      13.6832      Y      -2.7187      Z       1.6059
       Tot      14.0428
    Quadrupole Moments (Debye-Ang)
        XX    -154.7966     XY      10.9776     YY    -144.5891
        XZ      -4.1898     YZ     -16.8834     ZZ    -119.8118

 Total job time:  1407.03s(wall), 10971.94s(cpu)
        *  Thank you very much for using Q-Chem.  Have a nice day.  *
