 Gaussian 16, Revision A.03,
 Gaussian 16:  ES64L-G16RevA.03 25-Dec-2016

 --------------------------------------
 #P UB3LYP/6-311++G(d,p) nosym opt freq
 --------------------------------------

 -------
 Reduced
 -------
 Symbolic Z-matrix:
 Charge = -2 Multiplicity = 1

 SCF Done:  E(UB3LYP) =  -846.180554001     A.U. after   51 cycles
 SCF Done:  E(UB3LYP) =  -846.212838976     A.U. after   32 cycles
 SCF Done:  E(UB3LYP) =  -846.221839423     A.U. after   30 cycles
 SCF Done:  E(UB3LYP) =  -846.224257445     A.U. after   34 cycles
 SCF Done:  E(UB3LYP) =  -846.226407721     A.U. after   34 cycles
 SCF Done:  E(UB3LYP) =  -846.227551736     A.U. after   35 cycles
 SCF Done:  E(UB3LYP) =  -846.227739579     A.U. after   28 cycles
 SCF Done:  E(UB3LYP) =  -846.227801321     A.U. after   31 cycles
 SCF Done:  E(UB3LYP) =  -846.227852256     A.U. after   31 cycles
 SCF Done:  E(UB3LYP) =  -846.227860151     A.U. after   38 cycles
 SCF Done:  E(UB3LYP) =  -846.227861270     A.U. after   32 cycles
 SCF Done:  E(UB3LYP) =  -846.227861251     A.U. after   22 cycles
 Optimization completed.
    -- Stationary point found.
 Normal termination of Gaussian 16 at Thu Dec 21 11:08:27 2023.

 ----------------------------------------------------------------------
 #P Geom=AllCheck Guess=TCheck SCRF=Check GenChk UB3LYP/6-311++G(d,p) F
 req
 ----------------------------------------------------------------------

 Structure from the checkpoint file:  "126-an.chk"
 -------
 Reduced
 -------
 Charge = -2 Multiplicity = 1

                          Input orientation:
 ---------------------------------------------------------------------
 Center     Atomic      Atomic             Coordinates (Angstroms)
 Number     Number       Type             X           Y           Z
 ---------------------------------------------------------------------
      1          6           0       -3.931051    0.942463    0.950771
      2          6           0       -3.275459   -0.077498   -0.011570
      3          6           0       -3.478590   -1.486164    0.576300
      4          6           0       -4.015930   -0.026564   -1.371790
      5          6           0       -1.788022    0.269026   -0.208628
      6          6           0       -1.429807    1.536218   -0.767224
      7          6           0       -0.109858    1.884498   -0.950490
      8          6           0        0.956588    1.021810   -0.600300
      9          6           0        2.326259    1.447409   -0.822600
     10          8           0        2.623278    2.581899   -1.331661
     11          6           0        3.334382    0.484848   -0.416039
     12          6           0        4.704722    0.802886   -0.585573
     13          6           0        5.711766   -0.067336   -0.220271
     14          6           0        5.378886   -1.328848    0.345795
     15          6           0        4.053045   -1.667599    0.525174
     16          6           0        2.995624   -0.796793    0.161912
     17          6           0        1.623143   -1.217861    0.382690
     18          8           0        1.327185   -2.351132    0.894564
     19          6           0        0.616477   -0.253745   -0.024975
     20          6           0       -0.755576   -0.581329    0.140946
     21          1           0       -4.999570    0.734942    1.080328
     22          1           0       -3.449961    0.901956    1.933374
     23          1           0       -3.830756    1.965221    0.576740
     24          1           0       -3.044370   -2.253620   -0.070619
     25          1           0       -4.549071   -1.697174    0.681977
     26          1           0       -3.013790   -1.581148    1.561688
     27          1           0       -3.948862    0.964247   -1.829657
     28          1           0       -5.080368   -0.269562   -1.250314
     29          1           0       -3.577247   -0.745606   -2.070778
     30          1           0       -2.205251    2.239208   -1.060277
     31          1           0        0.159887    2.846438   -1.375243
     32          1           0        4.925690    1.772662   -1.020585
     33          1           0        6.754783    0.208145   -0.364467
     34          1           0        6.166482   -2.021912    0.635385
     35          1           0        3.766667   -2.622339    0.955135
     36          1           0       -0.941322   -1.557648    0.571770
 ---------------------------------------------------------------------

 SCF Done:  E(UB3LYP) =  -846.227861250     A.U. after   19 cycles

 Alpha  occ. eigenvalues --  -18.80785 -18.80703  -9.99506  -9.97218  -9.97130
 Alpha  occ. eigenvalues --   -9.96812  -9.96527  -9.96449  -9.95193  -9.94940
 Alpha  occ. eigenvalues --   -9.94895  -9.94289  -9.94123  -9.94093  -9.93781
 Alpha  occ. eigenvalues --   -9.93470  -9.92756  -9.92718  -9.92526  -9.92433
 Alpha  occ. eigenvalues --   -0.72714  -0.72353  -0.63988  -0.61819  -0.60070
 Alpha  occ. eigenvalues --   -0.54153  -0.51634  -0.51478  -0.50034  -0.49877
 Alpha  occ. eigenvalues --   -0.49319  -0.42661  -0.40811  -0.38755  -0.35800
 Alpha  occ. eigenvalues --   -0.34389  -0.31703  -0.29832  -0.29142  -0.25825
 Alpha  occ. eigenvalues --   -0.25137  -0.25044  -0.22977  -0.22275  -0.22125
 Alpha  occ. eigenvalues --   -0.20747  -0.20002  -0.19695  -0.19149  -0.17987
 Alpha  occ. eigenvalues --   -0.17454  -0.16609  -0.16385  -0.16058  -0.14690
 Alpha  occ. eigenvalues --   -0.14574  -0.13971  -0.13366  -0.12606  -0.10847
 Alpha  occ. eigenvalues --   -0.10785  -0.10404  -0.08847  -0.08642  -0.02491
 Alpha  occ. eigenvalues --   -0.01326  -0.00888  -0.00358   0.01524   0.02217
 Alpha  occ. eigenvalues --    0.11620
 Alpha virt. eigenvalues --    0.12848   0.15042   0.15490   0.15597   0.16723
 Alpha virt. eigenvalues --    0.16871   0.18194   0.18364   0.19249   0.19402
 Alpha virt. eigenvalues --    0.19606   0.19716   0.20919   0.20953   0.21058

  Beta  occ. eigenvalues --  -18.80785 -18.80703  -9.99506  -9.97218  -9.97130
  Beta  occ. eigenvalues --   -9.96812  -9.96527  -9.96449  -9.95193  -9.94940
  Beta  occ. eigenvalues --   -9.94895  -9.94289  -9.94123  -9.94093  -9.93781
  Beta  occ. eigenvalues --   -9.93470  -9.92756  -9.92718  -9.92526  -9.92433
  Beta  occ. eigenvalues --   -0.72714  -0.72353  -0.63988  -0.61819  -0.60070
  Beta  occ. eigenvalues --   -0.54153  -0.51634  -0.51478  -0.50034  -0.49877
  Beta  occ. eigenvalues --   -0.49319  -0.42661  -0.40811  -0.38755  -0.35800
  Beta  occ. eigenvalues --   -0.34389  -0.31703  -0.29832  -0.29142  -0.25825
  Beta  occ. eigenvalues --   -0.25137  -0.25044  -0.22977  -0.22275  -0.22125
  Beta  occ. eigenvalues --   -0.20747  -0.20002  -0.19695  -0.19149  -0.17987
  Beta  occ. eigenvalues --   -0.17454  -0.16609  -0.16385  -0.16058  -0.14690
  Beta  occ. eigenvalues --   -0.14574  -0.13971  -0.13366  -0.12606  -0.10847
  Beta  occ. eigenvalues --   -0.10785  -0.10404  -0.08847  -0.08642  -0.02491
  Beta  occ. eigenvalues --   -0.01326  -0.00888  -0.00358   0.01524   0.02217
  Beta  occ. eigenvalues --    0.11620
  Beta virt. eigenvalues --    0.12848   0.15042   0.15490   0.15597   0.16723
  Beta virt. eigenvalues --    0.16871   0.18194   0.18364   0.19249   0.19402
  Beta virt. eigenvalues --    0.19606   0.19716   0.20919   0.20953   0.21058

 Mulliken charges and spin densities:
               1          2
     1  C    0.217362   0.000000
     2  C   -1.974809   0.000001
     3  C   -0.517946   0.000000
     4  C    0.506719  -0.000000
     5  C    1.540132  -0.000000
     6  C   -0.818902   0.000000
     7  C   -0.122315   0.000000
     8  C    0.655067  -0.000000
     9  C   -1.100519  -0.000000
    10  O   -0.465073   0.000000
    11  C    0.385867  -0.000000
    12  C    0.014749  -0.000000
    13  C   -0.424016  -0.000000
    14  C   -0.482122  -0.000000
    15  C    0.042670   0.000000
    16  C    0.519285  -0.000000
    17  C   -0.752054   0.000000
    18  O   -0.465739   0.000000
    19  C    0.855112  -0.000000
    20  C    0.539150  -0.000000
    21  H   -0.451913   0.000000
    22  H    0.157639  -0.000000
    23  H   -0.037230  -0.000000
    24  H    0.029744   0.000000
    25  H   -0.326110  -0.000000
    26  H    0.108857   0.000000
    27  H    0.002026  -0.000000
    28  H   -0.704925   0.000000
    29  H    0.150833  -0.000000
    30  H    0.142206  -0.000000
    31  H    0.132777   0.000000
    32  H    0.134389   0.000000
    33  H    0.084151   0.000000
    34  H    0.084638  -0.000000
    35  H    0.135949   0.000000
    36  H    0.204354  -0.000000
 Sum of Mulliken charges =  -2.00000   0.00000

 Dipole moment (field-independent basis, Debye):
    X=             -4.2685    Y=             -0.1982    Z=              1.9760  Tot=              4.7079
 Quadrupole moment (field-independent basis, Debye-Ang):
   XX=           -278.4096   YY=           -174.5496   ZZ=           -148.3316
   XY=             -8.3875   XZ=              3.2712   YZ=             13.8943

  Exact polarizability:2431.538  21.746 796.580 -77.340 -29.935 704.346
 Approx polarizability:******** 543.854 842.837-138.659-106.576 611.458

                      1                      2                      3
                      A                      A                      A
 Frequencies --     36.2232                45.5996                83.0348
 Red. masses --      3.2790                 4.7974                 5.1304
 Frc consts  --      0.0025                 0.0059                 0.0208
 IR Inten    --      0.1301                 0.5575                 2.2614

                      4                      5                      6
                      A                      A                      A
 Frequencies --    124.3442               129.7097               166.6920
 Red. masses --      4.4259                 4.1524                 5.1230
 Frc consts  --      0.0403                 0.0412                 0.0839
 IR Inten    --      1.3290                 0.0286                 1.1642

                      7                      8                      9
                      A                      A                      A
 Frequencies --    183.5976               227.8913               237.0829
 Red. masses --      4.4060                 1.2516                 4.2726
 Frc consts  --      0.0875                 0.0383                 0.1415
 IR Inten    --      3.5993                 0.4643                 6.4410

                     10                     11                     12
                      A                      A                      A
 Frequencies --    245.4238               249.1041               275.5321
 Red. masses --      2.6715                 2.7844                 1.3723
 Frc consts  --      0.0948                 0.1018                 0.0614
 IR Inten    --      5.6277                 3.5496                 3.7974

                     13                     14                     15
                      A                      A                      A
 Frequencies --    297.8519               313.8271               347.4552
 Red. masses --      3.1187                 1.0548                 3.0089
 Frc consts  --      0.1630                 0.0612                 0.2140
 IR Inten    --      2.3412                 9.8297                 3.9235

                     16                     17                     18
                      A                      A                      A
 Frequencies --    353.6575               368.9650               396.6740
 Red. masses --      2.7511                10.7364                 3.5161
 Frc consts  --      0.2027                 0.8612                 0.3260
 IR Inten    --     11.3240                12.8129                 1.2777

                     19                     20                     21
                      A                      A                      A
 Frequencies --    407.5697               421.2812               440.6229
 Red. masses --      5.0287                 3.6651                 4.3523
 Frc consts  --      0.4922                 0.3833                 0.4979
 IR Inten    --    181.8715                 0.4870                27.2129

                     22                     23                     24
                      A                      A                      A
 Frequencies --    449.5566               470.8386               480.2652
 Red. masses --      4.0216                 3.7853                 3.0050
 Frc consts  --      0.4789                 0.4944                 0.4084
 IR Inten    --      2.9098               106.6277                 8.2297

                     25                     26                     27
                      A                      A                      A
 Frequencies --    490.3243               557.0383               561.2634
 Red. masses --      7.1918                 4.3207                 3.6366
 Frc consts  --      1.0187                 0.7899                 0.6750
 IR Inten    --    410.1136                 4.8927                19.8349

                     28                     29                     30
                      A                      A                      A
 Frequencies --    636.2368               655.1192               657.2394
 Red. masses --      6.9169                 5.8520                 3.2741
 Frc consts  --      1.6497                 1.4798                 0.8333
 IR Inten    --      2.9878                 6.9266                20.3554

                     31                     32                     33
                      A                      A                      A
 Frequencies --    693.8417               695.4266               707.8966
 Red. masses --      1.9870                 6.2450                 6.4226
 Frc consts  --      0.5636                 1.7794                 1.8963
 IR Inten    --     42.4411                 1.2144                 2.9921

                     34                     35                     36
                      A                      A                      A
 Frequencies --    731.9241               757.6710               785.2536
 Red. masses --      3.5645                 2.4577                 1.7490
 Frc consts  --      1.1251                 0.8313                 0.6354
 IR Inten    --      0.7269                11.6823                 0.4947

                     37                     38                     39
                      A                      A                      A
 Frequencies --    803.9735               807.8182               838.3189
 Red. masses --      1.5512                 3.6233                 3.6501
 Frc consts  --      0.5908                 1.3931                 1.5114
 IR Inten    --      2.3360                 6.6089                 0.5744

                     40                     41                     42
                      A                      A                      A
 Frequencies --    852.8934               913.0203               931.2601
 Red. masses --      3.7564                 1.8497                 1.7261
 Frc consts  --      1.6100                 0.9085                 0.8820
 IR Inten    --     19.1352                64.6719                27.3015

                     43                     44                     45
                      A                      A                      A
 Frequencies --    932.7315               947.1670               955.6393
 Red. masses --      6.5201                 1.3936                 1.1968
 Frc consts  --      3.3421                 0.7366                 0.6439
 IR Inten    --      4.7257                 0.8397                 5.0746

                     46                     47                     48
                      A                      A                      A
 Frequencies --    960.2893               964.6340               972.8597
 Red. masses --      1.2541                 1.3574                 3.9264
 Frc consts  --      0.6814                 0.7442                 2.1895
 IR Inten    --      0.0326                 1.8166               133.4557

                     49                     50                     51
                      A                      A                      A
 Frequencies --    977.8391              1015.9654              1038.8276
 Red. masses --      1.3461                 2.0500                 1.4649
 Frc consts  --      0.7583                 1.2467                 0.9314
 IR Inten    --     11.1286               393.7039                26.8519

                     52                     53                     54
                      A                      A                      A
 Frequencies --   1045.0194              1085.2753              1100.3788
 Red. masses --      1.3959                 2.4534                 1.9329
 Frc consts  --      0.8982                 1.7026                 1.3790
 IR Inten    --     20.7395                63.9386                37.1999

                     55                     56                     57
                      A                      A                      A
 Frequencies --   1119.0380              1133.7920              1172.9098
 Red. masses --      1.6140                 1.5251                 3.3288
 Frc consts  --      1.1908                 1.1551                 2.6982
 IR Inten    --     52.1179               109.5072               429.3198

                     58                     59                     60
                      A                      A                      A
 Frequencies --   1192.9736              1203.6371              1214.2671
 Red. masses --      2.0078                 2.3409                 2.6790
 Frc consts  --      1.6836                 1.9982                 2.3273
 IR Inten    --    143.6339               106.1378                16.6736

                     61                     62                     63
                      A                      A                      A
 Frequencies --   1219.7567              1227.4882              1250.0967
 Red. masses --      1.7477                 2.5813                 2.1839
 Frc consts  --      1.5321                 2.2915                 2.0108
 IR Inten    --      1.8991               136.2949               220.4032

                     64                     65                     66
                      A                      A                      A
 Frequencies --   1276.2755              1333.1669              1340.0163
 Red. masses --      2.8678                 2.3603                 6.1237
 Frc consts  --      2.7522                 2.4717                 6.4787
 IR Inten    --     98.1866               136.2706               483.3123

                     67                     68                     69
                      A                      A                      A
 Frequencies --   1356.3685              1379.2239              1382.7624
 Red. masses --      7.3809                 1.2252                 1.8381
 Frc consts  --      8.0005                 1.3732                 2.0707
 IR Inten    --    244.2568               225.9134               106.5581

                     70                     71                     72
                      A                      A                      A
 Frequencies --   1388.0454              1415.3950              1448.9967
 Red. masses --      1.5763                 1.2407                 3.8946
 Frc consts  --      1.7893                 1.4644                 4.8178
 IR Inten    --    499.7760               126.3013               505.6327

                     73                     74                     75
                      A                      A                      A
 Frequencies --   1462.0444              1471.7195              1473.8614
 Red. masses --      2.8219                 6.5718                 1.0676
 Frc consts  --      3.5539                 8.3866                 1.3664
 IR Inten    --    374.6222              2138.9111                47.7782

                     76                     77                     78
                      A                      A                      A
 Frequencies --   1482.9367              1484.1681              1487.1635
 Red. masses --      1.0469                 1.0961                 3.4705
 Frc consts  --      1.3565                 1.4226                 4.5223
 IR Inten    --     79.1806               147.4669               126.0516

                     79                     80                     81
                      A                      A                      A
 Frequencies --   1491.5338              1497.7321              1499.5295
 Red. masses --      1.9985                 1.3809                 1.0714
 Frc consts  --      2.6195                 1.8251                 1.4194
 IR Inten    --    412.2472                99.9421                20.9897

                     82                     83                     84
                      A                      A                      A
 Frequencies --   1514.9357              1526.5387              1565.0386
 Red. masses --      1.1230                 4.2986                 7.2079
 Frc consts  --      1.5185                 5.9019                10.4018
 IR Inten    --     56.4370                37.9801              4334.1392

                     85                     86                     87
                      A                      A                      A
 Frequencies --   1590.4431              1606.4972              2981.6661
 Red. masses --      5.4624                 5.8459                 1.0442
 Frc consts  --      8.1408                 8.8892                 5.4696
 IR Inten    --      5.6099               102.3861                14.4951

                     88                     89                     90
                      A                      A                      A
 Frequencies --   2999.5340              3007.0075              3052.3940
 Red. masses --      1.0369                 1.0385                 1.0906
 Frc consts  --      5.4966                 5.5328                 5.9870
 IR Inten    --     22.8709                33.8559                43.5605

                     91                     92                     93
                      A                      A                      A
 Frequencies --   3059.3885              3064.8323              3075.8379
 Red. masses --      1.0992                 1.0965                 1.1009
 Frc consts  --      6.0615                 6.0686                 6.1364
 IR Inten    --    156.5015               162.2259                 1.8551

                     94                     95                     96
                      A                      A                      A
 Frequencies --   3080.1476              3084.4598              3097.7607
 Red. masses --      1.1006                 1.1014                 1.0828
 Frc consts  --      6.1519                 6.1737                 6.1220
 IR Inten    --      3.5127                 1.8722                36.0420

                     97                     98                     99
                      A                      A                      A
 Frequencies --   3120.7149              3123.6887              3159.8579
 Red. masses --      1.0905                 1.0855                 1.0904
 Frc consts  --      6.2573                 6.2402                 6.4147
 IR Inten    --    322.9070                12.2719                27.6270

                    100                    101                    102
                      A                      A                      A
 Frequencies --   3161.6371              3162.5219              3187.4102
 Red. masses --      1.0914                 1.0916                 1.0874
 Frc consts  --      6.4275                 6.4327                 6.5092
 IR Inten    --     24.9048               243.4719                 7.8606

 - Thermochemistry -
 -------------------
 Temperature   298.150 Kelvin.  Pressure   1.00000 Atm.
 Atom     1 has atomic number  6 and mass  12.00000

 Molecular mass:   264.11503 amu.
 Principal axes and moments of inertia in atomic units:
                           1         2         3
     Eigenvalues --  2215.754219270.67724**********
           X            0.99928   0.03158   0.02084
           Y           -0.03732   0.91336   0.40543
           Z           -0.00623  -0.40592   0.91389
 This molecule is an asymmetric top.
 Rotational symmetry number  1.
 Warning -- assumption of classical behavior for rotation
           may cause significant error
 Rotational temperatures (Kelvin)      0.03909     0.00934     0.00781
 Rotational constants (GHZ):           0.81450     0.19467     0.16276
 Zero-point vibrational energy     750376.5 (Joules/Mol)
                                  179.34429 (Kcal/Mol)
 Warning -- explicit consideration of  27 degrees of freedom as
           vibrations may cause significant error
 Vibrational temperatures:     52.12    65.61   119.47   178.90   186.62
          (Kelvin)            239.83   264.16   327.88   341.11   353.11
                              358.41   396.43   428.54   451.53   499.91
                              508.83   530.86   570.73   586.40   606.13
                              633.96   646.81   677.43   690.99   705.47
                              801.45   807.53   915.40   942.57   945.62
                              998.28  1000.56  1018.51  1053.08  1090.12
                             1129.80  1156.74  1162.27  1206.15  1227.12
                             1313.63  1339.88  1341.99  1362.76  1374.95
                             1381.64  1387.89  1399.73  1406.89  1461.75
                             1494.64  1503.55  1561.47  1583.20  1610.05
                             1631.27  1687.56  1716.42  1731.77  1747.06
                             1754.96  1766.08  1798.61  1836.28  1918.13
                             1927.98  1951.51  1984.40  1989.49  1997.09
                             2036.44  2084.78  2103.56  2117.48  2120.56
                             2133.62  2135.39  2139.70  2145.98  2154.90
                             2157.49  2179.65  2196.35  2251.74  2288.29
                             2311.39  4289.95  4315.66  4326.41  4391.71
                             4401.78  4409.61  4425.44  4431.65  4437.85
                             4456.99  4490.01  4494.29  4546.33  4548.89
                             4550.16  4585.97

 Zero-point correction=                           0.285803 (Hartree/Particle)
 Thermal correction to Energy=                    0.302707
 Thermal correction to Enthalpy=                  0.303651
 Thermal correction to Gibbs Free Energy=         0.242051
 Sum of electronic and zero-point Energies=           -845.942058
 Sum of electronic and thermal Energies=              -845.925155
 Sum of electronic and thermal Enthalpies=            -845.924210
 Sum of electronic and thermal Free Energies=         -845.985810

                     E (Thermal)             CV                S
                      KCal/Mol        Cal/Mol-Kelvin    Cal/Mol-Kelvin
 Total                  189.951             68.941            129.647
 Electronic               0.000              0.000              0.000
 Translational            0.889              2.981             42.613
 Rotational               0.889              2.981             33.787
 Vibrational            188.174             62.979             53.247
 Vibration     1          0.594              1.982              5.456
 Vibration     2          0.595              1.979              5.000
 Vibration     3          0.600              1.961              3.818
 Vibration     4          0.610              1.929              3.032
 Vibration     5          0.612              1.924              2.950
 Vibration     6          0.624              1.883              2.472
 Vibration     7          0.631              1.862              2.292
 Vibration     8          0.651              1.798              1.895
 Vibration     9          0.656              1.784              1.825
 Vibration    10          0.660              1.770              1.763
 Vibration    11          0.662              1.764              1.737
 Vibration    12          0.677              1.719              1.561
 Vibration    13          0.691              1.678              1.429
 Vibration    14          0.702              1.647              1.342
 Vibration    15          0.725              1.580              1.178
 Vibration    16          0.730              1.568              1.150
 Vibration    17          0.741              1.536              1.084
 Vibration    18          0.763              1.477              0.975
 Vibration    19          0.772              1.454              0.935
 Vibration    20          0.784              1.424              0.888
 Vibration    21          0.801              1.382              0.825
 Vibration    22          0.808              1.362              0.797
 Vibration    23          0.828              1.315              0.735
 Vibration    24          0.837              1.294              0.709
 Vibration    25          0.846              1.271              0.683
 Vibration    26          0.913              1.124              0.530
 Vibration    27          0.917              1.115              0.521

 Optimization completed.
    -- Stationary point found.
 Normal termination of Gaussian 16 at Thu Dec 21 13:56:57 2023.
