 Q-Chem 5.4, Q-Chem, Inc., Pleasanton, CA (2021)
 Q-Chem 5.4.0 for Intel X86 EM64T Linux

User input:
--------------------------------------------------------------
$molecule
-1 2
C                  4.6963750000     -0.7094830000      0.8810070000
O                  4.2676990000      0.3488650000      0.0452660000
C                  2.9082210000      0.4962920000     -0.1489750000
C                  2.5367500000      1.5693780000     -0.9931010000
C                  1.2046010000      1.8008940000     -1.2503080000
C                  0.1894090000      0.9920280000     -0.6916180000
C                 -1.2115180000      1.2818170000     -0.9977950000
O                 -1.5479130000      2.2321900000     -1.7460930000
C                 -2.1997500000      0.3943960000     -0.3772870000
C                 -3.5722250000      0.6109550000     -0.6256540000
C                 -4.5395310000     -0.1986730000     -0.0634810000
C                 -4.1579660000     -1.2674000000      0.7782260000
C                 -2.8220150000     -1.4992110000      1.0361160000
C                 -1.8136670000     -0.6844490000      0.4724510000
C                 -0.4121210000     -0.9696160000      0.7751530000
O                 -0.0683420000     -1.9219880000      1.5255580000
C                  0.5715610000     -0.0838200000      0.1554400000
C                  1.9453620000     -0.3138820000      0.4139640000
H                  4.3884470000     -1.6853120000      0.4869250000
H                  4.3043180000     -0.6038480000      1.8995880000
H                  5.7856520000     -0.6548260000      0.9040970000
H                  3.3163330000      2.1897230000     -1.4214400000
H                  0.8941790000      2.6163260000     -1.8935630000
H                 -3.8342990000      1.4383660000     -1.2753030000
H                 -5.5906360000     -0.0158420000     -0.2666930000
H                 -4.9169650000     -1.9056120000      1.2215960000
H                 -2.5020970000     -2.3119770000      1.6781050000
H                  2.1801380000     -1.1452910000      1.0648960000
$end
$rem
MAX_SCF_CYCLES=200
BASIS  =  6-311++G(d,p)
GUI  =  2
JOB_TYPE  =  SP
METHOD  =  B3LYP
SOLVENT_METHOD = COSMO
$end
$solvent
dielectric 37.219
opticaldielectric 1.43
$end

--------------------------------------------------------------

             Standard Nuclear Orientation (Angstroms)
    I     Atom           X                Y                Z
 ----------------------------------------------------------------
    1      C       4.7546864891    -1.4314271226    -0.0006079988
    2      O       4.3946817772    -0.0629524516    -0.0000572303
    3      C       3.0473928966     0.2411155830     0.0000887869
    4      C       2.7454183851     1.6234557536     0.0002240196
    5      C       1.4307891331     2.0310413117     0.0002206640
    6      C       0.3658261454     1.1021347774     0.0001545038
    7      C      -1.0137105494     1.5891634815    -0.0000135460
    8      O      -1.2885431550     2.8142297506    -0.0000987046
    9      C      -2.0568002831     0.5590603312    -0.0000595101
   10      C      -3.4126337191     0.9514724364    -0.0002218392
   11      C      -4.4298559529     0.0174083041    -0.0002650866
   12      C      -4.1175264266    -1.3605213667    -0.0001504400
   13      C      -2.7991201971    -1.7689496296     0.0000345943
   14      C      -1.7406100059    -0.8319986105     0.0000625592
   15      C      -0.3601592652    -1.3132839987     0.0002532445
   16      O      -0.0780847231    -2.5415909667     0.0004439200
   17      C       0.6782843498    -0.2847200081     0.0001587903
   18      C       2.0345742594    -0.6940732159     0.0001099101
   19      H       4.3772762091    -1.9479100519    -0.8912085700
   20      H       4.3777754207    -1.9484890102     0.8898748753
   21      H       5.8452648063    -1.4575763547    -0.0008726618
   22      H       3.5631708448     2.3357287166     0.0003367234
   23      H       1.1732330900     3.0840052447     0.0002271230
   24      H      -3.6211726825     2.0153554474    -0.0003070812
   25      H      -5.4671282228     0.3392937438    -0.0003843061
   26      H      -4.9158803007    -2.0971366577    -0.0001757073
   27      H      -2.5319151225    -2.8195149045     0.0001923244
   28      H       2.2156132100    -1.7605149919     0.0000814875
 ----------------------------------------------------------------

   10    -803.5771145317      9.36e-06  Convergence criterion met
 Total energy in the final basis set =     -803.5771145317
    4    -803.6620426582      9.71e-06  Convergence criterion met
 Total energy in the final basis set =     -803.6620426582

                    Orbital Energies (a.u.)
 --------------------------------------------------------------

 Alpha MOs
 -- Occupied --
-19.1580 -19.0807 -19.0792 -10.2369 -10.2286 -10.2247 -10.2145 -10.1774
-10.1749 -10.1738 -10.1735 -10.1732 -10.1727 -10.1719 -10.1709 -10.1701
-10.1696 -10.1684  -1.0690  -1.0078  -1.0038  -0.8632  -0.8520  -0.7878
 -0.7552  -0.7504  -0.7470  -0.6999  -0.6684  -0.6329  -0.6140  -0.5890
 -0.5600  -0.5403  -0.5341  -0.4941  -0.4853  -0.4690  -0.4678  -0.4590
 -0.4371  -0.4296  -0.4245  -0.4232  -0.4204  -0.4129  -0.4011  -0.3924
 -0.3846  -0.3764  -0.3573  -0.3543  -0.3516  -0.3396  -0.3328  -0.3155
 -0.2673  -0.2590  -0.2572  -0.2515  -0.2417  -0.2328  -0.1443

 Beta MOs
 -- Occupied --
-19.1579 -19.0756 -19.0734 -10.2365 -10.2269 -10.2225 -10.2145 -10.1765
-10.1750 -10.1732 -10.1731 -10.1723 -10.1723 -10.1713 -10.1704 -10.1701
-10.1694 -10.1681  -1.0687  -0.9988  -0.9936  -0.8606  -0.8508  -0.7842
 -0.7528  -0.7487  -0.7455  -0.6989  -0.6608  -0.6313  -0.6116  -0.5884
 -0.5577  -0.5388  -0.5324  -0.4923  -0.4842  -0.4671  -0.4667  -0.4577
 -0.4365  -0.4286  -0.4225  -0.4165  -0.4115  -0.4097  -0.3997  -0.3907
 -0.3735  -0.3611  -0.3568  -0.3531  -0.3441  -0.3388  -0.3316  -0.3074
 -0.2563  -0.2486  -0.2478  -0.2465  -0.2367  -0.2269

          Ground-State Mulliken Net Atomic Charges

     Atom                 Charge (a.u.)    Spin (a.u.)
  --------------------------------------------------------
      1 C                    -0.369178      -0.000616
      2 O                    -0.226348       0.003034
      3 C                    -0.679142       0.013246
      4 C                    -0.439476       0.029403
      5 C                     0.133927       0.016233
      6 C                     0.170329       0.023755
      7 C                    -0.596703       0.093032
      8 O                    -0.490814       0.183403
      9 C                     0.050201       0.038951
     10 C                     0.132244       0.017942
     11 C                    -0.505785       0.052442
     12 C                    -0.490874       0.025522
     13 C                     0.073404       0.039911
     14 C                     0.308063       0.016658
     15 C                    -0.613867       0.134161
     16 O                    -0.499817       0.211354
     17 C                     0.612141       0.061896
     18 C                     0.544991       0.053969
     19 H                     0.175961       0.000699
     20 H                     0.175883       0.000699
     21 H                     0.201457      -0.000140
     22 H                     0.227317      -0.002926
     23 H                     0.188027      -0.000610
     24 H                     0.177251      -0.000713
     25 H                     0.201060      -0.003927
     26 H                     0.203069      -0.002498
     27 H                     0.176308      -0.002236
     28 H                     0.160373      -0.002647
  --------------------------------------------------------
  Sum of atomic charges =    -1.000000

                    Cartesian Multipole Moments
 -----------------------------------------------------------------
    Charge (ESU x 10^10)
                -4.8032
    Dipole Moment (Debye)
         X       3.2911      Y      -2.0800      Z      -0.0025
       Tot       3.8933
    Quadrupole Moments (Debye-Ang)
        XX    -104.5134     XY       1.4292     YY    -136.6509
        XZ      -0.0035     YZ       0.0046     ZZ    -111.2738

 Total job time:  87.83s(wall), 669.94s(cpu)
        *  Thank you very much for using Q-Chem.  Have a nice day.  *
