 Gaussian 16, Revision A.03,
 Gaussian 16:  ES64L-G16RevA.03 25-Dec-2016

 ----------------------------------------------------------------------
 #P UB3LYP/6-311++G(d,p) nosym opt freq SCRF=(PCM,Solvent=n,n-DiMethylF
 ormamide)
 ----------------------------------------------------------------------

 -------
 Radical
 -------
 Symbolic Z-matrix:
 Charge = -1 Multiplicity = 2

 SCF Done:  E(UB3LYP) =  -1168.37905491     A.U. after   21 cycles
 SCF Done:  E(UB3LYP) =  -1168.37907557     A.U. after   13 cycles
 SCF Done:  E(UB3LYP) =  -1168.37907509     A.U. after   12 cycles
 SCF Done:  E(UB3LYP) =  -1168.37907688     A.U. after   12 cycles
 SCF Done:  E(UB3LYP) =  -1168.37907728     A.U. after   10 cycles
 SCF Done:  E(UB3LYP) =  -1168.37907754     A.U. after   11 cycles
 SCF Done:  E(UB3LYP) =  -1168.37907785     A.U. after   12 cycles
 SCF Done:  E(UB3LYP) =  -1168.37907810     A.U. after   12 cycles
 SCF Done:  E(UB3LYP) =  -1168.37907826     A.U. after   12 cycles
 SCF Done:  E(UB3LYP) =  -1168.37907832     A.U. after   11 cycles
 SCF Done:  E(UB3LYP) =  -1168.37910053     A.U. after   18 cycles
 SCF Done:  E(UB3LYP) =  -1168.37912804     A.U. after   15 cycles
 SCF Done:  E(UB3LYP) =  -1168.35256368     A.U. after   20 cycles
 SCF Done:  E(UB3LYP) =  -1168.37913437     A.U. after   16 cycles
 SCF Done:  E(UB3LYP) =  -1168.37917471     A.U. after   11 cycles
 SCF Done:  E(UB3LYP) =  -1168.37918372     A.U. after   14 cycles
 SCF Done:  E(UB3LYP) =  -1168.37918605     A.U. after   14 cycles
 SCF Done:  E(UB3LYP) =  -1168.37918646     A.U. after   12 cycles
 SCF Done:  E(UB3LYP) =  -1168.37918653     A.U. after    9 cycles
 Optimization completed.
    -- Stationary point found.
 Normal termination of Gaussian 16 at Sun Feb 11 21:28:57 2024.

 ----------------------------------------------------------------------
 #P Geom=AllCheck Guess=TCheck SCRF=Check GenChk UB3LYP/6-311++G(d,p) F
 req
 ----------------------------------------------------------------------

 Structure from the checkpoint file:  "230-rad.chk"
 -------
 Radical
 -------
 Charge = -1 Multiplicity = 2

                          Input orientation:
 ---------------------------------------------------------------------
 Center     Atomic      Atomic             Coordinates (Angstroms)
 Number     Number       Type             X           Y           Z
 ---------------------------------------------------------------------
      1          6           0        5.750302   -5.296290    0.970740
      2          6           0        6.602661   -5.190412   -0.115675
      3          6           0        6.443225   -4.132231   -1.030608
      4          6           0        4.719311   -4.361112    1.179806
      5          6           0        4.558041   -3.293326    0.258192
      6          6           0        5.437640   -3.201576   -0.843456
      7          6           0        3.844654   -4.496176    2.357826
      8          6           0        2.826542   -3.493124    2.492829
      9          6           0        2.604336   -2.463878    1.580863
     10          6           0        3.494464   -2.318150    0.426599
     11          8           0        4.011416   -5.429032    3.189596
     12          8           0        3.306291   -1.360512   -0.386180
     13          1           0        5.860648   -6.102778    1.685256
     14          1           0        7.391315   -5.920382   -0.261735
     15          1           0        5.303294   -2.383474   -1.540814
     16         17           0        1.880552   -3.578614    3.992976
     17          1           0        7.109494   -4.047774   -1.882396
     18          7           0        1.634109   -1.483943    1.659312
     19          6           0        0.228108   -1.718637    2.025499
     20          6           0       -0.659097   -0.629119    1.422919
     21          6           0       -2.131107   -0.799790    1.806867
     22          1           0        1.729277   -0.898298    0.832425
     23          1           0        0.114412   -1.719066    3.110801
     24          1           0       -0.100401   -2.703542    1.667503
     25          1           0       -0.559028   -0.642469    0.331227
     26          1           0       -0.299512    0.349557    1.760620
     27          1           0       -2.523024   -1.760421    1.458967
     28          1           0       -2.744608   -0.010604    1.365005
     29          1           0       -2.264653   -0.757806    2.892087
 ---------------------------------------------------------------------

 SCF Done:  E(UB3LYP) =  -1168.37918653     A.U. after    2 cycles

 Alpha  occ. eigenvalues -- -101.54249 -19.08275 -19.07420 -14.31936 -10.23005
 Alpha  occ. eigenvalues --  -10.22559 -10.21616 -10.21222 -10.19608 -10.17601
 Alpha  occ. eigenvalues --  -10.17554 -10.17319 -10.17234 -10.17125 -10.17103
 Alpha  occ. eigenvalues --  -10.16838 -10.15882  -9.45721  -7.22144  -7.21241
 Alpha  occ. eigenvalues --   -7.21173  -1.00864  -1.00029  -0.92902  -0.86163
 Alpha  occ. eigenvalues --   -0.85114  -0.79570  -0.77663  -0.75175  -0.72735
 Alpha  occ. eigenvalues --   -0.68623  -0.66056  -0.61706  -0.60320  -0.59503
 Alpha  occ. eigenvalues --   -0.56355  -0.52610  -0.50980  -0.48301  -0.47606
 Alpha  occ. eigenvalues --   -0.46619  -0.45755  -0.43495  -0.42960  -0.42335
 Alpha  occ. eigenvalues --   -0.41921  -0.41203  -0.40580  -0.40251  -0.38993
 Alpha  occ. eigenvalues --   -0.38293  -0.36619  -0.36381  -0.35450  -0.34647
 Alpha  occ. eigenvalues --   -0.34065  -0.33937  -0.33053  -0.30366  -0.29730
 Alpha  occ. eigenvalues --   -0.26447  -0.25778  -0.25481  -0.24311  -0.21631
 Alpha  occ. eigenvalues --   -0.15037
 Alpha virt. eigenvalues --   -0.03463  -0.01322  -0.00556   0.00214   0.00937
 Alpha virt. eigenvalues --    0.01336   0.02073   0.02140   0.03363   0.03481
 Alpha virt. eigenvalues --    0.04312   0.04367   0.04937   0.05212   0.05472

  Beta  occ. eigenvalues -- -101.54249 -19.07630 -19.06938 -14.31825 -10.22870
  Beta  occ. eigenvalues --  -10.22291 -10.21470 -10.21197 -10.19601 -10.17558
  Beta  occ. eigenvalues --  -10.17474 -10.17311 -10.17171 -10.17113 -10.17080
  Beta  occ. eigenvalues --  -10.16837 -10.15882  -9.45721  -7.22147  -7.21236
  Beta  occ. eigenvalues --   -7.21174  -0.99797  -0.99165  -0.92581  -0.85933
  Beta  occ. eigenvalues --   -0.85040  -0.79297  -0.77487  -0.74962  -0.72564
  Beta  occ. eigenvalues --   -0.68323  -0.65445  -0.61551  -0.60168  -0.59331
  Beta  occ. eigenvalues --   -0.56078  -0.52434  -0.50775  -0.48032  -0.47506
  Beta  occ. eigenvalues --   -0.46479  -0.45659  -0.43124  -0.42529  -0.41943
  Beta  occ. eigenvalues --   -0.41605  -0.40711  -0.40408  -0.39903  -0.38689
  Beta  occ. eigenvalues --   -0.36549  -0.36473  -0.35878  -0.35146  -0.34599
  Beta  occ. eigenvalues --   -0.33910  -0.33683  -0.32287  -0.30213  -0.28729
  Beta  occ. eigenvalues --   -0.25070  -0.24906  -0.24846  -0.23834  -0.20752
  Beta virt. eigenvalues --   -0.08647  -0.02698  -0.00607  -0.00205   0.00238
  Beta virt. eigenvalues --    0.00978   0.01356   0.02083   0.02154   0.03375
  Beta virt. eigenvalues --    0.03533   0.04361   0.04579   0.05118   0.05502

 Mulliken charges and spin densities:
               1          2
     1  C    0.114273   0.001224
     2  C   -0.400832   0.065165
     3  C   -0.396870   0.003857
     4  C    0.336886   0.074245
     5  C    0.073924  -0.008428
     6  C    0.057382   0.074402
     7  C   -0.892638   0.073307
     8  C    1.131665  -0.000743
     9  C   -0.408558   0.089043
    10  C   -0.954675   0.176628
    11  O   -0.445682   0.176475
    12  O   -0.468338   0.241532
    13  H    0.169958  -0.000160
    14  H    0.179716  -0.004755
    15  H    0.171584  -0.004040
    16  Cl   0.317069  -0.000828
    17  H    0.179620  -0.000689
    18  N    0.010402   0.045719
    19  C   -0.303653  -0.000376
    20  C   -0.203371  -0.005988
    21  C   -0.639635  -0.000215
    22  H    0.330474  -0.002043
    23  H    0.147522   0.000935
    24  H    0.167686   0.005318
    25  H    0.140101  -0.000639
    26  H    0.150722   0.000926
    27  H    0.140597   0.000197
    28  H    0.152795  -0.000001
    29  H    0.141876  -0.000069
 Sum of Mulliken charges =  -1.00000   1.00000

 Dipole moment (field-independent basis, Debye):
    X=            -18.4712    Y=             17.7805    Z=             -9.8365  Tot=             27.4607
 Quadrupole moment (field-independent basis, Debye-Ang):
   XX=           -174.5870   YY=           -194.3283   ZZ=           -150.0110
   XY=             64.2957   XZ=            -37.8659   YZ=             51.6876

  Exact polarizability: 313.292 -89.118 293.125 -74.275 -51.959 296.534
 Approx polarizability: 316.339 -88.323 338.121 -67.002 -72.097 331.003

                      1                      2                      3
                      A                      A                      A
 Frequencies --     29.7794                41.1682                69.9086
 Red. masses --      4.4524                 1.6017                 5.5399
 Frc consts  --      0.0023                 0.0016                 0.0160
 IR Inten    --      2.3191                 5.7100                 1.9229

                      4                      5                      6
                      A                      A                      A
 Frequencies --     76.4843               103.4582               135.6279
 Red. masses --      6.5519                 3.8159                 3.9560
 Frc consts  --      0.0226                 0.0241                 0.0429
 IR Inten    --      9.9649                 2.3425                 3.7982

                      7                      8                      9
                      A                      A                      A
 Frequencies --    155.8280               183.4155               214.2716
 Red. masses --      4.5996                 5.6665                 7.5423
 Frc consts  --      0.0658                 0.1123                 0.2040
 IR Inten    --     18.4614                 8.7950                 2.8270

                     10                     11                     12
                      A                      A                      A
 Frequencies --    232.1221               240.8432               271.4907
 Red. masses --      1.1682                 4.1072                 4.8867
 Frc consts  --      0.0371                 0.1404                 0.2122
 IR Inten    --      0.0647                 5.9142                 0.8749

                     13                     14                     15
                      A                      A                      A
 Frequencies --    287.8996               298.2177               343.1964
 Red. masses --      5.5957                 8.1923                 9.0315
 Frc consts  --      0.2733                 0.4293                 0.6267
 IR Inten    --      1.2439                 0.0985                 0.4867

                     16                     17                     18
                      A                      A                      A
 Frequencies --    380.4145               414.2731               436.5371
 Red. masses --      9.8098                 6.0799                 3.5219
 Frc consts  --      0.8364                 0.6148                 0.3954
 IR Inten    --     28.3140                 0.9581                16.4435

                     19                     20                     21
                      A                      A                      A
 Frequencies --    454.6907               469.7533               510.2690
 Red. masses --      3.9682                 8.7709                 8.4236
 Frc consts  --      0.4834                 1.1403                 1.2923
 IR Inten    --     13.2538                11.3595                 5.9025

                     22                     23                     24
                      A                      A                      A
 Frequencies --    550.9588               606.0804               666.1827
 Red. masses --      5.1294                 6.1304                 4.8959
 Frc consts  --      0.9174                 1.3268                 1.2802
 IR Inten    --     21.0589                 6.7609                63.3456

                     25                     26                     27
                      A                      A                      A
 Frequencies --    683.5150               701.2210               716.0300
 Red. masses --      4.9193                 3.3311                 3.3369
 Frc consts  --      1.3541                 0.9651                 1.0080
 IR Inten    --     23.2861                88.7753                50.4587

                     28                     29                     30
                      A                      A                      A
 Frequencies --    754.4449               763.7244               775.4566
 Red. masses --      1.6226                 1.2159                 4.8959
 Frc consts  --      0.5441                 0.4178                 1.7346
 IR Inten    --    156.1487                31.1644                18.8944

                     31                     32                     33
                      A                      A                      A
 Frequencies --    784.9220               806.4978               877.3929
 Red. masses --      1.7728                 8.3727                 4.8268
 Frc consts  --      0.6435                 3.2087                 2.1893
 IR Inten    --     43.4681               189.9938                 4.4614

                     34                     35                     36
                      A                      A                      A
 Frequencies --    882.7873               903.3434               921.4672
 Red. masses --      1.4176                 1.1784                 2.0078
 Frc consts  --      0.6509                 0.5665                 1.0044
 IR Inten    --      0.0467                 7.6945                 6.1380

                     37                     38                     39
                      A                      A                      A
 Frequencies --    983.1329               998.1456              1005.5942
 Red. masses --      1.3665                 1.2855                 4.0474
 Frc consts  --      0.7782                 0.7546                 2.4114
 IR Inten    --      2.7396                 0.0444                55.6640

                     40                     41                     42
                      A                      A                      A
 Frequencies --   1035.3754              1049.4099              1090.0450
 Red. masses --      2.4734                 2.4813                 3.3489
 Frc consts  --      1.5622                 1.6100                 2.3445
 IR Inten    --     36.0170                 7.6701                23.4315

                     43                     44                     45
                      A                      A                      A
 Frequencies --   1106.7643              1141.6306              1153.6838
 Red. masses --      2.4190                 2.3250                 1.3986
 Frc consts  --      1.7458                 1.7854                 1.0968
 IR Inten    --     12.4232                36.9342                16.9280

                     46                     47                     48
                      A                      A                      A
 Frequencies --   1164.5036              1176.9600              1218.6433
 Red. masses --      1.5659                 2.5376                 3.1040
 Frc consts  --      1.2511                 2.0711                 2.7160
 IR Inten    --     20.1402                10.5864               150.3550

                     49                     50                     51
                      A                      A                      A
 Frequencies --   1233.6876              1252.3569              1270.1269
 Red. masses --      2.7922                 2.4280                 1.2397
 Frc consts  --      2.5039                 2.2437                 1.1783
 IR Inten    --     50.0312               178.7261                44.2090

                     52                     53                     54
                      A                      A                      A
 Frequencies --   1323.5535              1328.7037              1354.7104
 Red. masses --      1.0792                 1.4852                 5.5975
 Frc consts  --      1.1138                 1.5449                 6.0525
 IR Inten    --      4.7487                 0.2718                 9.1629

                     55                     56                     57
                      A                      A                      A
 Frequencies --   1356.8111              1401.4141              1407.8908
 Red. masses --      2.9661                 1.4956                 1.2512
 Frc consts  --      3.2171                 1.7306                 1.4612
 IR Inten    --     26.6511                14.1710                 5.7718

                     58                     59                     60
                      A                      A                      A
 Frequencies --   1454.7751              1465.6721              1481.0494
 Red. masses --      3.8330                 2.8804                 1.1177
 Frc consts  --      4.7795                 3.6456                 1.4445
 IR Inten    --   1199.6606               112.8169                84.6633

                     61                     62                     63
                      A                      A                      A
 Frequencies --   1488.1040              1489.2736              1498.7734
 Red. masses --      2.2406                 1.1032                 1.1919
 Frc consts  --      2.9233                 1.4417                 1.5775
 IR Inten    --    651.9546                85.5879               180.7990

                     64                     65                     66
                      A                      A                      A
 Frequencies --   1515.9481              1524.5147              1538.1708
 Red. masses --      1.5499                 2.4308                 3.8085
 Frc consts  --      2.0985                 3.3285                 5.3090
 IR Inten    --    200.3259               203.3736                72.5296

                     67                     68                     69
                      A                      A                      A
 Frequencies --   1555.0069              1602.3645              1624.4106
 Red. masses --      1.8187                 7.3527                 5.8800
 Frc consts  --      2.5911                11.1230                 9.1416
 IR Inten    --     42.9214                77.2514                14.9304

                     70                     71                     72
                      A                      A                      A
 Frequencies --   2988.0048              3010.8355              3020.2092
 Red. masses --      1.0720                 1.0596                 1.0357
 Frc consts  --      5.6391                 5.6594                 5.5660
 IR Inten    --     71.6025                53.0369                52.6091

                     73                     74                     75
                      A                      A                      A
 Frequencies --   3039.4555              3074.7915              3082.7675
 Red. masses --      1.0995                 1.0954                 1.0998
 Frc consts  --      5.9846                 6.1018                 6.1582
 IR Inten    --     23.8408                13.0417               135.2757

                     76                     77                     78
                      A                      A                      A
 Frequencies --   3087.5933              3159.9399              3173.8834
 Red. masses --      1.1010                 1.0860                 1.0903
 Frc consts  --      6.1842                 6.3893                 6.4711
 IR Inten    --     60.0802                 9.9395                21.2949

                     79                     80                     81
                      A                      A                      A
 Frequencies --   3189.2084              3192.7341              3475.9322
 Red. masses --      1.0919                 1.0947                 1.0737
 Frc consts  --      6.5434                 6.5749                 7.6429
 IR Inten    --     17.4660                37.5495                78.0224

 - Thermochemistry -
 -------------------
 Temperature   298.150 Kelvin.  Pressure   1.00000 Atm.
 Atom     1 has atomic number  6 and mass  12.00000

 Molecular mass:   249.05566 amu.
 Principal axes and moments of inertia in atomic units:
                           1         2         3
     Eigenvalues --  2430.523826798.241348965.06383
           X            0.85676  -0.02447   0.51514
           Y           -0.43699  -0.56489   0.69995
           Z           -0.27387   0.82480   0.49467
 This molecule is an asymmetric top.
 Rotational symmetry number  1.
 Warning -- assumption of classical behavior for rotation
           may cause significant error
 Rotational temperatures (Kelvin)      0.03564     0.01274     0.00966
 Rotational constants (GHZ):           0.74253     0.26547     0.20131
 Zero-point vibrational energy     583360.4 (Joules/Mol)
                                  139.42647 (Kcal/Mol)
 Warning -- explicit consideration of  23 degrees of freedom as
           vibrations may cause significant error
 Vibrational temperatures:     42.85    59.23   100.58   110.04   148.85
          (Kelvin)            195.14   224.20   263.89   308.29   333.97
                              346.52   390.61   414.22   429.07   493.78
                              547.33   596.05   628.08   654.20   675.87
                              734.16   792.71   872.01   958.49   983.43
                             1008.90  1030.21  1085.48  1098.83  1115.71
                             1129.33  1160.37  1262.37  1270.13  1299.71
                             1325.79  1414.51  1436.11  1446.83  1489.67
                             1509.87  1568.33  1592.39  1642.55  1659.89
                             1675.46  1693.38  1753.36  1775.00  1801.86
                             1827.43  1904.30  1911.71  1949.13  1952.15
                             2016.32  2025.64  2093.10  2108.78  2130.90
                             2141.05  2142.73  2156.40  2181.11  2193.44
                             2213.08  2237.31  2305.45  2337.16  4299.07
                             4331.92  4345.41  4373.10  4423.94  4435.41
                             4442.36  4546.45  4566.51  4588.56  4593.63
                             5001.09

 Zero-point correction=                           0.222190 (Hartree/Particle)
 Thermal correction to Energy=                    0.237730
 Thermal correction to Enthalpy=                  0.238674
 Thermal correction to Gibbs Free Energy=         0.177419
 Sum of electronic and zero-point Energies=          -1168.156996
 Sum of electronic and thermal Energies=             -1168.141456
 Sum of electronic and thermal Enthalpies=           -1168.140512
 Sum of electronic and thermal Free Energies=        -1168.201768

                     E (Thermal)             CV                S
                      KCal/Mol        Cal/Mol-Kelvin    Cal/Mol-Kelvin
 Total                  149.178             58.406            128.923
 Electronic               0.000              0.000              1.377
 Translational            0.889              2.981             42.438
 Rotational               0.889              2.981             33.360
 Vibrational            147.400             52.444             51.748
 Vibration     1          0.594              1.984              5.844
 Vibration     2          0.594              1.981              5.202
 Vibration     3          0.598              1.968              4.156
 Vibration     4          0.599              1.965              3.979
 Vibration     5          0.605              1.946              3.388
 Vibration     6          0.613              1.918              2.865
 Vibration     7          0.620              1.896              2.600
 Vibration     8          0.631              1.862              2.293
 Vibration     9          0.644              1.819              2.007
 Vibration    10          0.653              1.792              1.862
 Vibration    11          0.658              1.778              1.797
 Vibration    12          0.675              1.726              1.587
 Vibration    13          0.685              1.696              1.486
 Vibration    14          0.691              1.677              1.427
 Vibration    15          0.722              1.589              1.197
 Vibration    16          0.750              1.512              1.038
 Vibration    17          0.778              1.439              0.912
 Vibration    18          0.797              1.391              0.838
 Vibration    19          0.813              1.351              0.782
 Vibration    20          0.827              1.317              0.738
 Vibration    21          0.865              1.227              0.633
 Vibration    22          0.906              1.138              0.542
 Vibration    23          0.965              1.019              0.439

 Optimization completed.
    -- Stationary point found.
 Normal termination of Gaussian 16 at Sun Feb 11 21:58:11 2024.
