 Gaussian 16, Revision A.03,
 Gaussian 16:  ES64L-G16RevA.03 25-Dec-2016

 ----------------------------------------------------------------------
 #P UB3LYP/6-311++G(d,p) nosym opt freq SCRF=(PCM,Solvent=n,n-DiMethylF
 ormamide)
 ----------------------------------------------------------------------

 -------
 Radical
 -------
 Symbolic Z-matrix:
 Charge = -1 Multiplicity = 2

 SCF Done:  E(UB3LYP) =  -532.243425999     A.U. after   16 cycles
 SCF Done:  E(UB3LYP) =  -532.243679710     A.U. after   14 cycles
 SCF Done:  E(UB3LYP) =  -532.243720430     A.U. after   11 cycles
 SCF Done:  E(UB3LYP) =  -532.243723723     A.U. after   11 cycles
 Optimization completed.
    -- Stationary point found.
 Normal termination of Gaussian 16 at Sat Feb 10 11:26:58 2024.

 ----------------------------------------------------------------------
 #P Geom=AllCheck Guess=TCheck SCRF=Check GenChk UB3LYP/6-311++G(d,p) F
 req
 ----------------------------------------------------------------------

 Structure from the checkpoint file:  "111-rad.chk"
 -------
 Radical
 -------
 Charge = -1 Multiplicity = 2

                          Input orientation:
 ---------------------------------------------------------------------
 Center     Atomic      Atomic             Coordinates (Angstroms)
 Number     Number       Type             X           Y           Z
 ---------------------------------------------------------------------
      1          8           0       -2.702103   -0.178837    0.448111
      2          6           0       -1.368058   -0.034477    0.233646
      3          6           0       -0.747422    1.188991    0.274504
      4          6           0        0.657583    1.280657    0.041478
      5          8           0        1.343663    2.357005    0.053596
      6          6           0        1.368061    0.034472   -0.233666
      7          6           0        0.747426   -1.188990   -0.274522
      8          6           0       -0.657611   -1.280638   -0.041637
      9          8           0       -1.343626   -2.357030   -0.053455
     10          8           0        2.702113    0.178843   -0.448061
     11          1           0       -2.845981   -1.144101    0.356154
     12          1           0       -1.309138    2.092974    0.482047
     13          1           0        1.309149   -2.092995   -0.481952
     14          1           0        2.845945    1.144128   -0.356243
 ---------------------------------------------------------------------

 SCF Done:  E(UB3LYP) =  -532.243723723     A.U. after    1 cycles

 Alpha  occ. eigenvalues --  -19.14920 -19.14920 -19.08611 -19.08611 -10.22884
 Alpha  occ. eigenvalues --  -10.22883 -10.22689 -10.22688 -10.15922 -10.15921
 Alpha  occ. eigenvalues --   -1.06912  -1.06733  -0.99639  -0.99618  -0.82435
 Alpha  occ. eigenvalues --   -0.74143  -0.68362  -0.60971  -0.59968  -0.55258
 Alpha  occ. eigenvalues --   -0.50047  -0.48679  -0.45014  -0.44155  -0.44135
 Alpha  occ. eigenvalues --   -0.41451  -0.40988  -0.40114  -0.37722  -0.36574
 Alpha  occ. eigenvalues --   -0.35344  -0.34946  -0.26952  -0.26303  -0.25632
 Alpha  occ. eigenvalues --   -0.22791  -0.16197
 Alpha virt. eigenvalues --   -0.00066   0.00104   0.01249   0.01694   0.03135
 Alpha virt. eigenvalues --    0.03149   0.05398   0.05781   0.06260   0.07916
 Alpha virt. eigenvalues --    0.08318   0.08462   0.09386   0.11883   0.12044

  Beta  occ. eigenvalues --  -19.14811 -19.14811 -19.08011 -19.08010 -10.22640
  Beta  occ. eigenvalues --  -10.22639 -10.22476 -10.22475 -10.15978 -10.15977
  Beta  occ. eigenvalues --   -1.06587  -1.06422  -0.98619  -0.98576  -0.81862
  Beta  occ. eigenvalues --   -0.73980  -0.67210  -0.60593  -0.59623  -0.55023
  Beta  occ. eigenvalues --   -0.49603  -0.48472  -0.44893  -0.43991  -0.42613
  Beta  occ. eigenvalues --   -0.40891  -0.39714  -0.39563  -0.37506  -0.34676
  Beta  occ. eigenvalues --   -0.34375  -0.33619  -0.25745  -0.25048  -0.24429
  Beta  occ. eigenvalues --   -0.22128
  Beta virt. eigenvalues --   -0.08957  -0.00013   0.01296   0.01420   0.01712
  Beta virt. eigenvalues --    0.03162   0.05450   0.05838   0.05857   0.06433
  Beta virt. eigenvalues --    0.07947   0.08477   0.08500   0.09535   0.11946

 Mulliken charges and spin densities:
               1          2
     1  O   -0.288000   0.032991
     2  C   -0.183358   0.189064
     3  C    0.221158  -0.071872
     4  C   -0.194943   0.139805
     5  O   -0.546173   0.213452
     6  C   -0.183373   0.189052
     7  C    0.221171  -0.071873
     8  C   -0.194938   0.139802
     9  O   -0.546172   0.213457
    10  O   -0.287999   0.032990
    11  H    0.288471  -0.002632
    12  H    0.202843  -0.000802
    13  H    0.202843  -0.000802
    14  H    0.288471  -0.002632
 Sum of Mulliken charges =  -1.00000   1.00000

 Dipole moment (field-independent basis, Debye):
    X=             -0.0002    Y=              0.0001    Z=             -0.0006  Tot=              0.0007
 Quadrupole moment (field-independent basis, Debye-Ang):
   XX=            -74.4565   YY=            -85.3531   ZZ=            -61.5226
   XY=             -9.2510   XZ=              1.1794   YZ=             -1.3442

  Exact polarizability: 166.628  45.662 184.447 -11.612   6.261  70.574
 Approx polarizability: 190.174  60.065 212.020 -12.654   6.198  78.285

                      1                      2                      3
                      A                      A                      A
 Frequencies --    121.8789               183.1141               251.8533
 Red. masses --     13.8148                 7.7357                 6.6704
 Frc consts  --      0.1209                 0.1528                 0.2493
 IR Inten    --      6.5184                 1.8939                 0.0000

                      4                      5                      6
                      A                      A                      A
 Frequencies --    306.4776               315.3030               395.4766
 Red. masses --      5.8961                 5.1300                12.6465
 Frc consts  --      0.3263                 0.3005                 1.1654
 IR Inten    --      0.0000                81.1922                16.5023

                      7                      8                      9
                      A                      A                      A
 Frequencies --    418.4117               428.3424               432.6542
 Red. masses --     10.4201                 2.8454                 9.8093
 Frc consts  --      1.0748                 0.3076                 1.0819
 IR Inten    --      0.0000                 3.7298                 0.0000

                     10                     11                     12
                      A                      A                      A
 Frequencies --    505.2379               649.0565               649.8558
 Red. masses --     11.0507                 1.1168                 1.0775
 Frc consts  --      1.6620                 0.2772                 0.2681
 IR Inten    --      0.0000               298.8913                 0.1310

                     13                     14                     15
                      A                      A                      A
 Frequencies --    675.6413               699.3980               722.3825
 Red. masses --      4.0972                 5.0444                 8.0322
 Frc consts  --      1.1020                 1.4538                 2.4696
 IR Inten    --      0.0001                 0.0000                 6.6907

                     16                     17                     18
                      A                      A                      A
 Frequencies --    728.1315               734.0802               795.8708
 Red. masses --      7.9788                 8.7547                 1.3430
 Frc consts  --      2.4924                 2.7796                 0.5012
 IR Inten    --      0.0000                55.2749                 0.0000

                     19                     20                     21
                      A                      A                      A
 Frequencies --    834.7361               864.0668              1185.5414
 Red. masses --      1.4567                 2.6765                 2.2245
 Frc consts  --      0.5980                 1.1774                 1.8421
 IR Inten    --    111.5352               131.2005                 0.0015

                     22                     23                     24
                      A                      A                      A
 Frequencies --   1186.6612              1201.2415              1202.9437
 Red. masses --      4.1161                 1.4567                 2.2040
 Frc consts  --      3.4150                 1.2384                 1.8792
 IR Inten    --    524.5740               565.1338                 0.0019

                     25                     26                     27
                      A                      A                      A
 Frequencies --   1231.0604              1287.3155              1407.0953
 Red. masses --     10.8178                 1.6569                 1.8730
 Frc consts  --      9.6593                 1.6177                 2.1849
 IR Inten    --    109.9971                 0.0000               743.2103

                     28                     29                     30
                      A                      A                      A
 Frequencies --   1456.1223              1501.0634              1537.8256
 Red. masses --      7.0842                 8.9363                 4.5883
 Frc consts  --      8.8498                11.8633                 6.3932
 IR Inten    --      0.0000              1465.3530                 0.0000

                     31                     32                     33
                      A                      A                      A
 Frequencies --   1563.0728              1653.5540              3175.0371
 Red. masses --      4.2924                 6.3019                 1.0910
 Frc consts  --      6.1788                10.1522                 6.4798
 IR Inten    --    397.0928                 0.0000                28.1007

                     34                     35                     36
                      A                      A                      A
 Frequencies --   3176.9905              3531.0177              3531.5369
 Red. masses --      1.0911                 1.0639                 1.0639
 Frc consts  --      6.4888                 7.8154                 7.8178
 IR Inten    --      0.0000                 0.3084               407.4242

 - Thermochemistry -
 -------------------
 Temperature   298.150 Kelvin.  Pressure   1.00000 Atm.
 Atom     1 has atomic number  8 and mass  15.99491

 Molecular mass:   140.01096 amu.
 Principal axes and moments of inertia in atomic units:
                           1         2         3
     Eigenvalues --   705.078831629.460602334.53940
           X            0.85239  -0.49447   0.17007
           Y            0.51588   0.84834  -0.11910
           Z           -0.08538   0.18926   0.97821
 This molecule is an asymmetric top.
 Rotational symmetry number  1.
 Warning -- assumption of classical behavior for rotation
           may cause significant error
 Rotational temperatures (Kelvin)      0.12284     0.05315     0.03710
 Rotational constants (GHZ):           2.55963     1.10757     0.77306
 Zero-point vibrational energy     242483.3 (Joules/Mol)
                                   57.95491 (Kcal/Mol)
 Warning -- explicit consideration of  10 degrees of freedom as
           vibrations may cause significant error
 Vibrational temperatures:    175.36   263.46   362.36   440.95   453.65
          (Kelvin)            569.00   602.00   616.29   622.49   726.92
                              933.85   935.00   972.10  1006.28  1039.35
                             1047.62  1056.18  1145.08  1201.00  1243.20
                             1705.73  1707.34  1728.32  1730.77  1771.22
                             1852.16  2024.50  2095.04  2159.70  2212.59
                             2248.91  2379.10  4568.17  4570.98  5080.35
                             5081.09

 Zero-point correction=                           0.092357 (Hartree/Particle)
 Thermal correction to Energy=                    0.100301
 Thermal correction to Enthalpy=                  0.101245
 Thermal correction to Gibbs Free Energy=         0.059160
 Sum of electronic and zero-point Energies=           -532.151367
 Sum of electronic and thermal Energies=              -532.143423
 Sum of electronic and thermal Enthalpies=            -532.142479
 Sum of electronic and thermal Free Energies=         -532.184564

                     E (Thermal)             CV                S
                      KCal/Mol        Cal/Mol-Kelvin    Cal/Mol-Kelvin
 Total                   62.940             31.084             88.575
 Electronic               0.000              0.000              1.377
 Translational            0.889              2.981             40.721
 Rotational               0.889              2.981             29.374
 Vibrational             61.162             25.122             17.102
 Vibration     1          0.609              1.931              3.070
 Vibration     2          0.631              1.863              2.296
 Vibration     3          0.664              1.760              1.718
 Vibration     4          0.697              1.661              1.381
 Vibration     5          0.703              1.644              1.334
 Vibration     6          0.762              1.480              0.979
 Vibration     7          0.781              1.430              0.897
 Vibration     8          0.790              1.409              0.864
 Vibration     9          0.794              1.399              0.850
 Vibration    10          0.860              1.238              0.645

 Optimization completed.
    -- Stationary point found.
 Normal termination of Gaussian 16 at Sat Feb 10 11:30:47 2024.
