 Gaussian 16, Revision A.03,
 Gaussian 16:  ES64L-G16RevA.03 25-Dec-2016

 ----------------------------------------------------------------------
 #P UB3LYP/6-311++G(d,p) nosym opt freq SCRF=(PCM,Solvent=n,n-DiMethylF
 ormamide)
 ----------------------------------------------------------------------

 --------
 Oxidized
 --------
 Symbolic Z-matrix:
 Charge =  0 Multiplicity = 1

 SCF Done:  E(UB3LYP) =  -649.858115493     A.U. after   15 cycles
 SCF Done:  E(UB3LYP) =  -649.858190004     A.U. after   11 cycles
 SCF Done:  E(UB3LYP) =  -649.858198448     A.U. after   11 cycles
 SCF Done:  E(UB3LYP) =  -649.858198926     A.U. after   10 cycles
 SCF Done:  E(UB3LYP) =  -649.858199288     A.U. after    9 cycles
 Optimization completed.
    -- Stationary point found.
 Normal termination of Gaussian 16 at Sun Feb 11 00:33:45 2024.

 ----------------------------------------------------------------------
 #P Geom=AllCheck Guess=TCheck SCRF=Check GenChk UB3LYP/6-311++G(d,p) F
 req
 ----------------------------------------------------------------------

 Structure from the checkpoint file:  "281.chk"
 --------
 Oxidized
 --------
 Charge =  0 Multiplicity = 1

                          Input orientation:
 ---------------------------------------------------------------------
 Center     Atomic      Atomic             Coordinates (Angstroms)
 Number     Number       Type             X           Y           Z
 ---------------------------------------------------------------------
      1          6           0        3.308247   -0.259009   -0.117662
      2          6           0        1.821633   -0.448709   -0.157786
      3          6           0        0.965620    0.725340    0.091646
      4          8           0        1.467756    1.821480    0.324114
      5          6           0       -0.524947    0.568326    0.057451
      6          6           0       -1.344323    1.671224    0.290468
      7          6           0       -2.731915    1.532343    0.259947
      8          6           0       -3.310511    0.290082   -0.003777
      9          6           0       -2.500678   -0.818176   -0.237962
     10          6           0       -1.110917   -0.681828   -0.207935
     11          6           0       -0.242179   -1.844815   -0.454047
     12          8           0       -0.655852   -2.974947   -0.693127
     13          6           0        1.237149   -1.644951   -0.411471
     14          8           0        1.947308   -2.759442   -0.647532
     15          1           0        3.829656   -1.193723   -0.316017
     16          1           0        3.620336    0.119159    0.859857
     17          1           0        3.620003    0.483336   -0.857711
     18          1           0       -0.887900    2.631435    0.494153
     19          1           0       -3.362362    2.394676    0.442095
     20          1           0       -4.388666    0.186554   -0.026739
     21          1           0       -2.933198   -1.789167   -0.444241
     22          1           0        1.301101   -3.474860   -0.800346
 ---------------------------------------------------------------------

 SCF Done:  E(UB3LYP) =  -649.858199288     A.U. after    1 cycles

 Alpha  occ. eigenvalues --  -19.18090 -19.15169 -19.13066 -10.29601 -10.28223
 Alpha  occ. eigenvalues --  -10.27010 -10.21358 -10.21241 -10.20863 -10.20411
 Alpha  occ. eigenvalues --  -10.20219 -10.20047 -10.20036 -10.17561  -1.11064
 Alpha  occ. eigenvalues --   -1.06922  -1.06191  -0.89532  -0.84402  -0.78963
 Alpha  occ. eigenvalues --   -0.78260  -0.72800  -0.68795  -0.65774  -0.62762
 Alpha  occ. eigenvalues --   -0.60757  -0.57687  -0.54563  -0.52139  -0.49876
 Alpha  occ. eigenvalues --   -0.48032  -0.47642  -0.46927  -0.45568  -0.45073
 Alpha  occ. eigenvalues --   -0.43455  -0.42674  -0.41943  -0.40645  -0.39800
 Alpha  occ. eigenvalues --   -0.39658  -0.37924  -0.37828  -0.37270  -0.30574
 Alpha  occ. eigenvalues --   -0.29258  -0.28266  -0.28191  -0.26052
 Alpha virt. eigenvalues --   -0.12817  -0.05893  -0.02753  -0.01082   0.00168
 Alpha virt. eigenvalues --    0.00921   0.02121   0.02153   0.02540   0.03518
 Alpha virt. eigenvalues --    0.04111   0.04882   0.05110   0.05341   0.06500

  Beta  occ. eigenvalues --  -19.18090 -19.15169 -19.13066 -10.29601 -10.28223
  Beta  occ. eigenvalues --  -10.27010 -10.21358 -10.21241 -10.20863 -10.20411
  Beta  occ. eigenvalues --  -10.20219 -10.20047 -10.20036 -10.17561  -1.11064
  Beta  occ. eigenvalues --   -1.06922  -1.06191  -0.89532  -0.84402  -0.78963
  Beta  occ. eigenvalues --   -0.78260  -0.72800  -0.68795  -0.65774  -0.62762
  Beta  occ. eigenvalues --   -0.60757  -0.57687  -0.54563  -0.52139  -0.49876
  Beta  occ. eigenvalues --   -0.48032  -0.47642  -0.46927  -0.45568  -0.45073
  Beta  occ. eigenvalues --   -0.43455  -0.42674  -0.41943  -0.40645  -0.39800
  Beta  occ. eigenvalues --   -0.39658  -0.37924  -0.37828  -0.37270  -0.30574
  Beta  occ. eigenvalues --   -0.29258  -0.28266  -0.28191  -0.26052
  Beta virt. eigenvalues --   -0.12817  -0.05893  -0.02753  -0.01082   0.00168
  Beta virt. eigenvalues --    0.00921   0.02121   0.02153   0.02540   0.03518
  Beta virt. eigenvalues --    0.04111   0.04882   0.05110   0.05341   0.06500

 Mulliken charges and spin densities:
               1          2
     1  C   -0.222906   0.000000
     2  C    1.311406  -0.000000
     3  C   -0.652381   0.000000
     4  O   -0.291134  -0.000000
     5  C    0.424635  -0.000000
     6  C    0.120427  -0.000000
     7  C   -0.451900  -0.000000
     8  C   -0.357787   0.000000
     9  C    0.021052   0.000000
    10  C    0.894901  -0.000000
    11  C   -1.034762  -0.000000
    12  O   -0.310641   0.000000
    13  C   -0.891747   0.000000
    14  O   -0.236175  -0.000000
    15  H    0.192261  -0.000000
    16  H    0.184961   0.000000
    17  H    0.185053   0.000000
    18  H    0.193958   0.000000
    19  H    0.207340  -0.000000
    20  H    0.213354   0.000000
    21  H    0.191760  -0.000000
    22  H    0.308325  -0.000000
 Sum of Mulliken charges =  -0.00000  -0.00000

 Dipole moment (field-independent basis, Debye):
    X=             -3.2046    Y=             -0.1797    Z=             -0.0455  Tot=              3.2099
 Quadrupole moment (field-independent basis, Debye-Ang):
   XX=            -70.5695   YY=            -86.8379   ZZ=            -81.9421
   XY=             -8.3829   XZ=             -1.5682   YZ=             -1.0679

  Exact polarizability: 241.113   4.529 250.578   1.022  32.932 102.078
 Approx polarizability: 267.158  23.870 331.830   5.144  46.627 121.704

                      1                      2                      3
                      A                      A                      A
 Frequencies --     55.6410                63.1313               104.5264
 Red. masses --      1.7155                 2.0449                 3.6512
 Frc consts  --      0.0031                 0.0048                 0.0235
 IR Inten    --      4.0844                 5.0376                 0.2642

                      4                      5                      6
                      A                      A                      A
 Frequencies --    121.7844               169.0947               249.3692
 Red. masses --      5.7042                 6.2692                 4.1905
 Frc consts  --      0.0498                 0.1056                 0.1535
 IR Inten    --      0.1315                 1.0620                 0.5620

                      7                      8                      9
                      A                      A                      A
 Frequencies --    286.1954               295.6371               334.3192
 Red. masses --      4.4767                 3.5732                 5.4045
 Frc consts  --      0.2160                 0.1840                 0.3559
 IR Inten    --      0.0292                 5.6911                17.5299

                     10                     11                     12
                      A                      A                      A
 Frequencies --    385.3538               413.9961               417.7297
 Red. masses --      9.6699                 8.9151                 3.4076
 Frc consts  --      0.8460                 0.9003                 0.3503
 IR Inten    --     24.8444                34.1781                 0.0414

                     13                     14                     15
                      A                      A                      A
 Frequencies --    422.1231               442.9837               511.4551
 Red. masses --      7.9828                 4.9110                 9.9717
 Frc consts  --      0.8381                 0.5678                 1.5369
 IR Inten    --     16.9179                 6.0170                 0.3275

                     16                     17                     18
                      A                      A                      A
 Frequencies --    540.6069               595.4135               629.5606
 Red. masses --      4.8262                 1.0945                 7.0434
 Frc consts  --      0.8310                 0.2286                 1.6448
 IR Inten    --     29.5659               122.7817                 1.0040

                     19                     20                     21
                      A                      A                      A
 Frequencies --    672.1730               693.0812               714.2257
 Red. masses --      6.5643                 4.2252                 5.6596
 Frc consts  --      1.7474                 1.1958                 1.7010
 IR Inten    --      8.5577                19.8523                 5.0817

                     22                     23                     24
                      A                      A                      A
 Frequencies --    732.4802               751.2774               804.0993
 Red. masses --      2.5338                 7.0203                 1.8573
 Frc consts  --      0.8010                 2.3346                 0.7075
 IR Inten    --    102.7038                 0.6667                21.5243

                     25                     26                     27
                      A                      A                      A
 Frequencies --    842.7800               909.2338               945.1601
 Red. masses --      3.4869                 1.3290                 5.4655
 Frc consts  --      1.4592                 0.6473                 2.8767
 IR Inten    --     24.5750                 0.0487                75.0554

                     28                     29                     30
                      A                      A                      A
 Frequencies --    996.8043               998.8345              1021.7014
 Red. masses --      1.3839                 3.0805                 1.3326
 Frc consts  --      0.8102                 1.8107                 0.8196
 IR Inten    --      1.7501                32.1054                 0.0862

                     31                     32                     33
                      A                      A                      A
 Frequencies --   1045.4630              1049.4244              1087.7529
 Red. masses --      1.4883                 2.3089                 2.1807
 Frc consts  --      0.9584                 1.4981                 1.5202
 IR Inten    --      0.2208                26.8002               172.5161

                     34                     35                     36
                      A                      A                      A
 Frequencies --   1112.8328              1179.8126              1195.7359
 Red. masses --      2.1020                 1.1753                 2.4292
 Frc consts  --      1.5337                 0.9639                 2.0463
 IR Inten    --     12.2969                43.7878                87.1785

                     37                     38                     39
                      A                      A                      A
 Frequencies --   1227.7977              1282.5113              1301.4268
 Red. masses --      2.9126                 2.0653                 1.8646
 Frc consts  --      2.5869                 2.0015                 1.8607
 IR Inten    --    207.3698               164.9309               374.9564

                     40                     41                     42
                      A                      A                      A
 Frequencies --   1324.9120              1366.2498              1373.4590
 Red. masses --      6.5938                 6.0359                 2.4642
 Frc consts  --      6.8196                 6.6383                 2.7387
 IR Inten    --    214.5157               214.9929               452.4845

                     43                     44                     45
                      A                      A                      A
 Frequencies --   1408.6161              1467.5660              1470.8543
 Red. masses --      1.3648                 1.0428                 1.0749
 Frc consts  --      1.5955                 1.3232                 1.3701
 IR Inten    --    118.4067                14.6081                14.1385

                     46                     47                     48
                      A                      A                      A
 Frequencies --   1484.2238              1505.4014              1610.6419
 Red. masses --      2.3490                 2.6838                 6.5984
 Frc consts  --      3.0488                 3.5835                10.0853
 IR Inten    --      5.6501                 6.9974                32.7317

                     49                     50                     51
                      A                      A                      A
 Frequencies --   1619.2282              1674.2540              1687.6958
 Red. masses --      6.0417                10.7530                11.9822
 Frc consts  --      9.3331                17.7592                20.1083
 IR Inten    --    308.7153               640.3923               353.6989

                     52                     53                     54
                      A                      A                      A
 Frequencies --   1695.8594              3036.7434              3082.8756
 Red. masses --      7.1849                 1.0385                 1.0996
 Frc consts  --     12.1745                 5.6427                 6.1576
 IR Inten    --    151.0369                19.1553                15.8448

                     55                     56                     57
                      A                      A                      A
 Frequencies --   3140.1774              3180.4821              3192.2477
 Red. masses --      1.0995                 1.0875                 1.0910
 Frc consts  --      6.3880                 6.4815                 6.5505
 IR Inten    --     10.3330                 3.0777                 8.1057

                     58                     59                     60
                      A                      A                      A
 Frequencies --   3202.9609              3206.5546              3618.6488
 Red. masses --      1.0932                 1.0957                 1.0646
 Frc consts  --      6.6075                 6.6379                 8.2133
 IR Inten    --      4.1757                14.9317               274.3440

 - Thermochemistry -
 -------------------
 Temperature   298.150 Kelvin.  Pressure   1.00000 Atm.
 Atom     1 has atomic number  6 and mass  12.00000

 Molecular mass:   188.04734 amu.
 Principal axes and moments of inertia in atomic units:
                           1         2         3
     Eigenvalues --  1608.058372772.926644369.89008
           X            0.91548   0.40237  -0.00041
           Y           -0.39370   0.89555  -0.20733
           Z           -0.08306   0.18997   0.97827
 This molecule is an asymmetric top.
 Rotational symmetry number  1.
 Warning -- assumption of classical behavior for rotation
           may cause significant error
 Rotational temperatures (Kelvin)      0.05386     0.03124     0.01982
 Rotational constants (GHZ):           1.12231     0.65084     0.41299
 Zero-point vibrational energy     430375.6 (Joules/Mol)
                                  102.86224 (Kcal/Mol)
 Warning -- explicit consideration of  17 degrees of freedom as
           vibrations may cause significant error
 Vibrational temperatures:     80.05    90.83   150.39   175.22   243.29
          (Kelvin)            358.79   411.77   425.36   481.01   554.44
                              595.65   601.02   607.34   637.35   735.87
                              777.81   856.67   905.80   967.11   997.19
                             1027.61  1053.88  1080.92  1156.92  1212.57
                             1308.18  1359.87  1434.18  1437.10  1470.00
                             1504.19  1509.89  1565.03  1601.12  1697.49
                             1720.40  1766.53  1845.25  1872.46  1906.25
                             1965.73  1976.10  2026.68  2111.50  2116.23
                             2135.47  2165.94  2317.35  2329.71  2408.88
                             2428.22  2439.96  4369.20  4435.57  4518.01
                             4576.00  4592.93  4608.35  4613.52  5206.43

 Zero-point correction=                           0.163921 (Hartree/Particle)
 Thermal correction to Energy=                    0.175477
 Thermal correction to Enthalpy=                  0.176422
 Thermal correction to Gibbs Free Energy=         0.125922
 Sum of electronic and zero-point Energies=           -649.694278
 Sum of electronic and thermal Energies=              -649.682722
 Sum of electronic and thermal Enthalpies=            -649.681778
 Sum of electronic and thermal Free Energies=         -649.732277

                     E (Thermal)             CV                S
                      KCal/Mol        Cal/Mol-Kelvin    Cal/Mol-Kelvin
 Total                  110.114             44.428            106.285
 Electronic               0.000              0.000              0.000
 Translational            0.889              2.981             41.600
 Rotational               0.889              2.981             31.344
 Vibrational            108.336             38.467             33.340
 Vibration     1          0.596              1.975              4.606
 Vibration     2          0.597              1.972              4.357
 Vibration     3          0.605              1.946              3.368
 Vibration     4          0.609              1.931              3.072
 Vibration     5          0.625              1.881              2.446
 Vibration     6          0.662              1.764              1.735
 Vibration     7          0.684              1.699              1.496
 Vibration     8          0.690              1.682              1.441
 Vibration     9          0.716              1.607              1.239
 Vibration    10          0.754              1.501              1.018
 Vibration    11          0.778              1.440              0.913
 Vibration    12          0.781              1.432              0.900
 Vibration    13          0.784              1.422              0.885
 Vibration    14          0.803              1.376              0.817
 Vibration    15          0.867              1.225              0.630
 Vibration    16          0.896              1.160              0.564
 Vibration    17          0.953              1.042              0.458

                           ! Non-Optimized Parameters !
 Normal termination of Gaussian 16 at Sun Feb 11 00:57:20 2024.
