 Gaussian 16, Revision A.03,
 Gaussian 16:  ES64L-G16RevA.03 25-Dec-2016

 ----------------------------------------------------------------
 #P UB3LYP/6-311++G(d,p) SCRF=(PCM,Solvent=n,n-DiMethylFormamide)
 ----------------------------------------------------------------

 ------------------
 Radical PCM in DMF
 ------------------
 Symbolic Z-matrix:
 Charge = -1 Multiplicity = 2

                         Standard orientation:
 ---------------------------------------------------------------------
 Center     Atomic      Atomic             Coordinates (Angstroms)
 Number     Number       Type             X           Y           Z
 ---------------------------------------------------------------------
      1          6           0       -1.457796    2.220865   -0.039629
      2          6           0       -0.679915    3.440906   -0.021697
      3          6           0        0.680359    3.440859    0.022042
      4          6           0        1.458201    2.220775    0.039574
      5          6           0        0.698106    0.965291   -0.000536
      6          6           0       -0.697739    0.965349    0.000249
      7          8           0       -2.718472    2.257636   -0.070161
      8          8           0        2.718881    2.257515    0.069953
      9          1           0        1.248767    4.366533    0.038724
     10          6           0       -2.560611   -0.550212   -0.769766
     11          6           0       -1.244247   -1.221897    1.123782
     12          6           0       -3.315371   -1.715119   -0.656385
     13          6           0       -3.041664   -2.640935    0.351020
     14          6           0       -2.003134   -2.383669    1.245215
     15          1           0       -1.248264    4.366620   -0.038076
     16          1           0       -2.796988    0.174630   -1.537195
     17          1           0       -0.440602   -1.031504    1.825238
     18          1           0       -4.127789   -1.896549   -1.353611
     19          1           0       -3.633697   -3.546241    0.441684
     20          1           0       -1.782015   -3.088362    2.040909
     21          6           0        1.497390   -0.286695   -0.108958
     22          6           0        2.560896   -0.550479    0.769392
     23          6           0        1.243971   -1.222334   -1.123701
     24          6           0        3.315151   -1.715745    0.656325
     25          6           0        2.002391   -2.384440   -1.244844
     26          6           0        3.040916   -2.641826   -0.350694
     27          1           0        2.797714    0.174562    1.536497
     28          1           0        0.440299   -1.031947   -1.825113
     29          1           0        4.127591   -1.897261    1.353504
     30          1           0        1.780858   -3.089320   -2.040257
     31          1           0        3.632533   -3.547433   -0.441088
     32          6           0       -1.497186   -0.286518    0.108685
 ---------------------------------------------------------------------

 SCF Done:  E(UB3LYP) =  -843.939091981     A.U. after   20 cycles

 The electronic state is 2-A.
 Alpha  occ. eigenvalues --  -19.07626 -19.07625 -10.22145 -10.22144 -10.18158
 Alpha  occ. eigenvalues --  -10.18157 -10.17805 -10.17751 -10.17304 -10.17303
 Alpha  occ. eigenvalues --  -10.17239 -10.17239 -10.17200 -10.17200 -10.17098
 Alpha  occ. eigenvalues --  -10.17098 -10.16939 -10.16939 -10.16363 -10.16295
 Alpha  occ. eigenvalues --   -1.00139  -0.99891  -0.86507  -0.85472  -0.82347
 Alpha  occ. eigenvalues --   -0.77795  -0.75746  -0.74511  -0.74455  -0.71393
 Alpha  occ. eigenvalues --   -0.67871  -0.62803  -0.60958  -0.60273  -0.60090
 Alpha  occ. eigenvalues --   -0.57026  -0.55665  -0.51215  -0.51109  -0.48160
 Alpha  occ. eigenvalues --   -0.47116  -0.46078  -0.45503  -0.44698  -0.44084
 Alpha  occ. eigenvalues --   -0.43256  -0.42006  -0.41863  -0.41581  -0.40492
 Alpha  occ. eigenvalues --   -0.40240  -0.38806  -0.37555  -0.37479  -0.36714
 Alpha  occ. eigenvalues --   -0.36506  -0.34682  -0.34314  -0.34203  -0.34108
 Alpha  occ. eigenvalues --   -0.28553  -0.27301  -0.26695  -0.25542  -0.25426
 Alpha  occ. eigenvalues --   -0.24032  -0.23466  -0.22372  -0.16102
 Alpha virt. eigenvalues --   -0.03815  -0.01690  -0.01550  -0.00531  -0.00387
 Alpha virt. eigenvalues --    0.00655   0.00674   0.01375   0.01564   0.02223
 Alpha virt. eigenvalues --    0.02516   0.02717   0.02793   0.04119   0.04207

  Beta  occ. eigenvalues --  -19.06937 -19.06936 -10.22015 -10.22014 -10.18172
  Beta  occ. eigenvalues --  -10.18171 -10.17687 -10.17632 -10.17296 -10.17296
  Beta  occ. eigenvalues --  -10.17242 -10.17242 -10.17203 -10.17203 -10.17083
  Beta  occ. eigenvalues --  -10.17083 -10.16926 -10.16925 -10.16260 -10.16190
  Beta  occ. eigenvalues --   -0.98951  -0.98671  -0.86406  -0.85447  -0.81877
  Beta  occ. eigenvalues --   -0.77570  -0.75638  -0.74496  -0.74440  -0.71232
  Beta  occ. eigenvalues --   -0.66956  -0.62513  -0.60855  -0.60249  -0.60041
  Beta  occ. eigenvalues --   -0.56830  -0.55407  -0.51107  -0.51024  -0.47975
  Beta  occ. eigenvalues --   -0.46824  -0.45966  -0.45380  -0.44623  -0.43953
  Beta  occ. eigenvalues --   -0.43037  -0.41935  -0.41845  -0.41518  -0.39819
  Beta  occ. eigenvalues --   -0.38673  -0.38431  -0.37323  -0.36781  -0.36372
  Beta  occ. eigenvalues --   -0.35013  -0.34238  -0.34171  -0.34072  -0.34001
  Beta  occ. eigenvalues --   -0.27308  -0.26562  -0.25422  -0.25366  -0.24984
  Beta  occ. eigenvalues --   -0.23459  -0.22888  -0.21778
  Beta virt. eigenvalues --   -0.09104  -0.03088  -0.01527  -0.01478  -0.00472
  Beta virt. eigenvalues --   -0.00374   0.00661   0.00734   0.01407   0.02173
  Beta virt. eigenvalues --    0.02366   0.02547   0.02772   0.03510   0.04132

 Mulliken charges and spin densities:
               1          2
     1  C   -0.708500   0.092685
     2  C   -0.112442   0.078440
     3  C   -0.112162   0.078464
     4  C   -0.708794   0.092648
     5  C    0.033053   0.068405
     6  C    0.033268   0.068421
     7  O   -0.447996   0.247169
     8  O   -0.448019   0.247163
     9  H    0.188912  -0.007229
    10  C   -0.050154   0.025955
    11  C   -0.505028   0.008996
    12  C   -0.304513  -0.002638
    13  C   -0.373477   0.009300
    14  C   -0.468391  -0.004377
    15  H    0.188910  -0.007227
    16  H    0.217701  -0.001712
    17  H    0.201202  -0.001035
    18  H    0.191557   0.000333
    19  H    0.177147  -0.000670
    20  H    0.192072   0.000385
    21  C    1.268807  -0.014013
    22  C   -0.050284   0.025966
    23  C   -0.505000   0.008986
    24  C   -0.304715  -0.002644
    25  C   -0.468172  -0.004381
    26  C   -0.373608   0.009310
    27  H    0.217710  -0.001712
    28  H    0.201201  -0.001036
    29  H    0.191552   0.000332
    30  H    0.192072   0.000385
    31  H    0.177145  -0.000670
    32  C    1.268949  -0.014000
 Sum of Mulliken charges =  -1.00000   1.00000

 Dipole moment (field-independent basis, Debye):
    X=             -0.0011    Y=             -9.4828    Z=              0.0008  Tot=              9.4828
 Quadrupole moment (field-independent basis, Debye-Ang):
   XX=           -157.8993   YY=           -136.2491   ZZ=           -116.9723
   XY=              0.0003   XZ=              5.9268   YZ=              0.0009

 Normal termination of Gaussian 16 at Wed Jan 24 22:54:07 2024.
