 Gaussian 16, Revision A.03,
 Gaussian 16:  ES64L-G16RevA.03 25-Dec-2016

 --------------------------------------
 #P UB3LYP/6-311++G(d,p) nosym opt freq
 --------------------------------------

 --------
 Oxidized
 --------
 Symbolic Z-matrix:
 Charge =  0 Multiplicity = 1

 SCF Done:  E(UB3LYP) =  -3108.77267646     A.U. after   17 cycles
 SCF Done:  E(UB3LYP) =  -3108.78461571     A.U. after   14 cycles
 SCF Done:  E(UB3LYP) =  -3108.78621619     A.U. after   14 cycles
 SCF Done:  E(UB3LYP) =  -3108.78634138     A.U. after   12 cycles
 SCF Done:  E(UB3LYP) =  -3108.78635438     A.U. after   11 cycles
 Optimization completed.
    -- Stationary point found.
 Normal termination of Gaussian 16 at Sat Jan  6 01:43:56 2024.

 ----------------------------------------------------------------------
 #P Geom=AllCheck Guess=TCheck SCRF=Check GenChk UB3LYP/6-311++G(d,p) F
 req
 ----------------------------------------------------------------------

 Structure from the checkpoint file:  "321.chk"
 --------
 Oxidized
 --------
 Charge =  0 Multiplicity = 1

                          Input orientation:
 ---------------------------------------------------------------------
 Center     Atomic      Atomic             Coordinates (Angstroms)
 Number     Number       Type             X           Y           Z
 ---------------------------------------------------------------------
      1         35           0        3.733507   -2.210541    0.622085
      2          6           0        2.267529   -1.042599    0.285548
      3          6           0        0.997599   -1.490331    0.313236
      4          6           0       -0.159444   -0.637204    0.062575
      5          6           0       -1.451730   -1.172646    0.108120
      6          6           0       -2.560624   -0.362636   -0.130495
      7          6           0       -2.394731    0.991808   -0.417564
      8          6           0       -1.113718    1.537105   -0.465864
      9          6           0        0.001253    0.733510   -0.228354
     10          6           0        1.364425    1.320034   -0.281287
     11          8           0        1.580040    2.483313   -0.523825
     12          6           0        2.587126    0.372660   -0.006407
     13          8           0        3.704170    0.824225   -0.043544
     14          1           0        0.803046   -2.534773    0.530959
     15          1           0       -1.586652   -2.225298    0.330935
     16          1           0       -3.555308   -0.791663   -0.091740
     17          1           0       -3.258872    1.618779   -0.602572
     18          1           0       -0.957616    2.586257   -0.686705
 ---------------------------------------------------------------------

 SCF Done:  E(UB3LYP) =  -3108.78635438     A.U. after    1 cycles

 Alpha  occ. eigenvalues -- -482.84501 -62.49771 -56.31819 -56.31423 -56.31394
 Alpha  occ. eigenvalues --  -19.14842 -19.14762 -10.29171 -10.29151 -10.25977
 Alpha  occ. eigenvalues --  -10.23498 -10.23309 -10.22002 -10.21849 -10.21790
 Alpha  occ. eigenvalues --  -10.21581 -10.21362  -8.70736  -6.53915  -6.52591
 Alpha  occ. eigenvalues --   -6.52508  -2.65002  -2.64635  -2.64573  -2.63519
 Alpha  occ. eigenvalues --   -2.63519  -1.09334  -1.06719  -0.91442  -0.86951
 Alpha  occ. eigenvalues --   -0.81397  -0.80073  -0.75603  -0.72421  -0.65331
 Alpha  occ. eigenvalues --   -0.64106  -0.61724  -0.56292  -0.53308  -0.52524
 Alpha  occ. eigenvalues --   -0.48999  -0.47815  -0.46933  -0.46775  -0.46469
 Alpha  occ. eigenvalues --   -0.45293  -0.42364  -0.41751  -0.40452  -0.39818
 Alpha  occ. eigenvalues --   -0.38529  -0.35960  -0.32165  -0.31727  -0.30314
 Alpha  occ. eigenvalues --   -0.29657  -0.26992  -0.26132
 Alpha virt. eigenvalues --   -0.14091  -0.07194  -0.03648  -0.02887  -0.01933
 Alpha virt. eigenvalues --   -0.01046  -0.00453   0.00546   0.02109   0.02397
 Alpha virt. eigenvalues --    0.03776   0.04103   0.05116   0.05249   0.05837

  Beta  occ. eigenvalues -- -482.84501 -62.49771 -56.31819 -56.31423 -56.31394
  Beta  occ. eigenvalues --  -19.14842 -19.14762 -10.29171 -10.29151 -10.25977
  Beta  occ. eigenvalues --  -10.23498 -10.23309 -10.22002 -10.21849 -10.21790
  Beta  occ. eigenvalues --  -10.21581 -10.21362  -8.70736  -6.53915  -6.52591
  Beta  occ. eigenvalues --   -6.52508  -2.65002  -2.64635  -2.64573  -2.63519
  Beta  occ. eigenvalues --   -2.63519  -1.09334  -1.06719  -0.91442  -0.86951
  Beta  occ. eigenvalues --   -0.81397  -0.80073  -0.75603  -0.72421  -0.65331
  Beta  occ. eigenvalues --   -0.64106  -0.61724  -0.56292  -0.53308  -0.52524
  Beta  occ. eigenvalues --   -0.48999  -0.47815  -0.46933  -0.46775  -0.46469
  Beta  occ. eigenvalues --   -0.45293  -0.42364  -0.41751  -0.40452  -0.39818
  Beta  occ. eigenvalues --   -0.38529  -0.35960  -0.32165  -0.31727  -0.30314
  Beta  occ. eigenvalues --   -0.29657  -0.26992  -0.26132
  Beta virt. eigenvalues --   -0.14091  -0.07194  -0.03648  -0.02887  -0.01933
  Beta virt. eigenvalues --   -0.01046  -0.00453   0.00546   0.02109   0.02397
  Beta virt. eigenvalues --    0.03776   0.04103   0.05116   0.05249   0.05837

 Mulliken charges and spin densities:
               1          2
     1  Br  -0.093049   0.000000
     2  C    0.775931  -0.000000
     3  C   -0.338675   0.000000
     4  C   -0.486904   0.000000
     5  C   -0.042930   0.000000
     6  C   -0.288210   0.000000
     7  C   -0.267873  -0.000000
     8  C    0.256702  -0.000000
     9  C    0.739931   0.000000
    10  C   -0.390568   0.000000
    11  O   -0.187486  -0.000000
    12  C   -0.426715   0.000000
    13  O   -0.153062  -0.000000
    14  H    0.212449  -0.000000
    15  H    0.142650   0.000000
    16  H    0.182822  -0.000000
    17  H    0.183881  -0.000000
    18  H    0.181105  -0.000000
 Sum of Mulliken charges =  -0.00000   0.00000

 Dipole moment (field-independent basis, Debye):
    X=             -6.0687    Y=             -2.9260    Z=              0.3045  Tot=              6.7442
 Quadrupole moment (field-independent basis, Debye-Ang):
   XX=            -96.0654   YY=            -88.0822   ZZ=            -87.6996
   XY=             -7.3516   XZ=              1.5649   YZ=             -0.1451

  Exact polarizability: 222.207 -15.493 148.273  11.756 -17.759  75.544
 Approx polarizability: 367.165   2.190 249.888  13.619 -29.959 119.683

                      1                      2                      3
                      A                      A                      A
 Frequencies --     45.3339                75.6496               139.3884
 Red. masses --     14.2216                 5.3274                 5.6551
 Frc consts  --      0.0172                 0.0180                 0.0647
 IR Inten    --      0.0124                 0.2294                 1.1818

                      4                      5                      6
                      A                      A                      A
 Frequencies --    156.3956               237.7521               270.3913
 Red. masses --     10.3321                18.6909                 6.4489
 Frc consts  --      0.1489                 0.6225                 0.2778
 IR Inten    --      0.3641                 0.1374                 0.9299

                      7                      8                      9
                      A                      A                      A
 Frequencies --    292.4360               308.8925               371.9562
 Red. masses --      6.5179                 4.1618                15.6724
 Frc consts  --      0.3284                 0.2340                 1.2775
 IR Inten    --      4.2341                 0.7845                 3.9585

                     10                     11                     12
                      A                      A                      A
 Frequencies --    403.9277               422.9727               500.9558
 Red. masses --      9.0440                 3.6116                 9.2835
 Frc consts  --      0.8694                 0.3807                 1.3727
 IR Inten    --      3.2427                 0.0003                 2.3761

                     13                     14                     15
                      A                      A                      A
 Frequencies --    522.6473               558.3108               590.6092
 Red. masses --      3.2116                 6.3607                 7.1847
 Frc consts  --      0.5169                 1.1682                 1.4766
 IR Inten    --     10.4498                17.9185                12.1827

                     16                     17                     18
                      A                      A                      A
 Frequencies --    662.3491               709.3911               727.4791
 Red. masses --      6.6951                 7.4374                 4.5691
 Frc consts  --      1.7305                 2.2052                 1.4247
 IR Inten    --     12.3657                 5.8300                 0.8605

                     19                     20                     21
                      A                      A                      A
 Frequencies --    773.9563               798.0350               834.2154
 Red. masses --      1.2741                 8.3955                 4.8431
 Frc consts  --      0.4497                 3.1502                 1.9858
 IR Inten    --     50.3764                59.6119                 0.7926

                     22                     23                     24
                      A                      A                      A
 Frequencies --    891.1343               899.0528               934.8466
 Red. masses --      5.7185                 1.4490                 1.4312
 Frc consts  --      2.6756                 0.6901                 0.7370
 IR Inten    --      9.0558                 1.8406                13.6413

                     25                     26                     27
                      A                      A                      A
 Frequencies --    961.3561               989.3569              1013.4323
 Red. masses --      7.6234                 1.3977                 1.3336
 Frc consts  --      4.1511                 0.8061                 0.8070
 IR Inten    --     10.3786                 3.4227                 0.0325

                     28                     29                     30
                      A                      A                      A
 Frequencies --   1058.7956              1111.2612              1140.1716
 Red. masses --      2.1361                 2.8757                 2.2329
 Frc consts  --      1.4109                 2.0923                 1.7103
 IR Inten    --      0.7819                13.5721                52.4748

                     31                     32                     33
                      A                      A                      A
 Frequencies --   1186.2121              1236.9640              1242.7806
 Red. masses --      1.1243                 2.9492                 2.4007
 Frc consts  --      0.9321                 2.6587                 2.1846
 IR Inten    --      0.7520                29.1615                70.1854

                     34                     35                     36
                      A                      A                      A
 Frequencies --   1292.0644              1345.7436              1363.3645
 Red. masses --      1.9237                 4.8815                 1.8993
 Frc consts  --      1.8921                 5.2087                 2.0801
 IR Inten    --     16.7674                 3.4342                38.0395

                     37                     38                     39
                      A                      A                      A
 Frequencies --   1479.2263              1512.0522              1597.8460
 Red. masses --      2.2944                 2.6798                 6.4916
 Frc consts  --      2.9579                 3.6098                 9.7650
 IR Inten    --      8.5676                 7.4073                11.7923

                     40                     41                     42
                      A                      A                      A
 Frequencies --   1627.1385              1640.6282              1755.0608
 Red. masses --      5.7123                 6.8452                13.2092
 Frc consts  --      8.9107                10.8557                23.9724
 IR Inten    --     41.6729                15.7521               341.4957

                     43                     44                     45
                      A                      A                      A
 Frequencies --   1777.6391              3169.2954              3176.9971
 Red. masses --     13.0180                 1.0874                 1.0909
 Frc consts  --     24.2372                 6.4351                 6.4873
 IR Inten    --     43.8540                 0.9339                 1.3666

                     46                     47                     48
                      A                      A                      A
 Frequencies --   3180.4566              3190.6431              3199.8964
 Red. masses --      1.0901                 1.0935                 1.0961
 Frc consts  --      6.4967                 6.5587                 6.6128
 IR Inten    --      6.8370                 6.2764                 8.2166

 - Thermochemistry -
 -------------------
 Temperature   298.150 Kelvin.  Pressure   1.00000 Atm.
 Atom     1 has atomic number 35 and mass  78.91834

 Molecular mass:   235.94729 amu.
 Principal axes and moments of inertia in atomic units:
                           1         2         3
     Eigenvalues --  1461.043045021.489716482.53274
           X            0.88377   0.46481  -0.05397
           Y           -0.44452   0.86998   0.21339
           Z            0.14614  -0.16459   0.97548
 This molecule is an asymmetric top.
 Rotational symmetry number  1.
 Warning -- assumption of classical behavior for rotation
           may cause significant error
 Rotational temperatures (Kelvin)      0.05928     0.01725     0.01336
 Rotational constants (GHZ):           1.23524     0.35940     0.27840
 Zero-point vibrational energy     319262.1 (Joules/Mol)
                                   76.30548 (Kcal/Mol)
 Warning -- explicit consideration of  15 degrees of freedom as
           vibrations may cause significant error
 Vibrational temperatures:     65.23   108.84   200.55   225.02   342.07
          (Kelvin)            389.03   420.75   444.43   535.16   581.16
                              608.56   720.76   751.97   803.28   849.75
                              952.97  1020.66  1046.68  1113.55  1148.19
                             1200.25  1282.14  1293.54  1345.04  1383.18
                             1423.46  1458.10  1523.37  1598.86  1640.45
                             1706.69  1779.72  1788.08  1858.99  1936.22
                             1961.58  2128.28  2175.51  2298.94  2341.09
                             2360.50  2525.14  2557.63  4559.91  4570.99
                             4575.97  4590.62  4603.94

 Zero-point correction=                           0.121601 (Hartree/Particle)
 Thermal correction to Energy=                    0.131887
 Thermal correction to Enthalpy=                  0.132831
 Thermal correction to Gibbs Free Energy=         0.083897
 Sum of electronic and zero-point Energies=          -3108.664754
 Sum of electronic and thermal Energies=             -3108.654467
 Sum of electronic and thermal Enthalpies=           -3108.653523
 Sum of electronic and thermal Free Energies=        -3108.702458

                     E (Thermal)             CV                S
                      KCal/Mol        Cal/Mol-Kelvin    Cal/Mol-Kelvin
 Total                   82.760             38.846            102.991
 Electronic               0.000              0.000              0.000
 Translational            0.889              2.981             42.277
 Rotational               0.889              2.981             32.231
 Vibrational             80.983             32.884             28.484
 Vibration     1          0.595              1.979              5.011
 Vibration     2          0.599              1.965              4.001
 Vibration     3          0.615              1.914              2.812
 Vibration     4          0.620              1.896              2.593
 Vibration     5          0.656              1.783              1.820
 Vibration     6          0.674              1.728              1.594
 Vibration     7          0.688              1.688              1.460
 Vibration     8          0.698              1.657              1.368
 Vibration     9          0.744              1.530              1.072
 Vibration    10          0.769              1.462              0.948
 Vibration    11          0.785              1.420              0.882
 Vibration    12          0.856              1.248              0.656
 Vibration    13          0.878              1.200              0.604
 Vibration    14          0.914              1.122              0.527
 Vibration    15          0.948              1.052              0.466

 Optimization completed.
    -- Stationary point found.
 Normal termination of Gaussian 16 at Sat Jan  6 01:53:48 2024.
