 Gaussian 16, Revision A.03,
 Gaussian 16:  ES64L-G16RevA.03 25-Dec-2016

 ----------------------------------------------------------------------
 #P UB3LYP/6-311++G(d,p) nosym opt freq SCRF=(PCM,Solvent=n,n-DiMethylF
 ormamide)
 ----------------------------------------------------------------------

 --------
 Oxidized
 --------
 Symbolic Z-matrix:
 Charge =  0 Multiplicity = 1

 SCF Done:  E(UB3LYP) =  -751.553949852     A.U. after   16 cycles
 SCF Done:  E(UB3LYP) =  -751.554100437     A.U. after   12 cycles
 SCF Done:  E(UB3LYP) =  -751.554142757     A.U. after   12 cycles
 SCF Done:  E(UB3LYP) =  -751.554148304     A.U. after   11 cycles
 SCF Done:  E(UB3LYP) =  -751.554152087     A.U. after   10 cycles
 SCF Done:  E(UB3LYP) =  -751.554153654     A.U. after    9 cycles
 SCF Done:  E(UB3LYP) =  -751.554153938     A.U. after    8 cycles
 SCF Done:  E(UB3LYP) =  -751.554154001     A.U. after    8 cycles
 Optimization completed.
    -- Stationary point found.
 Normal termination of Gaussian 16 at Sat Feb 10 11:19:37 2024.

 ----------------------------------------------------------------------
 #P Geom=AllCheck Guess=TCheck SCRF=Check GenChk UB3LYP/6-311++G(d,p) F
 req
 ----------------------------------------------------------------------

 Structure from the checkpoint file:  "105.chk"
 --------
 Oxidized
 --------
 Charge =  0 Multiplicity = 1

                          Input orientation:
 ---------------------------------------------------------------------
 Center     Atomic      Atomic             Coordinates (Angstroms)
 Number     Number       Type             X           Y           Z
 ---------------------------------------------------------------------
      1          6           0       -0.933544   -1.591706    3.643755
      2          6           0        0.362138   -1.997283    3.097380
      3          6           0        0.911244   -1.452204    1.994512
      4          6           0        0.125997   -0.354016    1.287741
      5          6           0       -1.152132    0.056392    1.815440
      6          6           0       -1.708488   -0.497972    2.937634
      7          8           0       -1.395910   -2.115248    4.650382
      8          8           0        0.582275    0.180165    0.269600
      9          7           0       -2.876711   -0.217437    3.536924
     10          6           0       -3.927089    0.769392    3.185925
     11          6           0       -5.019890    0.612778    4.254795
     12          6           0       -4.521765    0.454577    1.800628
     13          6           0       -3.362413    2.201079    3.242253
     14          6           0        2.269309   -1.895446    1.446306
     15          6           0        2.892208   -3.012469    2.305631
     16          6           0        2.099607   -2.443528    0.006185
     17          6           0        3.250138   -0.694948    1.445158
     18          1           0        0.849391   -2.781798    3.660763
     19          1           0       -1.642930    0.839339    1.256524
     20          1           0       -3.045188   -0.783884    4.361017
     21          1           0       -4.623503    0.818670    5.253020
     22          1           0       -5.435829   -0.398582    4.244768
     23          1           0       -5.832148    1.315366    4.061123
     24          1           0       -4.926625   -0.560103    1.781249
     25          1           0       -3.785088    0.544342    1.001571
     26          1           0       -5.333911    1.153076    1.585421
     27          1           0       -2.959522    2.413063    4.235530
     28          1           0       -4.161876    2.916558    3.035497
     29          1           0       -2.571147    2.365126    2.509994
     30          1           0        3.071975   -2.687515    3.333983
     31          1           0        3.856285   -3.294265    1.875571
     32          1           0        2.266945   -3.909083    2.329798
     33          1           0        1.410872   -3.293416   -0.006537
     34          1           0        3.068913   -2.792030   -0.361846
     35          1           0        1.724227   -1.678730   -0.671121
     36          1           0        3.382545   -0.301698    2.457408
     37          1           0        2.898066    0.108533    0.800858
     38          1           0        4.227234   -1.029880    1.085179
 ---------------------------------------------------------------------

 SCF Done:  E(UB3LYP) =  -751.554154001     A.U. after    1 cycles

 Alpha  occ. eigenvalues --  -19.14417 -19.11370 -14.35376 -10.28901 -10.26819
 Alpha  occ. eigenvalues --  -10.24862 -10.23645 -10.21681 -10.20201 -10.19563
 Alpha  occ. eigenvalues --  -10.17443 -10.16879 -10.16588 -10.16586 -10.16149
 Alpha  occ. eigenvalues --  -10.15886 -10.15882  -1.07647  -1.04325  -0.96546
 Alpha  occ. eigenvalues --   -0.86064  -0.82907  -0.80237  -0.75682  -0.70286
 Alpha  occ. eigenvalues --   -0.69949  -0.69715  -0.68916  -0.68881  -0.64274
 Alpha  occ. eigenvalues --   -0.61046  -0.58183  -0.55721  -0.53555  -0.51244
 Alpha  occ. eigenvalues --   -0.48787  -0.48390  -0.46598  -0.46481  -0.45148
 Alpha  occ. eigenvalues --   -0.44878  -0.44151  -0.44083  -0.43741  -0.43212
 Alpha  occ. eigenvalues --   -0.41667  -0.40732  -0.40207  -0.39424  -0.38478
 Alpha  occ. eigenvalues --   -0.38280  -0.37740  -0.37408  -0.36868  -0.36434
 Alpha  occ. eigenvalues --   -0.35617  -0.34581  -0.34247  -0.33646  -0.33332
 Alpha  occ. eigenvalues --   -0.29343  -0.29111  -0.26330  -0.23173
 Alpha virt. eigenvalues --   -0.12205  -0.01021  -0.00982  -0.00209   0.00556
 Alpha virt. eigenvalues --    0.00917   0.01636   0.01645   0.02043   0.02492
 Alpha virt. eigenvalues --    0.03121   0.03321   0.03523   0.03658   0.04570

  Beta  occ. eigenvalues --  -19.14417 -19.11370 -14.35376 -10.28901 -10.26819
  Beta  occ. eigenvalues --  -10.24862 -10.23645 -10.21681 -10.20201 -10.19563
  Beta  occ. eigenvalues --  -10.17443 -10.16879 -10.16588 -10.16586 -10.16149
  Beta  occ. eigenvalues --  -10.15886 -10.15882  -1.07647  -1.04325  -0.96546
  Beta  occ. eigenvalues --   -0.86064  -0.82907  -0.80237  -0.75682  -0.70286
  Beta  occ. eigenvalues --   -0.69949  -0.69715  -0.68916  -0.68881  -0.64274
  Beta  occ. eigenvalues --   -0.61046  -0.58183  -0.55721  -0.53555  -0.51244
  Beta  occ. eigenvalues --   -0.48787  -0.48390  -0.46598  -0.46481  -0.45148
  Beta  occ. eigenvalues --   -0.44878  -0.44151  -0.44083  -0.43741  -0.43212
  Beta  occ. eigenvalues --   -0.41667  -0.40732  -0.40207  -0.39424  -0.38478
  Beta  occ. eigenvalues --   -0.38280  -0.37740  -0.37408  -0.36868  -0.36434
  Beta  occ. eigenvalues --   -0.35617  -0.34581  -0.34247  -0.33646  -0.33332
  Beta  occ. eigenvalues --   -0.29343  -0.29111  -0.26330  -0.23173
  Beta virt. eigenvalues --   -0.12205  -0.01021  -0.00982  -0.00209   0.00556
  Beta virt. eigenvalues --    0.00917   0.01636   0.01645   0.02043   0.02492
  Beta virt. eigenvalues --    0.03121   0.03321   0.03523   0.03658   0.04570

 Mulliken charges and spin densities:
               1          2
     1  C   -0.903373   0.000000
     2  C   -0.457044   0.000000
     3  C    1.293903  -0.000000
     4  C   -0.462526  -0.000000
     5  C   -0.245607  -0.000000
     6  C    0.351569  -0.000000
     7  O   -0.275938  -0.000000
     8  O   -0.310210   0.000000
     9  N    0.027055   0.000000
    10  C   -0.127447  -0.000000
    11  C   -0.507431   0.000000
    12  C   -0.423560  -0.000000
    13  C   -0.424102   0.000000
    14  C    0.592483   0.000000
    15  C   -0.491179   0.000000
    16  C   -0.680920   0.000000
    17  C   -0.681260   0.000000
    18  H    0.239030  -0.000000
    19  H    0.229210  -0.000000
    20  H    0.375749  -0.000000
    21  H    0.162406   0.000000
    22  H    0.162614  -0.000000
    23  H    0.166035   0.000000
    24  H    0.167335  -0.000000
    25  H    0.130404  -0.000000
    26  H    0.173966  -0.000000
    27  H    0.167376  -0.000000
    28  H    0.173614  -0.000000
    29  H    0.130839  -0.000000
    30  H    0.140414   0.000000
    31  H    0.184527  -0.000000
    32  H    0.140421  -0.000000
    33  H    0.148676  -0.000000
    34  H    0.163939  -0.000000
    35  H    0.178200  -0.000000
    36  H    0.148578  -0.000000
    37  H    0.178346   0.000000
    38  H    0.163909  -0.000000
 Sum of Mulliken charges =   0.00000  -0.00000

 Dipole moment (field-independent basis, Debye):
    X=             -3.0937    Y=              0.3844    Z=              2.0436  Tot=              3.7276
 Quadrupole moment (field-independent basis, Debye-Ang):
   XX=            -82.5462   YY=           -105.2095   ZZ=           -108.0047
   XY=            -11.1920   XZ=             -7.9154   YZ=              8.8711

  Exact polarizability: 291.706 -14.592 214.809 -69.662 -26.943 271.760
 Approx polarizability: 307.039   7.995 236.543 -96.157 -51.438 339.343

                      1                      2                      3
                      A                      A                      A
 Frequencies --     28.0950                49.8566                65.2067
 Red. masses --      4.2360                 2.7722                 4.2427
 Frc consts  --      0.0020                 0.0041                 0.0106
 IR Inten    --      4.6561                 0.0028                 0.0330

                      4                      5                      6
                      A                      A                      A
 Frequencies --     83.1064               103.3349               138.2818
 Red. masses --      4.0216                 3.8069                 3.9156
 Frc consts  --      0.0164                 0.0240                 0.0441
 IR Inten    --      1.4120                 0.6939                 8.2703

                      7                      8                      9
                      A                      A                      A
 Frequencies --    165.4184               200.3754               205.4869
 Red. masses --      2.3111                 2.5556                 1.3752
 Frc consts  --      0.0373                 0.0605                 0.0342
 IR Inten    --      0.3071                 2.5519                 1.1496

                     10                     11                     12
                      A                      A                      A
 Frequencies --    209.0458               216.2685               232.7508
 Red. masses --      1.3080                 3.0515                 1.3635
 Frc consts  --      0.0337                 0.0841                 0.0435
 IR Inten    --      0.2124                 0.8531                 0.3853

                     13                     14                     15
                      A                      A                      A
 Frequencies --    244.9356               270.5142               276.9278
 Red. masses --      1.1087                 2.3563                 1.1157
 Frc consts  --      0.0392                 0.1016                 0.0504
 IR Inten    --      0.5800                 0.0081                 0.1481

                     16                     17                     18
                      A                      A                      A
 Frequencies --    280.1110               302.0386               330.5330
 Red. masses --      2.4537                 2.6283                 1.0697
 Frc consts  --      0.1134                 0.1413                 0.0689
 IR Inten    --      1.2061                 0.7070                 0.4846

                     19                     20                     21
                      A                      A                      A
 Frequencies --    336.1290               345.9922               381.3341
 Red. masses --      3.7030                 2.4962                 2.2564
 Frc consts  --      0.2465                 0.1761                 0.1933
 IR Inten    --     17.8876                 0.0378                 0.5140

                     22                     23                     24
                      A                      A                      A
 Frequencies --    388.6777               409.9839               437.0120
 Red. masses --      2.6325                 2.6384                 2.9002
 Frc consts  --      0.2343                 0.2613                 0.3263
 IR Inten    --      0.1733                 1.1501                 0.1315

                     25                     26                     27
                      A                      A                      A
 Frequencies --    449.6902               465.9896               485.5357
 Red. masses --      3.7458                 4.6391                 3.1110
 Frc consts  --      0.4463                 0.5935                 0.4321
 IR Inten    --      6.9573                50.7182                 2.2742

                     28                     29                     30
                      A                      A                      A
 Frequencies --    489.6636               528.9677               564.8344
 Red. masses --      3.7300                 3.7702                 4.2317
 Frc consts  --      0.5269                 0.6215                 0.7954
 IR Inten    --      3.3309                48.4845                 5.1079

                     31                     32                     33
                      A                      A                      A
 Frequencies --    573.5635               620.3918               650.9846
 Red. masses --      1.2100                 4.5951                 5.1059
 Frc consts  --      0.2345                 1.0420                 1.2749
 IR Inten    --     72.4860                 9.0473                 1.0137

                     34                     35                     36
                      A                      A                      A
 Frequencies --    741.6861               759.5280               771.1979
 Red. masses --      5.6832                 6.3350                 3.6969
 Frc consts  --      1.8420                 2.1532                 1.2954
 IR Inten    --      0.4824                 1.0230                 0.9862

                     37                     38                     39
                      A                      A                      A
 Frequencies --    783.2517               806.8036               832.4051
 Red. masses --      2.4306                 3.2996                 1.9454
 Frc consts  --      0.8785                 1.2654                 0.7942
 IR Inten    --      0.1945                 0.6291                49.0371

                     40                     41                     42
                      A                      A                      A
 Frequencies --    868.7805               908.6337               922.6544
 Red. masses --      2.9628                 1.6295                 1.7362
 Frc consts  --      1.3176                 0.7927                 0.8708
 IR Inten    --     71.0371                44.7557                 0.1245

                     43                     44                     45
                      A                      A                      A
 Frequencies --    925.3459               933.4327               934.3048
 Red. masses --      2.1322                 1.7016                 1.7616
 Frc consts  --      1.0757                 0.8735                 0.9060
 IR Inten    --      2.9462                 9.0226                 2.9090

                     46                     47                     48
                      A                      A                      A
 Frequencies --    940.8843               963.3504               967.5707
 Red. masses --      2.0090                 1.1974                 1.1974
 Frc consts  --      1.0479                 0.6547                 0.6605
 IR Inten    --      1.9488                 0.1728                 0.0219

                     49                     50                     51
                      A                      A                      A
 Frequencies --   1027.1348              1043.7432              1047.5348
 Red. masses --      2.1675                 1.3843                 1.3966
 Frc consts  --      1.3473                 0.8885                 0.9029
 IR Inten    --    118.2657                 0.2594                 2.0461

                     52                     53                     54
                      A                      A                      A
 Frequencies --   1054.9499              1062.9001              1200.0199
 Red. masses --      1.4930                 1.6040                 2.8239
 Frc consts  --      0.9790                 1.0677                 2.3959
 IR Inten    --     18.7659                12.5310               125.1095

                     55                     56                     57
                      A                      A                      A
 Frequencies --   1210.9336              1220.1113              1226.4399
 Red. masses --      2.6746                 2.0782                 2.3199
 Frc consts  --      2.3107                 1.8228                 2.0559
 IR Inten    --      4.8695               204.6020                96.3457

                     58                     59                     60
                      A                      A                      A
 Frequencies --   1239.6270              1248.7861              1258.3068
 Red. masses --      2.7635                 2.2698                 3.7705
 Frc consts  --      2.5020                 2.0855                 3.5174
 IR Inten    --     22.4714                21.3547               300.2384

                     61                     62                     63
                      A                      A                      A
 Frequencies --   1271.5607              1329.2454              1343.7604
 Red. masses --      2.3353                 2.9941                 1.8363
 Frc consts  --      2.2247                 3.1169                 1.9536
 IR Inten    --      0.8147                44.6272               109.0335

                     64                     65                     66
                      A                      A                      A
 Frequencies --   1368.6772              1383.0260              1392.0066
 Red. masses --      3.2263                 1.1952                 1.2592
 Frc consts  --      3.5609                 1.3470                 1.4375
 IR Inten    --     54.5758                 9.5992                23.5439

                     67                     68                     69
                      A                      A                      A
 Frequencies --   1400.0123              1401.0582              1418.5191
 Red. masses --      1.2222                 1.2331                 1.2213
 Frc consts  --      1.4114                 1.4262                 1.4479
 IR Inten    --     16.3233                17.6976                13.6622

                     70                     71                     72
                      A                      A                      A
 Frequencies --   1426.4138              1473.4093              1474.5257
 Red. masses --      1.2244                 1.0464                 1.0476
 Frc consts  --      1.4678                 1.3385                 1.3420
 IR Inten    --     16.5668                 0.0721                 0.3055

                     73                     74                     75
                      A                      A                      A
 Frequencies --   1480.2977              1481.2328              1488.4721
 Red. masses --      1.0438                 1.0480                 1.0571
 Frc consts  --      1.3476                 1.3547                 1.3799
 IR Inten    --      1.0870                17.7209                46.0102

                     76                     77                     78
                      A                      A                      A
 Frequencies --   1489.4084              1489.7130              1492.9559
 Red. masses --      1.0476                 1.0491                 1.0646
 Frc consts  --      1.3693                 1.3717                 1.3981
 IR Inten    --      3.6693                12.4736                36.7135

                     79                     80                     81
                      A                      A                      A
 Frequencies --   1496.8239              1501.6397              1509.2862
 Red. masses --      1.0537                 1.0485                 1.0633
 Frc consts  --      1.3909                 1.3930                 1.4271
 IR Inten    --      9.3523                13.3351                11.7163

                     82                     83                     84
                      A                      A                      A
 Frequencies --   1517.4935              1554.8135              1601.9829
 Red. masses --      1.0618                 1.7793                 5.4620
 Frc consts  --      1.4406                 2.5344                 8.2587
 IR Inten    --     39.7136               862.0105              1499.2796

                     85                     86                     87
                      A                      A                      A
 Frequencies --   1644.1423              1657.5181              1696.9037
 Red. masses --     10.5037                 8.0821                10.1740
 Frc consts  --     16.7291                13.0825                17.2607
 IR Inten    --     58.9514               150.6694               365.0529

                     88                     89                     90
                      A                      A                      A
 Frequencies --   3022.9049              3024.1914              3027.8577
 Red. masses --      1.0358                 1.0378                 1.0359
 Frc consts  --      5.5766                 5.5924                 5.5953
 IR Inten    --     27.6746                66.6913                32.0783

                     91                     92                     93
                      A                      A                      A
 Frequencies --   3030.3268              3036.4125              3042.0301
 Red. masses --      1.0382                 1.0357                 1.0369
 Frc consts  --      5.6170                 5.6263                 5.6533
 IR Inten    --     49.1946                41.5245                15.6951

                     94                     95                     96
                      A                      A                      A
 Frequencies --   3081.6707              3082.4325              3090.4035
 Red. masses --      1.1024                 1.1019                 1.1026
 Frc consts  --      6.1683                 6.1687                 6.2042
 IR Inten    --     19.7266                40.9000                56.2291

                     97                     98                     99
                      A                      A                      A
 Frequencies --   3092.1533              3094.2217              3101.2908
 Red. masses --      1.1031                 1.1011                 1.1029
 Frc consts  --      6.2145                 6.2110                 6.2496
 IR Inten    --     31.5214                84.7432                29.7182

                    100                    101                    102
                      A                      A                      A
 Frequencies --   3102.5270              3112.9632              3117.1357
 Red. masses --      1.1026                 1.1010                 1.1007
 Frc consts  --      6.2532                 6.2860                 6.3015
 IR Inten    --     25.5463                55.7208                 3.8248

                    103                    104                    105
                      A                      A                      A
 Frequencies --   3118.8708              3135.4002              3137.5242
 Red. masses --      1.1004                 1.0984                 1.0978
 Frc consts  --      6.3066                 6.3622                 6.3674
 IR Inten    --     68.9310                 0.4038                32.0000

                    106                    107                    108
                      A                      A                      A
 Frequencies --   3206.0801              3218.9259              3541.0673
 Red. masses --      1.0904                 1.0900                 1.0759
 Frc consts  --      6.6037                 6.6542                 7.9486
 IR Inten    --      3.5990                 7.0352               164.5845

 - Thermochemistry -
 -------------------
 Temperature   298.150 Kelvin.  Pressure   1.00000 Atm.
 Atom     1 has atomic number  6 and mass  12.00000

 Molecular mass:   235.15723 amu.
 Principal axes and moments of inertia in atomic units:
                           1         2         3
     Eigenvalues --  1802.407117438.884658432.33920
           X            0.89063  -0.00615   0.45469
           Y           -0.35549  -0.63295   0.68775
           Z           -0.28356   0.77416   0.56591
 This molecule is an asymmetric top.
 Rotational symmetry number  1.
 Warning -- assumption of classical behavior for rotation
           may cause significant error
 Rotational temperatures (Kelvin)      0.04805     0.01164     0.01027
 Rotational constants (GHZ):           1.00129     0.24261     0.21403
 Zero-point vibrational energy     853132.7 (Joules/Mol)
                                  203.90360 (Kcal/Mol)
 Warning -- explicit consideration of  32 degrees of freedom as
           vibrations may cause significant error
 Vibrational temperatures:     40.42    71.73    93.82   119.57   148.68
          (Kelvin)            198.96   238.00   288.30   295.65   300.77
                              311.16   334.88   352.41   389.21   398.44
                              403.02   434.57   475.56   483.61   497.81
                              548.65   559.22   589.88   628.76   647.00
                              670.46   698.58   704.52   761.07   812.67
                              825.23   892.61   936.62  1067.12  1092.79
                             1109.58  1126.92  1160.81  1197.65  1249.98
                             1307.32  1327.49  1331.37  1343.00  1344.26
                             1353.72  1386.05  1392.12  1477.82  1501.71
                             1507.17  1517.84  1529.28  1726.56  1742.26
                             1755.47  1764.57  1783.55  1796.72  1810.42
                             1829.49  1912.49  1933.37  1969.22  1989.87
                             2002.79  2014.31  2015.81  2040.93  2052.29
                             2119.91  2121.51  2129.82  2131.16  2141.58
                             2142.93  2143.36  2148.03  2153.60  2160.52
                             2171.53  2183.33  2237.03  2304.90  2365.55
                             2384.80  2441.47  4349.29  4351.14  4356.41
                             4359.96  4368.72  4376.80  4433.84  4434.93
                             4446.40  4448.92  4451.89  4462.07  4463.84
                             4478.86  4484.86  4487.36  4511.14  4514.20
                             4612.83  4631.32  5094.81

 Zero-point correction=                           0.324941 (Hartree/Particle)
 Thermal correction to Energy=                    0.343574
 Thermal correction to Enthalpy=                  0.344518
 Thermal correction to Gibbs Free Energy=         0.279330
 Sum of electronic and zero-point Energies=           -751.229213
 Sum of electronic and thermal Energies=              -751.210580
 Sum of electronic and thermal Enthalpies=            -751.209636
 Sum of electronic and thermal Free Energies=         -751.274824

                     E (Thermal)             CV                S
                      KCal/Mol        Cal/Mol-Kelvin    Cal/Mol-Kelvin
 Total                  215.596             72.022            137.200
 Electronic               0.000              0.000              0.000
 Translational            0.889              2.981             42.267
 Rotational               0.889              2.981             33.091
 Vibrational            213.818             66.060             61.842
 Vibration     1          0.593              1.984              5.960
 Vibration     2          0.595              1.978              4.823
 Vibration     3          0.597              1.971              4.293
 Vibration     4          0.600              1.961              3.816
 Vibration     5          0.605              1.947              3.390
 Vibration     6          0.614              1.915              2.828
 Vibration     7          0.624              1.885              2.487
 Vibration     8          0.638              1.839              2.130
 Vibration     9          0.640              1.832              2.083
 Vibration    10          0.642              1.827              2.052
 Vibration    11          0.645              1.816              1.990
 Vibration    12          0.654              1.791              1.858
 Vibration    13          0.660              1.771              1.767
 Vibration    14          0.674              1.728              1.593
 Vibration    15          0.678              1.716              1.553
 Vibration    16          0.680              1.710              1.533
 Vibration    17          0.694              1.670              1.406
 Vibration    18          0.713              1.615              1.257
 Vibration    19          0.717              1.603              1.230
 Vibration    20          0.724              1.583              1.184
 Vibration    21          0.751              1.510              1.034
 Vibration    22          0.757              1.494              1.005
 Vibration    23          0.774              1.449              0.927
 Vibration    24          0.797              1.390              0.836
 Vibration    25          0.809              1.362              0.797
 Vibration    26          0.823              1.325              0.749
 Vibration    27          0.842              1.282              0.695
 Vibration    28          0.846              1.273              0.684
 Vibration    29          0.884              1.186              0.590
 Vibration    30          0.921              1.107              0.514
 Vibration    31          0.930              1.088              0.497
 Vibration    32          0.980              0.989              0.416

 Optimization completed.
    -- Stationary point found.
 Normal termination of Gaussian 16 at Sat Feb 10 12:24:35 2024.
