 Gaussian 16, Revision A.03,
 Gaussian 16:  ES64L-G16RevA.03 25-Dec-2016

 ---------------------------------------------------------
 #P UB3LYP/genecp SCRF=(PCM,Solvent=n,n-DiMethylFormamide)
 ---------------------------------------------------------

 ------------------
 Radical PCM in DMF
 ------------------
 Symbolic Z-matrix:
 Charge = -1 Multiplicity = 2

                         Standard orientation:
 ---------------------------------------------------------------------
 Center     Atomic      Atomic             Coordinates (Angstroms)
 Number     Number       Type             X           Y           Z
 ---------------------------------------------------------------------
      1          6           0       -0.641765   -0.717617   -0.124558
      2          6           0       -1.981323   -0.125239   -0.127798
      3          6           0       -2.142017    1.230783   -0.041779
      4          6           0       -1.048631    2.168481    0.058879
      5          6           0        0.306546    1.603827    0.061823
      6          6           0        0.446775    0.240778   -0.027460
      7          8           0       -1.249539    3.413139    0.138860
      8          1           0       -3.129528    1.680775   -0.047408
      9          8           0       -0.468126   -1.960422   -0.202533
     10         53           0        2.391091   -0.657032   -0.033990
     11          6           0        1.453828    2.571466    0.162239
     12          6           0       -3.143101   -1.103266   -0.203805
     13          6           0       -3.410638   -1.738171    1.176278
     14          6           0       -4.431461   -0.505985   -0.784832
     15          1           0        1.055264    3.584459    0.221647
     16          1           0        2.117610    2.494323   -0.705473
     17          1           0        2.067514    2.371654    1.047056
     18          1           0       -2.811163   -1.914381   -0.860586
     19          1           0       -4.197210   -2.500030    1.110172
     20          1           0       -3.732944   -0.976793    1.895269
     21          1           0       -2.504391   -2.213650    1.555120
     22          1           0       -5.189435   -1.288258   -0.903964
     23          1           0       -4.255072   -0.050564   -1.763521
     24          1           0       -4.856411    0.263108   -0.131399
 ---------------------------------------------------------------------

 SCF Done:  E(UB3LYP) =  -836.224201908     A.U. after   21 cycles

 The electronic state is 2-A.
 Alpha  occ. eigenvalues --  -19.07920 -19.07901 -10.22656 -10.22207 -10.20272
 Alpha  occ. eigenvalues --  -10.18108 -10.17255 -10.17070 -10.15856 -10.15708
 Alpha  occ. eigenvalues --  -10.15322 -10.15210  -6.83166  -4.85523  -4.84522
 Alpha  occ. eigenvalues --   -4.84427  -1.90341  -1.90024  -1.89952  -1.89086
 Alpha  occ. eigenvalues --   -1.89084  -1.00561  -1.00086  -0.83652  -0.80270
 Alpha  occ. eigenvalues --   -0.75048  -0.71728  -0.68095  -0.66821  -0.66586
 Alpha  occ. eigenvalues --   -0.59897  -0.56131  -0.53672  -0.49322  -0.46376
 Alpha  occ. eigenvalues --   -0.44210  -0.43223  -0.42866  -0.41663  -0.40888
 Alpha  occ. eigenvalues --   -0.40081  -0.38424  -0.38317  -0.37689  -0.37464
 Alpha  occ. eigenvalues --   -0.37104  -0.34962  -0.33749  -0.33253  -0.32252
 Alpha  occ. eigenvalues --   -0.29180  -0.26900  -0.25845  -0.24635  -0.23592
 Alpha  occ. eigenvalues --   -0.23450  -0.16185
 Alpha virt. eigenvalues --   -0.02436  -0.00988  -0.00326   0.00637   0.01576
 Alpha virt. eigenvalues --    0.01936   0.02819   0.02986   0.03505   0.04108
 Alpha virt. eigenvalues --    0.04809   0.04979   0.05503   0.05884   0.06824

  Beta  occ. eigenvalues --  -19.07272 -19.07197 -10.22499 -10.22063 -10.20195
  Beta  occ. eigenvalues --  -10.17943 -10.17139 -10.17077 -10.15781 -10.15720
  Beta  occ. eigenvalues --  -10.15321 -10.15200  -6.83165  -4.85526  -4.84517
  Beta  occ. eigenvalues --   -4.84427  -1.90344  -1.90022  -1.89955  -1.89083
  Beta  occ. eigenvalues --   -1.89081  -0.99424  -0.98847  -0.83116  -0.80095
  Beta  occ. eigenvalues --   -0.74849  -0.71374  -0.68029  -0.66693  -0.65891
  Beta  occ. eigenvalues --   -0.59614  -0.55754  -0.53381  -0.49112  -0.46042
  Beta  occ. eigenvalues --   -0.43993  -0.43017  -0.42052  -0.41245  -0.40544
  Beta  occ. eigenvalues --   -0.39591  -0.38218  -0.37530  -0.37481  -0.36896
  Beta  occ. eigenvalues --   -0.35117  -0.34478  -0.33613  -0.33099  -0.32114
  Beta  occ. eigenvalues --   -0.27987  -0.25733  -0.24628  -0.24015  -0.23004
  Beta  occ. eigenvalues --   -0.22903
  Beta virt. eigenvalues --   -0.09059  -0.02331  -0.00339   0.00363   0.00698
  Beta virt. eigenvalues --    0.01659   0.02032   0.03007   0.03487   0.04031
  Beta virt. eigenvalues --    0.04685   0.04991   0.05306   0.05622   0.05925

 Mulliken charges and spin densities:
               1          2
     1  C   -1.079956   0.098738
     2  C    0.928620   0.080091
     3  C   -0.160500   0.051306
     4  C   -1.045340   0.100291
     5  C    1.047764   0.153069
     6  C    0.150887   0.013146
     7  O   -0.475473   0.250120
     8  H    0.164368  -0.005547
     9  O   -0.402653   0.239214
    10  I   -0.178706  -0.000672
    11  C   -0.381211  -0.000315
    12  C    0.144945  -0.001320
    13  C   -0.707481   0.010846
    14  C   -0.569984   0.000972
    15  H    0.182030  -0.002264
    16  H    0.148529   0.005672
    17  H    0.147475   0.005576
    18  H    0.195760   0.002564
    19  H    0.137501   0.001923
    20  H    0.143725  -0.001048
    21  H    0.170044  -0.001684
    22  H    0.167099  -0.000375
    23  H    0.133400  -0.000168
    24  H    0.139157  -0.000134
 Sum of Mulliken charges =  -1.00000   1.00000

 Dipole moment (field-independent basis, Debye):
    X=              1.4862    Y=             -2.7157    Z=              0.0855  Tot=              3.0970
 Quadrupole moment (field-independent basis, Debye-Ang):
   XX=           -108.1830   YY=           -141.5720   ZZ=           -104.1594
   XY=             11.2569   XZ=              0.8051   YZ=             -1.7749

 Normal termination of Gaussian 16 at Mon Jan 22 18:32:15 2024.
