 Q-Chem 5.4, Q-Chem, Inc., Pleasanton, CA (2021)
 Q-Chem 5.4.0 for Intel X86 EM64T Linux

User input:
--------------------------------------------------------------
$molecule
0 1
N                 -3.3007170000     -0.9427580000      0.2271520000
C                 -2.1195960000     -0.2855610000      0.2148790000
C                 -1.9410070000      1.0394140000      0.4774360000
C                 -0.6367000000      1.6752430000      0.4446460000
O                 -0.4915310000      2.8698210000      0.6836420000
C                  0.5514200000      0.8181800000      0.1046370000
C                  1.8230430000      1.3866420000      0.0614960000
C                  2.9296360000      0.6007920000     -0.2525770000
C                  2.7737370000     -0.7598170000     -0.5260240000
C                  1.5088460000     -1.3361900000     -0.4854280000
C                  0.3951900000     -0.5510020000     -0.1705950000
C                 -0.9471590000     -1.1716910000     -0.1294510000
O                 -1.1441430000     -2.3544140000     -0.3590860000
H                 -4.1658740000     -0.4781600000      0.4411920000
H                 -3.2970290000     -1.9291660000      0.0142270000
H                 -2.7782240000      1.6830750000      0.7255310000
H                  1.9222870000      2.4434570000      0.2767310000
H                  3.9165550000      1.0486300000     -0.2846400000
H                  3.6375800000     -1.3674010000     -0.7699400000
H                  1.3636860000     -2.3890940000     -0.6938270000
$end
$rem
MAX_SCF_CYCLES=200
BASIS  =  6-311++G(d,p)
GUI  =  2
JOB_TYPE  =  SP
METHOD  =  B3LYP
SOLVENT_METHOD = PCM
$end
$pcm
theory = CPCM
$end
$solvent
dielectric 37.219
opticaldielectric 1.43
$end

--------------------------------------------------------------

             Standard Nuclear Orientation (Angstroms)
    I     Atom           X                Y                Z
 ----------------------------------------------------------------
    1      N      -3.3007170000    -0.9427580000     0.2271520000
    2      C      -2.1195960000    -0.2855610000     0.2148790000
    3      C      -1.9410070000     1.0394140000     0.4774360000
    4      C      -0.6367000000     1.6752430000     0.4446460000
    5      O      -0.4915310000     2.8698210000     0.6836420000
    6      C       0.5514200000     0.8181800000     0.1046370000
    7      C       1.8230430000     1.3866420000     0.0614960000
    8      C       2.9296360000     0.6007920000    -0.2525770000
    9      C       2.7737370000    -0.7598170000    -0.5260240000
   10      C       1.5088460000    -1.3361900000    -0.4854280000
   11      C       0.3951900000    -0.5510020000    -0.1705950000
   12      C      -0.9471590000    -1.1716910000    -0.1294510000
   13      O      -1.1441430000    -2.3544140000    -0.3590860000
   14      H      -4.1658740000    -0.4781600000     0.4411920000
   15      H      -3.2970290000    -1.9291660000     0.0142270000
   16      H      -2.7782240000     1.6830750000     0.7255310000
   17      H       1.9222870000     2.4434570000     0.2767310000
   18      H       3.9165550000     1.0486300000    -0.2846400000
   19      H       3.6375800000    -1.3674010000    -0.7699400000
   20      H       1.3636860000    -2.3890940000    -0.6938270000
 ----------------------------------------------------------------

    9    -590.6675387039      4.38e-06  Convergence criterion met
 Total energy in the final basis set =     -590.6675387039

                    Orbital Energies (a.u.)
 --------------------------------------------------------------

 Alpha MOs
 -- Occupied --
-19.1442 -19.1158 -14.3466 -10.2919 -10.2694 -10.2523 -10.2067 -10.2049
-10.1974 -10.1962 -10.1938 -10.1930 -10.1796  -1.0793  -1.0496  -0.9468
 -0.8872  -0.8181  -0.7765  -0.7626  -0.6956  -0.6469  -0.6398  -0.5918
 -0.5696  -0.5435  -0.5153  -0.5042  -0.4849  -0.4661  -0.4580  -0.4504
 -0.4490  -0.4377  -0.4212  -0.4156  -0.3858  -0.3800  -0.3666  -0.3596
 -0.2950  -0.2843  -0.2768  -0.2714  -0.2394

          Ground-State Mulliken Net Atomic Charges

     Atom                 Charge (a.u.)
  ----------------------------------------
      1 N                    -0.440850
      2 C                     0.205626
      3 C                     0.547587
      4 C                    -0.552847
      5 O                    -0.374177
      6 C                     0.186552
      7 C                     0.247075
      8 C                    -0.358166
      9 C                    -0.410116
     10 C                     0.183479
     11 C                     0.339591
     12 C                    -1.007656
     13 O                    -0.298651
     14 H                     0.350114
     15 H                     0.327971
     16 H                     0.219560
     17 H                     0.189345
     18 H                     0.226055
     19 H                     0.225524
     20 H                     0.193985
  ----------------------------------------
  Sum of atomic charges =     0.000000

                    Cartesian Multipole Moments
 -----------------------------------------------------------------
    Charge (ESU x 10^10)
                 0.0000
    Dipole Moment (Debye)
         X      -0.9944      Y      -3.2944      Z      -0.5783
       Tot       3.4895
    Quadrupole Moments (Debye-Ang)
        XX     -43.7133     XY       2.9634     YY     -92.2105
        XZ      -3.8064     YZ      -3.5142     ZZ     -78.0006

 Total job time:  29.25s(wall), 160.93s(cpu)
        *  Thank you very much for using Q-Chem.  Have a nice day.  *
