 Q-Chem 5.4, Q-Chem, Inc., Pleasanton, CA (2021)
 Q-Chem 5.4.0 for Intel X86 EM64T Linux

User input:
--------------------------------------------------------------
$molecule
-2 1
O                  2.2493520000      2.7693130000     -0.2510220000
C                  2.3512200000      1.4131840000     -0.1489140000
C                  3.5918560000      0.8302410000      0.0726180000
C                  3.7209070000     -0.5663010000      0.1934310000
C                  2.5801070000     -1.3703810000      0.0813980000
C                  1.3282620000     -0.8108920000     -0.1555170000
C                  0.1178630000     -1.6540120000     -0.4679220000
C                 -1.1762570000     -1.0306580000     -0.0095460000
C                 -2.2761810000     -1.7964660000      0.3646880000
C                 -3.5186080000     -1.2014620000      0.6153910000
C                 -3.6488260000      0.1949450000      0.4940710000
C                 -2.5621630000      0.9820540000      0.1366260000
O                 -2.7097250000      2.3340570000      0.0363910000
C                 -1.2838920000      0.3876460000     -0.1347260000
C                 -0.1283190000      1.1987050000     -0.3970630000
O                 -0.2517530000      2.5318570000     -0.5067580000
C                  1.1728930000      0.6032710000     -0.2775970000
H                  1.2559100000      2.9345830000     -0.3734140000
H                  4.4590290000      1.4809970000      0.1498230000
H                  4.7008890000     -1.0159920000      0.3355920000
H                  2.6758040000     -2.4535830000      0.1350770000
H                  0.2297230000     -2.6680370000     -0.0744740000
H                  0.0617780000     -1.7547780000     -1.5810840000
H                 -2.1755740000     -2.8792160000      0.4183510000
H                 -4.3826010000     -1.8129430000      0.8652280000
H                 -4.6010780000      0.6860420000      0.6769920000
H                 -1.7806180000      2.6678270000     -0.1976380000
$end
$rem
MAX_SCF_CYCLES=200
BASIS  =  6-311++G(d,p)
GUI  =  2
JOB_TYPE  =  SP
METHOD  =  B3LYP
SOLVENT_METHOD = PCM
$end
$pcm
theory = CPCM
$end
$solvent
dielectric 37.219
opticaldielectric 1.43
$end

--------------------------------------------------------------

             Standard Nuclear Orientation (Angstroms)
    I     Atom           X                Y                Z
 ----------------------------------------------------------------
    1      O       2.2493520000     2.7693130000    -0.2510220000
    2      C       2.3512200000     1.4131840000    -0.1489140000
    3      C       3.5918560000     0.8302410000     0.0726180000
    4      C       3.7209070000    -0.5663010000     0.1934310000
    5      C       2.5801070000    -1.3703810000     0.0813980000
    6      C       1.3282620000    -0.8108920000    -0.1555170000
    7      C       0.1178630000    -1.6540120000    -0.4679220000
    8      C      -1.1762570000    -1.0306580000    -0.0095460000
    9      C      -2.2761810000    -1.7964660000     0.3646880000
   10      C      -3.5186080000    -1.2014620000     0.6153910000
   11      C      -3.6488260000     0.1949450000     0.4940710000
   12      C      -2.5621630000     0.9820540000     0.1366260000
   13      O      -2.7097250000     2.3340570000     0.0363910000
   14      C      -1.2838920000     0.3876460000    -0.1347260000
   15      C      -0.1283190000     1.1987050000    -0.3970630000
   16      O      -0.2517530000     2.5318570000    -0.5067580000
   17      C       1.1728930000     0.6032710000    -0.2775970000
   18      H       1.2559100000     2.9345830000    -0.3734140000
   19      H       4.4590290000     1.4809970000     0.1498230000
   20      H       4.7008890000    -1.0159920000     0.3355920000
   21      H       2.6758040000    -2.4535830000     0.1350770000
   22      H       0.2297230000    -2.6680370000    -0.0744740000
   23      H       0.0617780000    -1.7547780000    -1.5810840000
   24      H      -2.1755740000    -2.8792160000     0.4183510000
   25      H      -4.3826010000    -1.8129430000     0.8652280000
   26      H      -4.6010780000     0.6860420000     0.6769920000
   27      H      -1.7806180000     2.6678270000    -0.1976380000
 ----------------------------------------------------------------

    9    -765.6160584849      5.70e-06  Convergence criterion met
 Total energy in the final basis set =     -765.6160584849

                    Orbital Energies (a.u.)
 --------------------------------------------------------------

 Alpha MOs
 -- Occupied --
-19.0985 -19.0985 -19.0329 -10.1912 -10.1912 -10.1542 -10.1483 -10.1373
-10.1373 -10.1358 -10.1357 -10.1351 -10.1351 -10.1342 -10.1342 -10.1308
-10.1307  -1.0178  -1.0127  -0.9319  -0.8299  -0.8077  -0.7566  -0.7201
 -0.7063  -0.6975  -0.6579  -0.6038  -0.5935  -0.5523  -0.5507  -0.5250
 -0.4868  -0.4801  -0.4790  -0.4407  -0.4350  -0.4249  -0.4093  -0.3995
 -0.3830  -0.3777  -0.3765  -0.3715  -0.3692  -0.3631  -0.3506  -0.3344
 -0.3339  -0.3137  -0.3096  -0.2980  -0.2951  -0.2950  -0.2236  -0.2180
 -0.2117  -0.1983  -0.1939  -0.0783

          Ground-State Mulliken Net Atomic Charges

     Atom                 Charge (a.u.)
  ----------------------------------------
      1 O                    -0.457318
      2 C                    -0.218322
      3 C                    -0.441570
      4 C                    -0.377066
      5 C                    -0.117881
      6 C                     0.201071
      7 C                    -1.268019
      8 C                     0.218901
      9 C                    -0.123450
     10 C                    -0.378874
     11 C                    -0.446679
     12 C                    -0.215944
     13 O                    -0.457219
     14 C                     0.707357
     15 C                    -0.461843
     16 O                    -0.754494
     17 C                     0.699729
     18 H                     0.387255
     19 H                     0.158204
     20 H                     0.159983
     21 H                     0.147164
     22 H                     0.084970
     23 H                     0.101229
     24 H                     0.147080
     25 H                     0.160014
     26 H                     0.158147
     27 H                     0.387576
  ----------------------------------------
  Sum of atomic charges =    -2.000000

                    Cartesian Multipole Moments
 -----------------------------------------------------------------
    Charge (ESU x 10^10)
                -9.6064
    Dipole Moment (Debye)
         X       0.9678      Y     -10.3579      Z       1.0471
       Tot      10.4556
    Quadrupole Moments (Debye-Ang)
        XX    -161.3041     XY      -1.5222     YY    -141.3288
        XZ       2.2219     YZ       4.1478     ZZ    -116.9796

 Total job time:  52.85s(wall), 343.66s(cpu)
        *  Thank you very much for using Q-Chem.  Have a nice day.  *
