 Gaussian 16, Revision A.03,
 Gaussian 16:  ES64L-G16RevA.03 25-Dec-2016

 ----------------------------------------------------------------
 #P UB3LYP/6-311++G(d,p) SCRF=(PCM,Solvent=n,n-DiMethylFormamide)
 ----------------------------------------------------------------

 ------------------
 Quinone PCM in DMF
 ------------------
 Symbolic Z-matrix:
 Charge =  0 Multiplicity = 1

                         Standard orientation:
 ---------------------------------------------------------------------
 Center     Atomic      Atomic             Coordinates (Angstroms)
 Number     Number       Type             X           Y           Z
 ---------------------------------------------------------------------
      1          6           0       -0.688966   -1.470180    0.005942
      2          6           0       -1.869492   -0.552048    0.047930
      3          6           0       -1.682838    0.782601   -0.007892
      4          6           0       -0.307425    1.355011   -0.157625
      5          6           0        0.871606    0.457836   -0.155379
      6          6           0        0.698956   -0.889998   -0.097243
      7          8           0       -0.829326   -2.676062    0.069553
      8          8           0       -0.164943    2.562685   -0.298970
      9          8           0        1.618669   -1.857666   -0.141335
     10          6           0        3.022867   -1.601951    0.008744
     11          6           0       -3.218569   -1.212731    0.164859
     12          6           0       -2.788401    1.796326    0.040657
     13          1           0        3.477129   -2.590611    0.048461
     14          1           0        3.221250   -1.067918    0.940860
     15          1           0        3.415294   -1.034035   -0.832739
     16          8           0        2.101225    1.007547   -0.375010
     17          6           0        2.590021    1.959881    0.586539
     18          1           0        3.590299    2.228512    0.249444
     19          1           0        2.650582    1.498230    1.578583
     20          1           0        1.956573    2.844698    0.618084
     21          1           0       -3.108639   -2.295307    0.141226
     22          1           0       -3.878483   -0.911802   -0.653053
     23          1           0       -3.711384   -0.939448    1.102671
     24          1           0       -3.764017    1.330243    0.164005
     25          1           0       -2.794444    2.397443   -0.872930
     26          1           0       -2.625724    2.499492    0.862306
 ---------------------------------------------------------------------

 SCF Done:  E(UB3LYP) =  -689.337489768     A.U. after   16 cycles

 The electronic state is 1-A.
 Alpha  occ. eigenvalues --  -19.18028 -19.16067 -19.14078 -19.13357 -10.28810
 Alpha  occ. eigenvalues --  -10.28186 -10.26775 -10.25185 -10.22802 -10.22082
 Alpha  occ. eigenvalues --  -10.21248 -10.21144 -10.17542 -10.17345  -1.10536
 Alpha  occ. eigenvalues --   -1.08177  -1.06850  -1.05560  -0.86341  -0.80970
 Alpha  occ. eigenvalues --   -0.75253  -0.74449  -0.71668  -0.67441  -0.66522
 Alpha  occ. eigenvalues --   -0.59917  -0.59384  -0.55609  -0.53401  -0.51612
 Alpha  occ. eigenvalues --   -0.49793  -0.47710  -0.46713  -0.46628  -0.45639
 Alpha  occ. eigenvalues --   -0.45263  -0.44437  -0.42876  -0.42010  -0.41587
 Alpha  occ. eigenvalues --   -0.41146  -0.39970  -0.39367  -0.38332  -0.37235
 Alpha  occ. eigenvalues --   -0.36062  -0.35685  -0.31826  -0.28835  -0.28725
 Alpha  occ. eigenvalues --   -0.27368  -0.24462
 Alpha virt. eigenvalues --   -0.12533  -0.01274  -0.00896  -0.00068   0.00420
 Alpha virt. eigenvalues --    0.00975   0.01907   0.02219   0.02512   0.03247
 Alpha virt. eigenvalues --    0.03541   0.04493   0.04825   0.05209   0.05365

  Beta  occ. eigenvalues --  -19.18028 -19.16067 -19.14078 -19.13357 -10.28810
  Beta  occ. eigenvalues --  -10.28186 -10.26775 -10.25185 -10.22802 -10.22082
  Beta  occ. eigenvalues --  -10.21248 -10.21144 -10.17542 -10.17345  -1.10536
  Beta  occ. eigenvalues --   -1.08177  -1.06850  -1.05560  -0.86341  -0.80970
  Beta  occ. eigenvalues --   -0.75253  -0.74449  -0.71668  -0.67441  -0.66522
  Beta  occ. eigenvalues --   -0.59917  -0.59384  -0.55609  -0.53401  -0.51612
  Beta  occ. eigenvalues --   -0.49793  -0.47710  -0.46713  -0.46628  -0.45639
  Beta  occ. eigenvalues --   -0.45263  -0.44437  -0.42876  -0.42010  -0.41587
  Beta  occ. eigenvalues --   -0.41146  -0.39970  -0.39367  -0.38332  -0.37235
  Beta  occ. eigenvalues --   -0.36062  -0.35685  -0.31826  -0.28835  -0.28725
  Beta  occ. eigenvalues --   -0.27368  -0.24462
  Beta virt. eigenvalues --   -0.12533  -0.01274  -0.00896  -0.00068   0.00420
  Beta virt. eigenvalues --    0.00975   0.01907   0.02219   0.02512   0.03247
  Beta virt. eigenvalues --    0.03541   0.04493   0.04825   0.05209   0.05365

 Mulliken charges and spin densities:
               1          2
     1  C   -0.931451   0.000000
     2  C    0.642880  -0.000000
     3  C    0.796421  -0.000000
     4  C   -0.575862  -0.000000
     5  C    0.270402   0.000000
     6  C    0.166333  -0.000000
     7  O   -0.279430   0.000000
     8  O   -0.300258   0.000000
     9  O   -0.199385   0.000000
    10  C   -0.285842  -0.000000
    11  C   -0.473304  -0.000000
    12  C   -0.474336  -0.000000
    13  H    0.194072  -0.000000
    14  H    0.183427   0.000000
    15  H    0.194245  -0.000000
    16  O   -0.217738  -0.000000
    17  C   -0.298319  -0.000000
    18  H    0.170145   0.000000
    19  H    0.147837   0.000000
    20  H    0.169593  -0.000000
    21  H    0.187354  -0.000000
    22  H    0.181153   0.000000
    23  H    0.186335   0.000000
    24  H    0.171219  -0.000000
    25  H    0.191507   0.000000
    26  H    0.183003   0.000000
 Sum of Mulliken charges =  -0.00000   0.00000

 Dipole moment (field-independent basis, Debye):
    X=              0.6619    Y=              1.4532    Z=              1.9613  Tot=              2.5291
 Quadrupole moment (field-independent basis, Debye-Ang):
   XX=            -61.5211   YY=           -100.9450   ZZ=            -81.6596
   XY=             -3.1022   XZ=              3.4746   YZ=              3.5020

 Normal termination of Gaussian 16 at Wed Jan 24 22:51:32 2024.
