 Q-Chem 5.4, Q-Chem, Inc., Pleasanton, CA (2021)
 Q-Chem 5.4.0 for Intel X86 EM64T Linux

User input:
--------------------------------------------------------------
$molecule
0 1
C                 -0.3000430000      1.1453250000     -0.2707540000
C                 -1.4039390000      0.2855180000     -0.7598580000
C                 -1.3552510000     -1.0503600000     -0.6760220000
C                 -0.1856410000     -1.7426170000     -0.0852770000
C                  0.9325230000     -0.9001620000      0.4111170000
C                  0.8904020000      0.4443030000      0.3300060000
O                 -0.3480580000      2.3551260000     -0.3481690000
O                 -0.1311690000     -2.9570220000     -0.0040300000
C                  1.9632970000      1.2588310000      0.8059460000
N                  2.8389110000      1.9025040000      1.1952550000
H                 -2.2480400000      0.8147650000     -1.1874750000
H                 -2.1571900000     -1.6880830000     -1.0306150000
H                  1.7773160000     -1.4274580000      0.8389170000
$end
$rem
MAX_SCF_CYCLES=200
BASIS  =  6-311++G(d,p)
GUI  =  2
JOB_TYPE  =  SP
METHOD  =  B3LYP
SOLVENT_METHOD = PCM
$end
$pcm
theory = CPCM
$end
$solvent
dielectric 37.219
opticaldielectric 1.43
$end

--------------------------------------------------------------

             Standard Nuclear Orientation (Angstroms)
    I     Atom           X                Y                Z
 ----------------------------------------------------------------
    1      C      -0.3000430000     1.1453250000    -0.2707540000
    2      C      -1.4039390000     0.2855180000    -0.7598580000
    3      C      -1.3552510000    -1.0503600000    -0.6760220000
    4      C      -0.1856410000    -1.7426170000    -0.0852770000
    5      C       0.9325230000    -0.9001620000     0.4111170000
    6      C       0.8904020000     0.4443030000     0.3300060000
    7      O      -0.3480580000     2.3551260000    -0.3481690000
    8      O      -0.1311690000    -2.9570220000    -0.0040300000
    9      C       1.9632970000     1.2588310000     0.8059460000
   10      N       2.8389110000     1.9025040000     1.1952550000
   11      H      -2.2480400000     0.8147650000    -1.1874750000
   12      H      -2.1571900000    -1.6880830000    -1.0306150000
   13      H       1.7773160000    -1.4274580000     0.8389170000
 ----------------------------------------------------------------

    9    -473.8372544849      5.37e-06  Convergence criterion met
 Total energy in the final basis set =     -473.8372544849

                    Orbital Energies (a.u.)
 --------------------------------------------------------------

 Alpha MOs
 -- Occupied --
-19.1615 -19.1596 -14.3479 -10.3104 -10.3042 -10.2633 -10.2469 -10.2432
-10.2241 -10.2229  -1.0953  -1.0891  -0.9472  -0.8881  -0.8237  -0.7393
 -0.6836  -0.6398  -0.5671  -0.5452  -0.5203  -0.4916  -0.4728  -0.4701
 -0.4529  -0.4394  -0.4287  -0.4065  -0.4015  -0.3744  -0.3268  -0.3149
 -0.3102  -0.2998

          Ground-State Mulliken Net Atomic Charges

     Atom                 Charge (a.u.)
  ----------------------------------------
      1 C                    -1.101157
      2 C                     0.214650
      3 C                     0.097641
      4 C                    -0.288701
      5 C                    -0.487705
      6 C                     2.272833
      7 O                    -0.257987
      8 O                    -0.275637
      9 C                    -0.747452
     10 N                    -0.258570
     11 H                     0.275328
     12 H                     0.273751
     13 H                     0.283006
  ----------------------------------------
  Sum of atomic charges =     0.000000

                    Cartesian Multipole Moments
 -----------------------------------------------------------------
    Charge (ESU x 10^10)
                 0.0000
    Dipole Moment (Debye)
         X      -3.8431      Y      -3.1661      Z      -1.6943
       Tot       5.2597
    Quadrupole Moments (Debye-Ang)
        XX     -59.8878     XY      -8.4796     YY     -80.6666
        XZ      -1.6102     YZ      -2.6575     ZZ     -55.6301

 Total job time:  20.41s(wall), 71.93s(cpu)
        *  Thank you very much for using Q-Chem.  Have a nice day.  *
