 Gaussian 16, Revision A.03,
 Gaussian 16:  ES64L-G16RevA.03 25-Dec-2016

 ----------------------------------------------------------------
 #P UB3LYP/6-311++G(d,p) SCRF=(PCM,Solvent=n,n-DiMethylFormamide)
 ----------------------------------------------------------------

 -------
 Reduced
 -------
 Symbolic Z-matrix:
 Charge = -2 Multiplicity = 1

                         Standard orientation:
 ---------------------------------------------------------------------
 Center     Atomic      Atomic             Coordinates (Angstroms)
 Number     Number       Type             X           Y           Z
 ---------------------------------------------------------------------
      1          6           0       -0.000188   -2.161949    1.375307
      2          6           0       -0.000064   -1.378743    0.033002
      3          6           0       -0.000184   -2.397774   -1.143557
      4          6           0       -1.282298   -0.529991   -0.023869
      5          6           0       -2.524911   -1.165471   -0.056168
      6          6           0       -3.733192   -0.454371   -0.061949
      7          6           0       -3.691119    0.945377   -0.069580
      8          6           0       -2.473397    1.603169   -0.045500
      9          6           0       -1.242895    0.891162    0.012100
     10          6           0        0.000086    1.649372    0.065541
     11          8           0        0.000126    2.919626    0.092358
     12          6           0        1.242970    0.891067    0.011682
     13          6           0        2.473506    1.603030   -0.046309
     14          6           0        3.691214    0.945221   -0.069941
     15          6           0        3.733237   -0.454519   -0.061457
     16          6           0        2.524922   -1.165590   -0.055486
     17          6           0        1.282317   -0.530089   -0.023820
     18          1           0        0.885568   -2.798184    1.458620
     19          1           0       -0.886968   -2.796649    1.459245
     20          1           0        0.000705   -1.462531    2.216377
     21          1           0       -0.881978   -3.045566   -1.112179
     22          1           0        0.000388   -1.872703   -2.102247
     23          1           0        0.880922   -3.046463   -1.111606
     24          1           0       -2.571841   -2.250406   -0.065678
     25          1           0       -4.680653   -0.986625   -0.074045
     26          1           0       -4.618741    1.515015   -0.094379
     27          1           0       -2.411055    2.685197   -0.059627
     28          1           0        2.411197    2.685051   -0.060891
     29          1           0        4.618867    1.514795   -0.095061
     30          1           0        4.680664   -0.986849   -0.073108
     31          1           0        2.571896   -2.250510   -0.064262
 ---------------------------------------------------------------------

 SCF Done:  E(UB3LYP) =  -693.714644749     A.U. after   22 cycles

 The electronic state is 1-A.
 Alpha  occ. eigenvalues --  -18.99661 -10.16777 -10.14123 -10.14089 -10.13698
 Alpha  occ. eigenvalues --  -10.13698 -10.13641 -10.13641 -10.13346 -10.13123
 Alpha  occ. eigenvalues --  -10.13123 -10.12020 -10.12020 -10.11932 -10.11931
 Alpha  occ. eigenvalues --  -10.11582 -10.11582  -0.92076  -0.82958  -0.80639
 Alpha  occ. eigenvalues --   -0.77504  -0.71762  -0.70595  -0.69336  -0.68866
 Alpha  occ. eigenvalues --   -0.66831  -0.60005  -0.59349  -0.56821  -0.54778
 Alpha  occ. eigenvalues --   -0.51962  -0.49449  -0.48440  -0.44362  -0.42292
 Alpha  occ. eigenvalues --   -0.42208  -0.41177  -0.40751  -0.40217  -0.39758
 Alpha  occ. eigenvalues --   -0.38144  -0.37746  -0.36239  -0.35041  -0.35013
 Alpha  occ. eigenvalues --   -0.34638  -0.33816  -0.32338  -0.32301  -0.32113
 Alpha  occ. eigenvalues --   -0.30778  -0.29117  -0.28118  -0.27480  -0.21740
 Alpha  occ. eigenvalues --   -0.21358  -0.20754  -0.20404  -0.17758  -0.06229
 Alpha virt. eigenvalues --   -0.00188   0.00751   0.01186   0.01809   0.01817
 Alpha virt. eigenvalues --    0.02217   0.02299   0.02408   0.02546   0.03556
 Alpha virt. eigenvalues --    0.04439   0.04470   0.04989   0.05795   0.06300

  Beta  occ. eigenvalues --  -18.99661 -10.16777 -10.14123 -10.14089 -10.13698
  Beta  occ. eigenvalues --  -10.13698 -10.13641 -10.13641 -10.13346 -10.13123
  Beta  occ. eigenvalues --  -10.13123 -10.12020 -10.12020 -10.11932 -10.11931
  Beta  occ. eigenvalues --  -10.11582 -10.11582  -0.92076  -0.82958  -0.80639
  Beta  occ. eigenvalues --   -0.77504  -0.71762  -0.70595  -0.69336  -0.68866
  Beta  occ. eigenvalues --   -0.66831  -0.60005  -0.59349  -0.56821  -0.54778
  Beta  occ. eigenvalues --   -0.51962  -0.49449  -0.48440  -0.44362  -0.42292
  Beta  occ. eigenvalues --   -0.42208  -0.41177  -0.40751  -0.40217  -0.39758
  Beta  occ. eigenvalues --   -0.38144  -0.37746  -0.36239  -0.35041  -0.35013
  Beta  occ. eigenvalues --   -0.34638  -0.33816  -0.32338  -0.32301  -0.32113
  Beta  occ. eigenvalues --   -0.30778  -0.29117  -0.28118  -0.27480  -0.21740
  Beta  occ. eigenvalues --   -0.21358  -0.20754  -0.20404  -0.17758  -0.06229
  Beta virt. eigenvalues --   -0.00188   0.00751   0.01186   0.01809   0.01817
  Beta virt. eigenvalues --    0.02217   0.02299   0.02408   0.02546   0.03556
  Beta virt. eigenvalues --    0.04439   0.04470   0.04989   0.05795   0.06300

 Mulliken charges and spin densities:
               1          2
     1  C   -0.786191   0.000000
     2  C    0.335224   0.000000
     3  C   -0.764839   0.000000
     4  C    0.008212  -0.000000
     5  C   -0.266213   0.000000
     6  C   -0.542463  -0.000000
     7  C   -0.561093   0.000000
     8  C   -0.297564   0.000000
     9  C    0.806937   0.000000
    10  C   -0.181756  -0.000000
    11  O   -0.726137   0.000000
    12  C    0.807651  -0.000000
    13  C   -0.298094  -0.000000
    14  C   -0.561684   0.000000
    15  C   -0.542022  -0.000000
    16  C   -0.266913  -0.000000
    17  C    0.007534   0.000000
    18  H    0.131914   0.000000
    19  H    0.131952  -0.000000
    20  H    0.144798   0.000000
    21  H    0.124622  -0.000000
    22  H    0.151794  -0.000000
    23  H    0.124740   0.000000
    24  H    0.096861   0.000000
    25  H    0.135080  -0.000000
    26  H    0.132841  -0.000000
    27  H    0.145038   0.000000
    28  H    0.145022  -0.000000
    29  H    0.132832   0.000000
    30  H    0.135098   0.000000
    31  H    0.096819  -0.000000
 Sum of Mulliken charges =  -2.00000  -0.00000

 Dipole moment (field-independent basis, Debye):
    X=             -0.0018    Y=            -13.0524    Z=             -0.0509  Tot=             13.0525
 Quadrupole moment (field-independent basis, Debye-Ang):
   XX=           -156.9369   YY=           -150.0620   ZZ=           -119.9212
   XY=              0.0002   XZ=              0.0013   YZ=             -0.9346

 Normal termination of Gaussian 16 at Sat Jan 13 19:22:07 2024.
