 Q-Chem 5.4, Q-Chem, Inc., Pleasanton, CA (2021)
 Q-Chem 5.4.0 for Intel X86 EM64T Linux

User input:
--------------------------------------------------------------
$molecule
0 1
N                 -2.5816120000      0.6580750000      2.2701650000
C                 -2.4221200000      0.3370370000      0.9618870000
C                 -3.5648540000      0.1893530000      0.1381900000
C                 -3.4475810000     -0.1357360000     -1.1959820000
C                 -2.1888250000     -0.3299250000     -1.7771530000
C                 -1.0491180000     -0.1933520000     -1.0003040000
C                  0.2695520000     -0.4111160000     -1.6696940000
O                  0.3479370000     -0.6973780000     -2.8531450000
C                  1.4928210000     -0.2651140000     -0.8342830000
C                  2.7439370000     -0.4604080000     -1.4192290000
C                  3.9002470000     -0.3302170000     -0.6622070000
Cl                 5.4444230000     -0.5824110000     -1.4302790000
C                  3.8077720000      0.0001990000      0.7003500000
Cl                 5.2340870000      0.1735600000      1.6871370000
C                  2.5623780000      0.1947930000      1.2832260000
C                  1.3992250000      0.0643660000      0.5243470000
C                  0.0794560000      0.2818200000      1.1894320000
O                  0.0549290000      0.5706400000      2.3902150000
C                 -1.1330800000      0.1409890000      0.3792910000
H                 -1.7583350000      0.7603710000      2.8498670000
H                 -3.5037570000      0.7879980000      2.6490570000
H                 -4.5449300000      0.3381320000      0.5797510000
H                 -4.3419970000     -0.2414990000     -1.7996640000
H                 -2.0817340000     -0.5852590000     -2.8228010000
H                  2.7999520000     -0.7143980000     -2.4696870000
H                  2.4812240000      0.4494810000      2.3315120000
$end
$rem
MAX_SCF_CYCLES=200
BASIS  =  6-311++G(d,p)
GUI  =  2
JOB_TYPE  =  SP
METHOD  =  B3LYP
SOLVENT_METHOD = PCM
$end
$pcm
theory = CPCM
$end
$solvent
dielectric 37.219
opticaldielectric 1.43
$end

--------------------------------------------------------------

             Standard Nuclear Orientation (Angstroms)
    I     Atom           X                Y                Z
 ----------------------------------------------------------------
    1      N      -2.5816120000     0.6580750000     2.2701650000
    2      C      -2.4221200000     0.3370370000     0.9618870000
    3      C      -3.5648540000     0.1893530000     0.1381900000
    4      C      -3.4475810000    -0.1357360000    -1.1959820000
    5      C      -2.1888250000    -0.3299250000    -1.7771530000
    6      C      -1.0491180000    -0.1933520000    -1.0003040000
    7      C       0.2695520000    -0.4111160000    -1.6696940000
    8      O       0.3479370000    -0.6973780000    -2.8531450000
    9      C       1.4928210000    -0.2651140000    -0.8342830000
   10      C       2.7439370000    -0.4604080000    -1.4192290000
   11      C       3.9002470000    -0.3302170000    -0.6622070000
   12      Cl      5.4444230000    -0.5824110000    -1.4302790000
   13      C       3.8077720000     0.0001990000     0.7003500000
   14      Cl      5.2340870000     0.1735600000     1.6871370000
   15      C       2.5623780000     0.1947930000     1.2832260000
   16      C       1.3992250000     0.0643660000     0.5243470000
   17      C       0.0794560000     0.2818200000     1.1894320000
   18      O       0.0549290000     0.5706400000     2.3902150000
   19      C      -1.1330800000     0.1409890000     0.3792910000
   20      H      -1.7583350000     0.7603710000     2.8498670000
   21      H      -3.5037570000     0.7879980000     2.6490570000
   22      H      -4.5449300000     0.3381320000     0.5797510000
   23      H      -4.3419970000    -0.2414990000    -1.7996640000
   24      H      -2.0817340000    -0.5852590000    -2.8228010000
   25      H       2.7999520000    -0.7143980000    -2.4696870000
   26      H       2.4812240000     0.4494810000     2.3315120000
 ----------------------------------------------------------------

    8   -1663.5919562845      8.45e-06  Convergence criterion met
 Total energy in the final basis set =    -1663.5919562845

                    Orbital Energies (a.u.)
 --------------------------------------------------------------

 Alpha MOs
 -- Occupied --
********-101.5757 -19.1320 -19.1284 -14.3341 -10.2853 -10.2822 -10.2717
-10.2707 -10.2489 -10.2176 -10.2162 -10.2131 -10.2119 -10.2076 -10.2029
-10.1966 -10.1919 -10.1875  -9.4907  -9.4903  -7.2555  -7.2551  -7.2457
 -7.2453  -7.2448  -7.2445  -1.0680  -1.0623  -0.9447  -0.9388  -0.8806
 -0.8801  -0.8628  -0.8033  -0.7829  -0.7615  -0.7577  -0.6898  -0.6706
 -0.6488  -0.6282  -0.5939  -0.5730  -0.5603  -0.5284  -0.5184  -0.5099
 -0.4973  -0.4801  -0.4757  -0.4651  -0.4623  -0.4595  -0.4509  -0.4370
 -0.4321  -0.4223  -0.4220  -0.3987  -0.3959  -0.3854  -0.3783  -0.3674
 -0.3490  -0.3478  -0.3355  -0.3285  -0.2903  -0.2865  -0.2820  -0.2772
 -0.2706  -0.2279

          Ground-State Mulliken Net Atomic Charges

     Atom                 Charge (a.u.)
  ----------------------------------------
      1 N                    -0.455086
      2 C                     0.359867
      3 C                    -0.249345
      4 C                    -0.524632
      5 C                     0.105424
      6 C                     0.353112
      7 C                    -0.819204
      8 O                    -0.281693
      9 C                    -0.463870
     10 C                    -0.357085
     11 C                     0.452223
     12 Cl                    0.585894
     13 C                     0.376259
     14 Cl                    0.585710
     15 C                    -0.108725
     16 C                    -0.133755
     17 C                    -1.013163
     18 O                    -0.306837
     19 C                     0.084918
     20 H                     0.345555
     21 H                     0.337097
     22 H                     0.212680
     23 H                     0.229784
     24 H                     0.186755
     25 H                     0.244745
     26 H                     0.253372
  ----------------------------------------
  Sum of atomic charges =     0.000000

                    Cartesian Multipole Moments
 -----------------------------------------------------------------
    Charge (ESU x 10^10)
                -0.0000
    Dipole Moment (Debye)
         X      -5.9750      Y       0.7980      Z       2.2612
       Tot       6.4382
    Quadrupole Moments (Debye-Ang)
        XX    -107.0816     XY      -2.0495     YY    -125.1811
        XZ      -5.2913     YZ      -0.6037     ZZ    -128.5986

 Total job time:  61.38s(wall), 367.02s(cpu)
        *  Thank you very much for using Q-Chem.  Have a nice day.  *
