 Gaussian 16, Revision A.03,
 Gaussian 16:  ES64L-G16RevA.03 25-Dec-2016

 ----------------------------------------------------------------
 #P UB3LYP/6-311++G(d,p) SCRF=(PCM,Solvent=n,n-DiMethylFormamide)
 ----------------------------------------------------------------

 -------
 Reduced
 -------
 Symbolic Z-matrix:
 Charge = -2 Multiplicity = 1

                         Standard orientation:
 ---------------------------------------------------------------------
 Center     Atomic      Atomic             Coordinates (Angstroms)
 Number     Number       Type             X           Y           Z
 ---------------------------------------------------------------------
      1          6           0       -8.423031    0.122168    0.908508
      2          6           0       -9.077534   -1.092635    0.991743
      3          6           0       -8.441228   -2.270161    0.539457
      4          6           0       -7.116787    0.214031    0.374825
      5          6           0       -6.469783   -0.979771   -0.083965
      6          6           0       -7.159742   -2.199874    0.013600
      7          6           0       -6.440825    1.483958    0.289486
      8          6           0       -5.112904    1.464471   -0.269306
      9          6           0       -4.457815    0.335222   -0.727865
     10          6           0       -5.108095   -0.954871   -0.651059
     11          8           0       -6.922322    2.612292    0.663482
     12          8           0       -4.546882   -2.013199   -1.053447
     13          1           0       -8.891128    1.039390    1.249534
     14          1           0      -10.081406   -1.142643    1.405870
     15          1           0       -8.953807   -3.225984    0.604785
     16          1           0       -6.645506   -3.087068   -0.340168
     17          8           0       -4.532773    2.703535   -0.320504
     18          6           0       -3.069253    0.415000   -1.308449
     19          6           0       -1.948607    0.182950   -0.273779
     20          6           0       -0.542540    0.253571   -0.882942
     21          6           0        0.589612    0.036941    0.129485
     22          6           0        1.996130    0.120570   -0.479094
     23          6           0        3.128731   -0.091576    0.534662
     24          6           0        4.536439   -0.003609   -0.069974
     25          6           0        5.664264   -0.211565    0.951730
     26          6           0        7.088432   -0.117699    0.330963
     27          6           0        8.206507   -0.311781    1.288891
     28         35           0       10.533834   -0.063105   -0.201298
     29          1           0       -5.246579    3.263657    0.061961
     30          1           0       -2.922614    1.396345   -1.772915
     31          1           0       -2.982354   -0.351251   -2.085895
     32          1           0       -2.101520   -0.798295    0.188553
     33          1           0       -2.039342    0.930041    0.523887
     34          1           0       -0.407880    1.230831   -1.367331
     35          1           0       -0.459293   -0.495502   -1.681998
     36          1           0        0.461134   -0.942564    0.608756
     37          1           0        0.500661    0.780241    0.933088
     38          1           0        2.122741    1.099709   -0.960381
     39          1           0        2.086690   -0.623707   -1.281605
     40          1           0        3.002973   -1.071295    1.014470
     41          1           0        3.035072    0.650977    1.338328
     42          1           0        4.662840    0.975188   -0.551631
     43          1           0        4.633800   -0.748402   -0.871057
     44          1           0        5.550336   -1.191055    1.432119
     45          1           0        5.576951    0.532366    1.753066
     46          1           0        7.184312    0.864297   -0.150508
     47          1           0        7.158849   -0.863942   -0.471151
     48          1           0        8.505392   -1.307764    1.584777
     49          1           0        8.529476    0.502061    1.923110
 ---------------------------------------------------------------------

 SCF Done:  E(UB3LYP) =  -3577.52812938     A.U. after   27 cycles

 The electronic state is 1-A.
 Alpha  occ. eigenvalues -- -482.75329 -62.40615 -56.22472 -56.22352 -56.22351
 Alpha  occ. eigenvalues --  -19.12710 -19.05531 -19.04562 -10.19883 -10.19872
 Alpha  occ. eigenvalues --  -10.19799 -10.19286 -10.17291 -10.16871 -10.16192
 Alpha  occ. eigenvalues --  -10.16037 -10.15930 -10.15773 -10.15766 -10.15761
 Alpha  occ. eigenvalues --  -10.15691 -10.15605 -10.15458 -10.15404 -10.15154
 Alpha  occ. eigenvalues --  -10.15124 -10.14895 -10.14288  -8.61484  -6.44017
 Alpha  occ. eigenvalues --   -6.43636  -6.43635  -2.55205  -2.55104  -2.55103
 Alpha  occ. eigenvalues --   -2.54803  -2.54803  -1.04416  -0.96985  -0.96366
 Alpha  occ. eigenvalues --   -0.84037  -0.81126  -0.79945  -0.78609  -0.76580
 Alpha  occ. eigenvalues --   -0.74157  -0.73537  -0.71627  -0.68995  -0.68030
 Alpha  occ. eigenvalues --   -0.65343  -0.63474  -0.60687  -0.59656  -0.57989
 Alpha  occ. eigenvalues --   -0.57547  -0.56919  -0.56334  -0.55080  -0.51896
 Alpha  occ. eigenvalues --   -0.48696  -0.48518  -0.47268  -0.46422  -0.45107
 Alpha  occ. eigenvalues --   -0.44002  -0.43849  -0.42861  -0.42326  -0.41798
 Alpha  occ. eigenvalues --   -0.41280  -0.41201  -0.39927  -0.39570  -0.39205
 Alpha  occ. eigenvalues --   -0.38764  -0.37761  -0.37058  -0.36549  -0.36372
 Alpha  occ. eigenvalues --   -0.35765  -0.35451  -0.34628  -0.33788  -0.33530
 Alpha  occ. eigenvalues --   -0.33051  -0.32603  -0.32344  -0.32065  -0.31886
 Alpha  occ. eigenvalues --   -0.31710  -0.31663  -0.31144  -0.30167  -0.25776
 Alpha  occ. eigenvalues --   -0.24504  -0.24504  -0.24203  -0.24004  -0.23580
 Alpha  occ. eigenvalues --   -0.21642  -0.20718  -0.11207
 Alpha virt. eigenvalues --   -0.10452  -0.01637  -0.00282  -0.00035   0.00577
 Alpha virt. eigenvalues --    0.00929   0.00985   0.01005   0.01428   0.01725
 Alpha virt. eigenvalues --    0.02207   0.02619   0.02628   0.03555   0.03691

  Beta  occ. eigenvalues -- -482.75329 -62.40615 -56.22472 -56.22352 -56.22351
  Beta  occ. eigenvalues --  -19.12710 -19.05531 -19.04562 -10.19883 -10.19872
  Beta  occ. eigenvalues --  -10.19799 -10.19286 -10.17291 -10.16871 -10.16192
  Beta  occ. eigenvalues --  -10.16037 -10.15930 -10.15773 -10.15766 -10.15761
  Beta  occ. eigenvalues --  -10.15691 -10.15605 -10.15458 -10.15404 -10.15154
  Beta  occ. eigenvalues --  -10.15124 -10.14895 -10.14288  -8.61484  -6.44017
  Beta  occ. eigenvalues --   -6.43636  -6.43635  -2.55205  -2.55104  -2.55103
  Beta  occ. eigenvalues --   -2.54803  -2.54803  -1.04416  -0.96985  -0.96366
  Beta  occ. eigenvalues --   -0.84037  -0.81126  -0.79945  -0.78609  -0.76580
  Beta  occ. eigenvalues --   -0.74157  -0.73537  -0.71627  -0.68995  -0.68030
  Beta  occ. eigenvalues --   -0.65343  -0.63474  -0.60687  -0.59656  -0.57989
  Beta  occ. eigenvalues --   -0.57547  -0.56919  -0.56334  -0.55080  -0.51896
  Beta  occ. eigenvalues --   -0.48696  -0.48518  -0.47268  -0.46422  -0.45107
  Beta  occ. eigenvalues --   -0.44002  -0.43849  -0.42861  -0.42326  -0.41798
  Beta  occ. eigenvalues --   -0.41280  -0.41201  -0.39927  -0.39570  -0.39205
  Beta  occ. eigenvalues --   -0.38764  -0.37761  -0.37058  -0.36549  -0.36372
  Beta  occ. eigenvalues --   -0.35765  -0.35451  -0.34628  -0.33788  -0.33530
  Beta  occ. eigenvalues --   -0.33051  -0.32603  -0.32344  -0.32065  -0.31886
  Beta  occ. eigenvalues --   -0.31710  -0.31663  -0.31144  -0.30167  -0.25776
  Beta  occ. eigenvalues --   -0.24504  -0.24504  -0.24203  -0.24004  -0.23580
  Beta  occ. eigenvalues --   -0.21642  -0.20718  -0.11207
  Beta virt. eigenvalues --   -0.10452  -0.01637  -0.00282  -0.00035   0.00577
  Beta virt. eigenvalues --    0.00929   0.00985   0.01005   0.01428   0.01725
  Beta virt. eigenvalues --    0.02207   0.02619   0.02628   0.03555   0.03691

 Mulliken charges and spin densities:
               1          2
     1  C   -0.033718  -0.000000
     2  C   -0.381891  -0.000000
     3  C   -0.474475  -0.000000
     4  C    0.527839   0.000000
     5  C   -0.128227   0.000000
     6  C    0.040705  -0.000000
     7  C   -0.949106  -0.000000
     8  C   -0.637946  -0.000000
     9  C    2.044723   0.000000
    10  C   -0.718648   0.000000
    11  O   -0.612291  -0.000000
    12  O   -0.534555  -0.000000
    13  H    0.154793   0.000000
    14  H    0.170135   0.000000
    15  H    0.165424  -0.000000
    16  H    0.155952   0.000000
    17  O   -0.306478  -0.000000
    18  C   -0.367672  -0.000000
    19  C   -0.854301   0.000000
    20  C   -0.306275  -0.000000
    21  C   -0.017884   0.000000
    22  C    0.006731   0.000000
    23  C   -0.008368   0.000000
    24  C   -0.126541  -0.000000
    25  C   -0.308105  -0.000000
    26  C   -0.296201  -0.000000
    27  C   -0.704648   0.000000
    28  Br  -0.742267   0.000000
    29  H    0.284429   0.000000
    30  H    0.208186   0.000000
    31  H    0.191569  -0.000000
    32  H    0.177110   0.000000
    33  H    0.160941  -0.000000
    34  H    0.109382   0.000000
    35  H    0.114018   0.000000
    36  H    0.125160   0.000000
    37  H    0.125737   0.000000
    38  H    0.131319  -0.000000
    39  H    0.132956  -0.000000
    40  H    0.131177   0.000000
    41  H    0.131448   0.000000
    42  H    0.132207   0.000000
    43  H    0.134211   0.000000
    44  H    0.138006   0.000000
    45  H    0.135701   0.000000
    46  H    0.153891   0.000000
    47  H    0.150700   0.000000
    48  H    0.188322  -0.000000
    49  H    0.186830  -0.000000
 Sum of Mulliken charges =  -2.00000  -0.00000

 Dipole moment (field-independent basis, Debye):
    X=              6.8427    Y=             -1.6276    Z=              3.0187  Tot=              7.6540
 Quadrupole moment (field-independent basis, Debye-Ang):
   XX=           -768.9696   YY=           -199.5124   ZZ=           -176.7113
   XY=             20.2263   XZ=             14.0309   YZ=             -8.2412

 Normal termination of Gaussian 16 at Thu Jan 25 06:09:30 2024.
