 Gaussian 16, Revision A.03,
 Gaussian 16:  ES64L-G16RevA.03 25-Dec-2016

 ----------------------------------------------------------------
 #P UB3LYP/6-311++G(d,p) SCRF=(PCM,Solvent=n,n-DiMethylFormamide)
 ----------------------------------------------------------------

 ------------------
 Quinone PCM in DMF
 ------------------
 Symbolic Z-matrix:
 Charge =  0 Multiplicity = 1

                         Standard orientation:
 ---------------------------------------------------------------------
 Center     Atomic      Atomic             Coordinates (Angstroms)
 Number     Number       Type             X           Y           Z
 ---------------------------------------------------------------------
      1          8           0        0.000330    2.712855    0.000103
      2          6           0        0.000135    1.490909   -0.000036
      3          6           0       -1.272807    0.714186   -0.000016
      4          6           0       -2.470197    1.398844   -0.000027
      5          6           0       -3.708448    0.716711   -0.000004
      6          6           0       -4.950912    1.404326   -0.000038
      7          6           0       -6.135462    0.708139    0.000017
      8          6           0       -6.135467   -0.708213    0.000113
      9          6           0       -4.950786   -1.404311    0.000133
     10          6           0       -3.708382   -0.716551    0.000050
     11          6           0       -2.470211   -1.398687    0.000021
     12          6           0       -1.272845   -0.713922   -0.000037
     13          6           0       -0.000066   -1.490856   -0.000158
     14          8           0       -0.000566   -2.712823   -0.000194
     15          6           0        1.272891   -0.714200   -0.000099
     16          6           0        2.470125   -1.398830   -0.000019
     17          6           0        3.708511   -0.716627    0.000028
     18          6           0        4.950651   -1.404229    0.000135
     19          6           0        6.135571   -0.708046    0.000146
     20          6           0        6.135623    0.707817    0.000048
     21          6           0        4.950783    1.404087   -0.000043
     22          6           0        3.708623    0.716639   -0.000029
     23          6           0        2.470175    1.398707   -0.000071
     24          6           0        1.272870    0.714117   -0.000079
     25          1           0       -2.446092    2.482683   -0.000054
     26          1           0       -4.948664    2.488935   -0.000124
     27          1           0       -7.078986    1.241927   -0.000027
     28          1           0       -7.078918   -1.242031    0.000164
     29          1           0       -4.948537   -2.488902    0.000214
     30          1           0       -2.446206   -2.482534    0.000034
     31          1           0        2.446067   -2.482691    0.000004
     32          1           0        4.948658   -2.488812    0.000221
     33          1           0        7.078750   -1.242385    0.000246
     34          1           0        7.078801    1.242195    0.000050
     35          1           0        4.948698    2.488709   -0.000126
     36          1           0        2.446061    2.482576   -0.000089
 ---------------------------------------------------------------------

 SCF Done:  E(UB3LYP) =  -996.322016290     A.U. after   14 cycles

 The electronic state is 1-A.
 Alpha  occ. eigenvalues --  -19.12613 -19.12612 -10.28039 -10.28038 -10.20837
 Alpha  occ. eigenvalues --  -10.20836 -10.20795 -10.20794 -10.20636 -10.20635
 Alpha  occ. eigenvalues --  -10.20593 -10.20593 -10.20113 -10.20112 -10.20111
 Alpha  occ. eigenvalues --  -10.20109 -10.19401 -10.19401 -10.19385 -10.19385
 Alpha  occ. eigenvalues --  -10.19338 -10.19338 -10.19309 -10.19308  -1.06240
 Alpha  occ. eigenvalues --   -1.06066  -0.90441  -0.90034  -0.86176  -0.84616
 Alpha  occ. eigenvalues --   -0.80033  -0.80017  -0.79238  -0.76354  -0.75351
 Alpha  occ. eigenvalues --   -0.74790  -0.68903  -0.68129  -0.64498  -0.64043
 Alpha  occ. eigenvalues --   -0.61870  -0.61775  -0.59010  -0.57961  -0.55372
 Alpha  occ. eigenvalues --   -0.53981  -0.53420  -0.50352  -0.50070  -0.48562
 Alpha  occ. eigenvalues --   -0.48297  -0.46633  -0.46057  -0.45476  -0.45468
 Alpha  occ. eigenvalues --   -0.45139  -0.44769  -0.44579  -0.43658  -0.42882
 Alpha  occ. eigenvalues --   -0.42737  -0.41765  -0.41637  -0.40288  -0.40229
 Alpha  occ. eigenvalues --   -0.38810  -0.37532  -0.36604  -0.35492  -0.35237
 Alpha  occ. eigenvalues --   -0.35141  -0.33974  -0.31196  -0.30878  -0.28553
 Alpha  occ. eigenvalues --   -0.27858  -0.27427  -0.26776  -0.24399  -0.24227
 Alpha virt. eigenvalues --   -0.11064  -0.09916  -0.06174  -0.04071  -0.01768
 Alpha virt. eigenvalues --   -0.00707  -0.00444  -0.00232   0.00341   0.00631
 Alpha virt. eigenvalues --    0.00792   0.01289   0.02430   0.02853   0.03305

  Beta  occ. eigenvalues --  -19.12613 -19.12612 -10.28039 -10.28038 -10.20837
  Beta  occ. eigenvalues --  -10.20836 -10.20795 -10.20794 -10.20636 -10.20635
  Beta  occ. eigenvalues --  -10.20593 -10.20593 -10.20113 -10.20112 -10.20111
  Beta  occ. eigenvalues --  -10.20109 -10.19401 -10.19401 -10.19385 -10.19385
  Beta  occ. eigenvalues --  -10.19338 -10.19338 -10.19309 -10.19308  -1.06240
  Beta  occ. eigenvalues --   -1.06066  -0.90441  -0.90034  -0.86176  -0.84616
  Beta  occ. eigenvalues --   -0.80033  -0.80017  -0.79238  -0.76354  -0.75351
  Beta  occ. eigenvalues --   -0.74790  -0.68903  -0.68129  -0.64498  -0.64043
  Beta  occ. eigenvalues --   -0.61870  -0.61775  -0.59010  -0.57961  -0.55372
  Beta  occ. eigenvalues --   -0.53981  -0.53420  -0.50352  -0.50070  -0.48562
  Beta  occ. eigenvalues --   -0.48297  -0.46633  -0.46057  -0.45476  -0.45468
  Beta  occ. eigenvalues --   -0.45139  -0.44769  -0.44579  -0.43658  -0.42882
  Beta  occ. eigenvalues --   -0.42737  -0.41765  -0.41637  -0.40288  -0.40229
  Beta  occ. eigenvalues --   -0.38810  -0.37532  -0.36604  -0.35492  -0.35237
  Beta  occ. eigenvalues --   -0.35141  -0.33974  -0.31196  -0.30878  -0.28553
  Beta  occ. eigenvalues --   -0.27858  -0.27427  -0.26776  -0.24399  -0.24227
  Beta virt. eigenvalues --   -0.11064  -0.09916  -0.06174  -0.04071  -0.01768
  Beta virt. eigenvalues --   -0.00707  -0.00444  -0.00232   0.00341   0.00631
  Beta virt. eigenvalues --    0.00792   0.01289   0.02430   0.02853   0.03305

 Mulliken charges and spin densities:
               1          2
     1  O   -0.274723  -0.000000
     2  C   -0.690772  -0.000000
     3  C    0.259915  -0.000000
     4  C    0.129933   0.000000
     5  C    0.105888  -0.000000
     6  C   -0.208865  -0.000000
     7  C   -0.342569  -0.000000
     8  C   -0.342631   0.000000
     9  C   -0.208868   0.000000
    10  C    0.106251   0.000000
    11  C    0.130307   0.000000
    12  C    0.259939  -0.000000
    13  C   -0.691111  -0.000000
    14  O   -0.274708  -0.000000
    15  C    0.259809   0.000000
    16  C    0.130059   0.000000
    17  C    0.105600   0.000000
    18  C   -0.208605   0.000000
    19  C   -0.342745   0.000000
    20  C   -0.342616   0.000000
    21  C   -0.208449   0.000000
    22  C    0.106166  -0.000000
    23  C    0.130286  -0.000000
    24  C    0.259628   0.000000
    25  H    0.159354   0.000000
    26  H    0.175208  -0.000000
    27  H    0.203649  -0.000000
    28  H    0.203640   0.000000
    29  H    0.175217  -0.000000
    30  H    0.159355   0.000000
    31  H    0.159365  -0.000000
    32  H    0.175243   0.000000
    33  H    0.203626  -0.000000
    34  H    0.203631   0.000000
    35  H    0.175238  -0.000000
    36  H    0.159356  -0.000000
 Sum of Mulliken charges =  -0.00000   0.00000

 Dipole moment (field-independent basis, Debye):
    X=              0.0035    Y=             -0.0002    Z=              0.0001  Tot=              0.0035
 Quadrupole moment (field-independent basis, Debye-Ang):
   XX=            -76.8826   YY=           -143.5807   ZZ=           -143.2957
   XY=             -0.0029   XZ=              0.0007   YZ=             -0.0032

 Normal termination of Gaussian 16 at Sun Jan 14 01:04:36 2024.
