 Q-Chem 5.4, Q-Chem, Inc., Pleasanton, CA (2021)
 Q-Chem 5.4.0 for Intel X86 EM64T Linux

User input:
--------------------------------------------------------------
$molecule
-1 2
C                  5.8491260000     -5.2149870000      1.1747280000
C                  6.7562100000     -5.1200450000      0.1389640000
C                  6.5693510000     -4.1540670000     -0.8732560000
C                  4.7342760000     -4.3605580000      1.2402270000
C                  4.5469080000     -3.3913720000      0.2248700000
C                  5.4802850000     -3.3078420000     -0.8234760000
C                  3.7890570000     -4.4900380000      2.3572980000
C                  2.6655620000     -3.5735400000      2.3545390000
C                  2.4818180000     -2.6225910000      1.3584510000
C                  3.3995080000     -2.4742470000      0.2457810000
O                  3.9644570000     -5.3559950000      3.2562820000
O                  3.2414660000     -1.6147770000     -0.6625990000
H                  5.9710420000     -5.9475300000      1.9623010000
H                  5.3156360000     -2.5591980000     -1.5877840000
Br                 8.2547150000     -6.3314270000      0.1297870000
Br                 7.7972290000     -3.9686950000     -2.3465530000
C                  1.6871870000     -3.6963110000      3.4963230000
C                  1.2989470000     -1.6868280000      1.3917100000
H                  2.0084210000     -4.4951550000      4.1645500000
H                  0.6750220000     -3.9222990000      3.1387030000
H                  1.6168760000     -2.7641520000      4.0704000000
H                  0.3490590000     -2.2352430000      1.3723020000
H                  1.3372760000     -1.0232600000      0.5279490000
H                  1.2913730000     -1.0772750000      2.3037500000
$end

$rem
BASIS  =  6-311++G(d,p)
GUI  =  2
JOB_TYPE  =  SP
METHOD  =  B3LYP
SCF_CONVERGENCE  = 8
SOLVENT_METHOD = sm12
$end

$smx
solvent dimethylformamide
charges CM5
$end

--------------------------------------------------------------

             Standard Nuclear Orientation (Angstroms)
    I     Atom           X                Y                Z
 ----------------------------------------------------------------
    1      C       5.8491260000    -5.2149870000     1.1747280000
    2      C       6.7562100000    -5.1200450000     0.1389640000
    3      C       6.5693510000    -4.1540670000    -0.8732560000
    4      C       4.7342760000    -4.3605580000     1.2402270000
    5      C       4.5469080000    -3.3913720000     0.2248700000
    6      C       5.4802850000    -3.3078420000    -0.8234760000
    7      C       3.7890570000    -4.4900380000     2.3572980000
    8      C       2.6655620000    -3.5735400000     2.3545390000
    9      C       2.4818180000    -2.6225910000     1.3584510000
   10      C       3.3995080000    -2.4742470000     0.2457810000
   11      O       3.9644570000    -5.3559950000     3.2562820000
   12      O       3.2414660000    -1.6147770000    -0.6625990000
   13      H       5.9710420000    -5.9475300000     1.9623010000
   14      H       5.3156360000    -2.5591980000    -1.5877840000
   15      Br      8.2547150000    -6.3314270000     0.1297870000
   16      Br      7.7972290000    -3.9686950000    -2.3465530000
   17      C       1.6871870000    -3.6963110000     3.4963230000
   18      C       1.2989470000    -1.6868280000     1.3917100000
   19      H       2.0084210000    -4.4951550000     4.1645500000
   20      H       0.6750220000    -3.9222990000     3.1387030000
   21      H       1.6168760000    -2.7641520000     4.0704000000
   22      H       0.3490590000    -2.2352430000     1.3723020000
   23      H       1.3372760000    -1.0232600000     0.5279490000
   24      H       1.2913730000    -1.0772750000     2.3037500000
 ----------------------------------------------------------------

   16   -5761.0706895640      9.54e-09  Convergence criterion met
 Total energy in the final basis set =    -5761.1501694836

                    Orbital Energies (a.u.)
 --------------------------------------------------------------

 Alpha MOs
 -- Occupied --
********-482.8373 -62.4899 -62.4899 -56.3105 -56.3105 -56.3066 -56.3066
-56.3064 -56.3064 -19.0786 -19.0786 -10.2455 -10.2451 -10.2257 -10.2257
-10.1930 -10.1930 -10.1873 -10.1869 -10.1773 -10.1768 -10.1643 -10.1643
 -8.6985  -8.6985  -6.5300  -6.5300  -6.5170  -6.5170  -6.5166  -6.5165
 -2.6408  -2.6408  -2.6372  -2.6371  -2.6370  -2.6368  -2.6265  -2.6265
 -2.6265  -2.6264  -1.0045  -1.0021  -0.8957  -0.8372  -0.8148  -0.8090
 -0.7537  -0.7460  -0.7334  -0.6800  -0.6598  -0.6211  -0.5910  -0.5631
 -0.5208  -0.4883  -0.4865  -0.4546  -0.4470  -0.4460  -0.4288  -0.4171
 -0.4134  -0.4044  -0.3952  -0.3942  -0.3878  -0.3818  -0.3748  -0.3738
 -0.3523  -0.3511  -0.3227  -0.3139  -0.3125  -0.2838  -0.2675  -0.2628
 -0.2500  -0.2462  -0.2387  -0.1567

 Beta MOs
 -- Occupied --
********-482.8373 -62.4899 -62.4899 -56.3105 -56.3105 -56.3066 -56.3066
-56.3064 -56.3064 -19.0719 -19.0719 -10.2451 -10.2446 -10.2244 -10.2244
-10.1930 -10.1930 -10.1866 -10.1861 -10.1761 -10.1755 -10.1644 -10.1644
 -8.6985  -8.6985  -6.5300  -6.5300  -6.5170  -6.5169  -6.5166  -6.5165
 -2.6408  -2.6408  -2.6372  -2.6371  -2.6370  -2.6368  -2.6265  -2.6265
 -2.6264  -2.6264  -0.9932  -0.9905  -0.8944  -0.8329  -0.8141  -0.8075
 -0.7521  -0.7442  -0.7304  -0.6784  -0.6532  -0.6205  -0.5876  -0.5600
 -0.5194  -0.4861  -0.4843  -0.4532  -0.4466  -0.4392  -0.4256  -0.4137
 -0.4074  -0.3999  -0.3940  -0.3929  -0.3864  -0.3744  -0.3701  -0.3516
 -0.3507  -0.3484  -0.3201  -0.3124  -0.3052  -0.2837  -0.2572  -0.2457
 -0.2439  -0.2378  -0.2327

          Ground-State Mulliken Net Atomic Charges

     Atom                 Charge (a.u.)    Spin (a.u.)
  --------------------------------------------------------
      1 C                    -0.498343       0.019187
      2 C                     1.605763       0.025702
      3 C                     1.613856       0.025642
      4 C                    -0.568579       0.047169
      5 C                    -0.568778       0.047232
      6 C                    -0.499159       0.019222
      7 C                    -2.264525       0.036679
      8 C                     0.430454       0.120705
      9 C                     0.433060       0.120826
     10 C                    -2.262542       0.036656
     11 O                    -0.325295       0.245183
     12 O                    -0.325296       0.245228
     13 H                     0.173116      -0.002381
     14 H                     0.173644      -0.002378
     15 Br                    0.089397       0.001826
     16 Br                    0.086768       0.001826
     17 C                     0.256232      -0.001081
     18 C                     0.256829      -0.001077
     19 H                     0.179882      -0.001592
     20 H                     0.208454       0.004239
     21 H                     0.208334       0.004272
     22 H                     0.208496       0.004260
     23 H                     0.179851      -0.001604
     24 H                     0.208383       0.004259
  --------------------------------------------------------
  Sum of atomic charges =    -1.000000

                    Cartesian Multipole Moments
 -----------------------------------------------------------------
    Charge (ESU x 10^10)
                -4.8032
    Dipole Moment (Debye)
         X     -21.4489      Y      18.3016      Z      -3.9774
       Tot      28.4750
    Quadrupole Moments (Debye-Ang)
        XX    -233.0568     XY      89.6779     YY    -210.5743
        XZ     -13.7101     YZ      28.6471     ZZ    -147.6609

 Total job time:  538.81s(wall), 4162.49s(cpu)
        *  Thank you very much for using Q-Chem.  Have a nice day.  *
