 Gaussian 16, Revision A.03,
 Gaussian 16:  ES64L-G16RevA.03 25-Dec-2016

 --------------------------------------
 #P UB3LYP/6-311++G(d,p) nosym opt freq
 --------------------------------------

 -------
 Radical
 -------
 Symbolic Z-matrix:
 Charge = -2 Multiplicity = 2

 SCF Done:  E(UB3LYP) =  -1158.61269963     A.U. after   25 cycles
 SCF Done:  E(UB3LYP) =  -1158.61269962     A.U. after   10 cycles
 Optimization completed.
    -- Stationary point found.
 Normal termination of Gaussian 16 at Tue Jan  9 21:56:57 2024.

 ----------------------------------------------------------------------
 #P Geom=AllCheck Guess=TCheck SCRF=Check GenChk UB3LYP/6-311++G(d,p) F
 req
 ----------------------------------------------------------------------

 Structure from the checkpoint file:  "326-rad.chk"
 -------
 Radical
 -------
 Charge = -2 Multiplicity = 2

                          Input orientation:
 ---------------------------------------------------------------------
 Center     Atomic      Atomic             Coordinates (Angstroms)
 Number     Number       Type             X           Y           Z
 ---------------------------------------------------------------------
      1          6           0       -1.837401    2.794494   -0.792781
      2          6           0       -2.920065    1.982655   -0.506851
      3          6           0       -2.698910    0.662882   -0.066965
      4          6           0       -0.510221    2.334339   -0.655255
      5          6           0       -0.284774    0.992228   -0.207933
      6          6           0       -1.407810    0.182451    0.077913
      7          6           0        0.590099    3.259762   -0.979671
      8          6           0        1.977031    2.739576   -0.822777
      9          6           0        2.121304    1.368855   -0.364655
     10          6           0        1.080203    0.534684   -0.071720
     11          8           0        0.359378    4.431316   -1.369625
     12          8           0        2.983760    3.451807   -1.074324
     13          1           0       -1.968391    3.815961   -1.133689
     14          1           0       -3.934238    2.359949   -0.620574
     15          1           0       -3.541016    0.014222    0.161253
     16          1           0       -1.240383   -0.831185    0.415810
     17          1           0        3.134497    0.999661   -0.253639
     18         16           0        1.455818   -1.171738    0.495896
     19          8           0        2.941103   -1.273307    0.511761
     20          8           0        0.810259   -2.075035   -0.504096
     21          8           0        0.839108   -1.284974    1.852188
 ---------------------------------------------------------------------

 SCF Done:  E(UB3LYP) =  -1158.61269962     A.U. after    2 cycles

 Alpha  occ. eigenvalues --  -88.78453 -18.84080 -18.83528 -18.82895 -18.82727
 Alpha  occ. eigenvalues --  -18.82727  -9.98224  -9.97738  -9.95835  -9.95591
 Alpha  occ. eigenvalues --   -9.95560  -9.95083  -9.94934  -9.94556  -9.94449
 Alpha  occ. eigenvalues --   -9.92475  -7.84300  -5.80572  -5.80554  -5.80490
 Alpha  occ. eigenvalues --   -0.84367  -0.77137  -0.74348  -0.70894  -0.70513
 Alpha  occ. eigenvalues --   -0.63678  -0.57768  -0.52951  -0.50176  -0.45784
 Alpha  occ. eigenvalues --   -0.39041  -0.37760  -0.35897  -0.31499  -0.27830
 Alpha  occ. eigenvalues --   -0.26812  -0.24506  -0.22273  -0.20971  -0.19920
 Alpha  occ. eigenvalues --   -0.19073  -0.18857  -0.18037  -0.17987  -0.16866
 Alpha  occ. eigenvalues --   -0.15158  -0.14042  -0.12511  -0.12024  -0.10889
 Alpha  occ. eigenvalues --   -0.08331  -0.06917  -0.06828  -0.03767  -0.03475
 Alpha  occ. eigenvalues --   -0.03140  -0.02725  -0.01455   0.00309   0.00886
 Alpha  occ. eigenvalues --    0.01729   0.07867
 Alpha virt. eigenvalues --    0.15302   0.17566   0.18977   0.19814   0.21598
 Alpha virt. eigenvalues --    0.21646   0.22792   0.24331   0.25114   0.25840
 Alpha virt. eigenvalues --    0.26094   0.26471   0.26949   0.26980   0.27559

  Beta  occ. eigenvalues --  -88.78456 -18.83438 -18.82897 -18.82850 -18.82705
  Beta  occ. eigenvalues --  -18.82704  -9.98078  -9.97632  -9.95823  -9.95500
  Beta  occ. eigenvalues --   -9.95460  -9.94910  -9.94907  -9.94595  -9.94391
  Beta  occ. eigenvalues --   -9.92461  -7.84303  -5.80574  -5.80557  -5.80498
  Beta  occ. eigenvalues --   -0.84349  -0.76023  -0.73112  -0.70882  -0.70465
  Beta  occ. eigenvalues --   -0.63472  -0.57409  -0.52719  -0.49992  -0.44988
  Beta  occ. eigenvalues --   -0.38879  -0.37491  -0.35545  -0.31365  -0.27682
  Beta  occ. eigenvalues --   -0.26521  -0.24356  -0.22127  -0.20838  -0.19863
  Beta  occ. eigenvalues --   -0.18889  -0.18666  -0.17861  -0.16698  -0.16345
  Beta  occ. eigenvalues --   -0.14820  -0.12678  -0.12335  -0.11849  -0.08804
  Beta  occ. eigenvalues --   -0.07053  -0.06795  -0.06438  -0.03626  -0.03030
  Beta  occ. eigenvalues --   -0.02614  -0.02321  -0.00859   0.00891   0.01487
  Beta  occ. eigenvalues --    0.02319
  Beta virt. eigenvalues --    0.14494   0.15291   0.17561   0.19650   0.19805
  Beta virt. eigenvalues --    0.21655   0.22787   0.22936   0.24359   0.25137
  Beta virt. eigenvalues --    0.26110   0.26493   0.26976   0.26988   0.27138

 Mulliken charges and spin densities:
               1          2
     1  C    0.103557   0.051831
     2  C   -0.429604   0.003014
     3  C   -0.885890   0.080131
     4  C    0.624999   0.039659
     5  C    1.109285   0.056093
     6  C   -0.560149  -0.018153
     7  C   -0.711433   0.100230
     8  C   -0.195724   0.125783
     9  C    0.180379  -0.019811
    10  C   -0.639318   0.089946
    11  O   -0.398970   0.244487
    12  O   -0.413696   0.248915
    13  H    0.130863  -0.004660
    14  H    0.089845  -0.001203
    15  H    0.103383  -0.005795
    16  H    0.137696   0.002566
    17  H    0.235355  -0.002808
    18  S    0.476290  -0.001793
    19  O   -0.265274   0.000039
    20  O   -0.345777   0.005766
    21  O   -0.345816   0.005762
 Sum of Mulliken charges =  -2.00000   1.00000

 Dipole moment (field-independent basis, Debye):
    X=            -11.6071    Y=             -9.0243    Z=              2.0090  Tot=             14.8391
 Quadrupole moment (field-independent basis, Debye-Ang):
   XX=           -150.3409   YY=           -191.5056   ZZ=           -123.1191
   XY=             -9.3736   XZ=              2.1830   YZ=             24.6656

  Exact polarizability: 241.470   7.576 203.143  -4.312 -34.087 113.301
 Approx polarizability: 398.211  36.348 319.768 -15.165 -53.045 180.974

                      1                      2                      3
                      A                      A                      A
 Frequencies --     45.5069                57.8687               100.5994
 Red. masses --     12.6987                10.6811                 6.3416
 Frc consts  --      0.0155                 0.0211                 0.0378
 IR Inten    --      2.3480                 0.8283                 0.7749

                      4                      5                      6
                      A                      A                      A
 Frequencies --    135.8935               147.4586               213.7609
 Red. masses --      5.7211                 9.2751                 5.2799
 Frc consts  --      0.0622                 0.1188                 0.1421
 IR Inten    --      3.3951                 5.4739                 0.2579

                      7                      8                      9
                      A                      A                      A
 Frequencies --    232.8974               258.1238               278.4904
 Red. masses --     13.4477                 9.0298                 9.3589
 Frc consts  --      0.4298                 0.3545                 0.4277
 IR Inten    --      1.5699                 3.5388                 0.0228

                     10                     11                     12
                      A                      A                      A
 Frequencies --    324.0254               364.7934               404.6653
 Red. masses --      9.1052                14.4947                 5.6386
 Frc consts  --      0.5632                 1.1365                 0.5440
 IR Inten    --      1.5489                 0.3960                 0.0208

                     13                     14                     15
                      A                      A                      A
 Frequencies --    427.3235               432.5103               480.6312
 Red. masses --      4.2862                 9.9230                 7.9895
 Frc consts  --      0.4611                 1.0937                 1.0874
 IR Inten    --      0.0332                12.6844                 4.0724

                     16                     17                     18
                      A                      A                      A
 Frequencies --    497.7729               507.1684               527.2883
 Red. masses --     15.6846                 9.6454                 4.2732
 Frc consts  --      2.2897                 1.4618                 0.7000
 IR Inten    --     17.6772                18.1170                12.6383

                     19                     20                     21
                      A                      A                      A
 Frequencies --    585.2231               614.1891               634.4025
 Red. masses --     10.8337                 4.8074                10.0780
 Frc consts  --      2.1861                 1.0685                 2.3897
 IR Inten    --     90.6857                 0.0820               119.7822

                     22                     23                     24
                      A                      A                      A
 Frequencies --    665.8017               706.2198               714.6777
 Red. masses --      6.5375                 3.1154                 6.6954
 Frc consts  --      1.7075                 0.9155                 2.0149
 IR Inten    --      6.3395                10.5869                 3.1621

                     25                     26                     27
                      A                      A                      A
 Frequencies --    742.2397               772.5078               777.3845
 Red. masses --      1.6299                 4.9604                 6.3855
 Frc consts  --      0.5290                 1.7441                 2.2736
 IR Inten    --     50.0884                 0.1427                 1.5277

                     28                     29                     30
                      A                      A                      A
 Frequencies --    835.7401               906.6299               915.6728
 Red. masses --      1.4911                 1.3461                 6.6159
 Frc consts  --      0.6136                 0.6519                 3.2683
 IR Inten    --      0.1328                15.4021                23.0507

                     31                     32                     33
                      A                      A                      A
 Frequencies --    939.7940               951.5527               980.4050
 Red. masses --      1.3062                 1.2984                10.6545
 Frc consts  --      0.6797                 0.6927                 6.0339
 IR Inten    --      0.1093                 2.1720               209.3963

                     34                     35                     36
                      A                      A                      A
 Frequencies --    988.3382              1047.7707              1117.7238
 Red. masses --      8.4552                 2.0998                 1.8619
 Frc consts  --      4.8662                 1.3582                 1.3705
 IR Inten    --     47.8343                29.8230                12.1138

                     37                     38                     39
                      A                      A                      A
 Frequencies --   1127.5261              1141.6432              1158.8290
 Red. masses --     18.6160                 5.9674                 1.8435
 Frc consts  --     13.9441                 4.5825                 1.4586
 IR Inten    --    321.1492               177.3180                61.2287

                     40                     41                     42
                      A                      A                      A
 Frequencies --   1185.7894              1212.9489              1241.1468
 Red. masses --      1.6254                 3.1825                 2.9214
 Frc consts  --      1.3466                 2.7587                 2.6515
 IR Inten    --     26.9310                27.0049                 5.9865

                     43                     44                     45
                      A                      A                      A
 Frequencies --   1287.6786              1336.3042              1372.3503
 Red. masses --      1.7664                 6.4239                 3.0458
 Frc consts  --      1.7257                 6.7587                 3.3797
 IR Inten    --      0.0611                13.7277                 7.6697

                     46                     47                     48
                      A                      A                      A
 Frequencies --   1443.2997              1485.2665              1506.9466
 Red. masses --      2.5092                 4.1832                 3.4089
 Frc consts  --      3.0796                 5.4372                 4.5609
 IR Inten    --     50.5886               199.6752               186.3713

                     49                     50                     51
                      A                      A                      A
 Frequencies --   1520.8802              1573.6485              1581.0906
 Red. masses --      7.0358                 6.9759                 7.7776
 Frc consts  --      9.5885                10.1780                11.4554
 IR Inten    --    297.7740               106.6227               142.3038

                     52                     53                     54
                      A                      A                      A
 Frequencies --   1618.9765              3108.0895              3134.4260
 Red. masses --      5.4554                 1.0840                 1.0917
 Frc consts  --      8.4247                 6.1698                 6.3192
 IR Inten    --     20.5039                36.4047                90.7532

                     55                     56                     57
                      A                      A                      A
 Frequencies --   3168.6229              3181.8693              3208.6453
 Red. masses --      1.0909                 1.0886                 1.0920
 Frc consts  --      6.4534                 6.4934                 6.6242
 IR Inten    --     28.2412                 3.6253                 4.3888

 - Thermochemistry -
 -------------------
 Temperature   298.150 Kelvin.  Pressure   1.00000 Atm.
 Atom     1 has atomic number  6 and mass  12.00000

 Molecular mass:   236.98577 amu.
 Principal axes and moments of inertia in atomic units:
                           1         2         3
     Eigenvalues --  2601.719174115.799506364.68955
           X           -0.35748   0.93384   0.01200
           Y            0.88679   0.33538   0.31799
           Z           -0.29293  -0.12431   0.94802
 This molecule is an asymmetric top.
 Rotational symmetry number  1.
 Warning -- assumption of classical behavior for rotation
           may cause significant error
 Rotational temperatures (Kelvin)      0.03329     0.02104     0.01361
 Rotational constants (GHZ):           0.69367     0.43849     0.28356
 Zero-point vibrational energy     346492.5 (Joules/Mol)
                                   82.81371 (Kcal/Mol)
 Warning -- explicit consideration of  20 degrees of freedom as
           vibrations may cause significant error
 Vibrational temperatures:     65.47    83.26   144.74   195.52   212.16
          (Kelvin)            307.55   335.09   371.38   400.69   466.20
                              524.86   582.22   614.82   622.29   691.52
                              716.18   729.70   758.65   842.01   883.68
                              912.76   957.94  1016.09  1028.26  1067.92
                             1111.47  1118.48  1202.44  1304.44  1317.45
                             1352.15  1369.07  1410.58  1422.00  1507.51
                             1608.16  1622.26  1642.57  1667.30  1706.09
                             1745.16  1785.73  1852.68  1922.64  1974.51
                             2076.59  2136.97  2168.16  2188.21  2264.13
                             2274.84  2329.35  4471.85  4509.74  4558.94
                             4578.00  4616.52

 Zero-point correction=                           0.131972 (Hartree/Particle)
 Thermal correction to Energy=                    0.144624
 Thermal correction to Enthalpy=                  0.145569
 Thermal correction to Gibbs Free Energy=         0.091438
 Sum of electronic and zero-point Energies=          -1158.480728
 Sum of electronic and thermal Energies=             -1158.468075
 Sum of electronic and thermal Enthalpies=           -1158.467131
 Sum of electronic and thermal Free Energies=        -1158.521262

                     E (Thermal)             CV                S
                      KCal/Mol        Cal/Mol-Kelvin    Cal/Mol-Kelvin
 Total                   90.753             48.882            113.928
 Electronic               0.000              0.000              1.377
 Translational            0.889              2.981             42.290
 Rotational               0.889              2.981             32.588
 Vibrational             88.976             42.921             37.672
 Vibration     1          0.595              1.979              5.004
 Vibration     2          0.596              1.974              4.529
 Vibration     3          0.604              1.949              3.443
 Vibration     4          0.614              1.917              2.861
 Vibration     5          0.617              1.905              2.705
 Vibration     6          0.644              1.820              2.011
 Vibration     7          0.654              1.791              1.857
 Vibration     8          0.667              1.749              1.674
 Vibration     9          0.679              1.713              1.543
 Vibration    10          0.709              1.627              1.290
 Vibration    11          0.738              1.545              1.102
 Vibration    12          0.770              1.460              0.946
 Vibration    13          0.789              1.411              0.867
 Vibration    14          0.793              1.399              0.850
 Vibration    15          0.837              1.293              0.708
 Vibration    16          0.853              1.255              0.664
 Vibration    17          0.862              1.234              0.640
 Vibration    18          0.882              1.190              0.593
 Vibration    19          0.942              1.063              0.476
 Vibration    20          0.974              1.002              0.426

 Optimization completed.
    -- Stationary point found.
 Normal termination of Gaussian 16 at Tue Jan  9 22:34:05 2024.
