 Q-Chem 5.4, Q-Chem, Inc., Pleasanton, CA (2021)
 Q-Chem 5.4.0 for Intel X86 EM64T Linux

User input:
--------------------------------------------------------------
$molecule
-2 2
C                 -1.8374010000      2.7944940000     -0.7927810000
C                 -2.9200650000      1.9826550000     -0.5068510000
C                 -2.6989100000      0.6628820000     -0.0669650000
C                 -0.5102210000      2.3343390000     -0.6552550000
C                 -0.2847740000      0.9922280000     -0.2079330000
C                 -1.4078100000      0.1824510000      0.0779130000
C                  0.5900990000      3.2597620000     -0.9796710000
C                  1.9770310000      2.7395760000     -0.8227770000
C                  2.1213040000      1.3688550000     -0.3646550000
C                  1.0802030000      0.5346840000     -0.0717200000
O                  0.3593780000      4.4313160000     -1.3696250000
O                  2.9837600000      3.4518070000     -1.0743240000
H                 -1.9683910000      3.8159610000     -1.1336890000
H                 -3.9342380000      2.3599490000     -0.6205740000
H                 -3.5410160000      0.0142220000      0.1612530000
H                 -1.2403830000     -0.8311850000      0.4158100000
H                  3.1344970000      0.9996610000     -0.2536390000
S                  1.4558180000     -1.1717380000      0.4958960000
O                  2.9411030000     -1.2733070000      0.5117610000
O                  0.8102590000     -2.0750350000     -0.5040960000
O                  0.8391080000     -1.2849740000      1.8521880000
$end
$rem
MAX_SCF_CYCLES=200
BASIS  =  6-311++G(d,p)
GUI  =  2
JOB_TYPE  =  SP
METHOD  =  B3LYP
SOLVENT_METHOD = PCM
$end
$pcm
theory = CPCM
$end
$solvent
dielectric 37.219
opticaldielectric 1.43
$end

--------------------------------------------------------------

             Standard Nuclear Orientation (Angstroms)
    I     Atom           X                Y                Z
 ----------------------------------------------------------------
    1      C      -1.8374010000     2.7944940000    -0.7927810000
    2      C      -2.9200650000     1.9826550000    -0.5068510000
    3      C      -2.6989100000     0.6628820000    -0.0669650000
    4      C      -0.5102210000     2.3343390000    -0.6552550000
    5      C      -0.2847740000     0.9922280000    -0.2079330000
    6      C      -1.4078100000     0.1824510000     0.0779130000
    7      C       0.5900990000     3.2597620000    -0.9796710000
    8      C       1.9770310000     2.7395760000    -0.8227770000
    9      C       2.1213040000     1.3688550000    -0.3646550000
   10      C       1.0802030000     0.5346840000    -0.0717200000
   11      O       0.3593780000     4.4313160000    -1.3696250000
   12      O       2.9837600000     3.4518070000    -1.0743240000
   13      H      -1.9683910000     3.8159610000    -1.1336890000
   14      H      -3.9342380000     2.3599490000    -0.6205740000
   15      H      -3.5410160000     0.0142220000     0.1612530000
   16      H      -1.2403830000    -0.8311850000     0.4158100000
   17      H       3.1344970000     0.9996610000    -0.2536390000
   18      S       1.4558180000    -1.1717380000     0.4958960000
   19      O       2.9411030000    -1.2733070000     0.5117610000
   20      O       0.8102590000    -2.0750350000    -0.5040960000
   21      O       0.8391080000    -1.2849740000     1.8521880000
 ----------------------------------------------------------------

    9   -1158.8793335833      6.13e-06  Convergence criterion met
 Total energy in the final basis set =    -1158.8793335833

                    Orbital Energies (a.u.)
 --------------------------------------------------------------

 Alpha MOs
 -- Occupied --
-89.0436 -19.0903 -19.0878 -19.0877 -19.0832 -19.0811 -10.2245 -10.2205
-10.1952 -10.1879 -10.1747 -10.1717 -10.1705 -10.1701 -10.1689 -10.1663
 -8.1023  -6.0651  -6.0649  -6.0639  -1.1050  -1.0165  -0.9893  -0.9709
 -0.9669  -0.8645  -0.8100  -0.7558  -0.7311  -0.6956  -0.6227  -0.6128
 -0.5924  -0.5527  -0.5109  -0.5016  -0.4867  -0.4531  -0.4513  -0.4481
 -0.4421  -0.4242  -0.4216  -0.4188  -0.4074  -0.3886  -0.3725  -0.3535
 -0.3518  -0.3490  -0.3333  -0.3287  -0.3207  -0.2953  -0.2902  -0.2841
 -0.2620  -0.2588  -0.2533  -0.2318  -0.2300  -0.1627

 Beta MOs
 -- Occupied --
-89.0437 -19.0904 -19.0875 -19.0875 -19.0776 -19.0745 -10.2228 -10.2187
-10.1929 -10.1874 -10.1745 -10.1712 -10.1703 -10.1701 -10.1685 -10.1664
 -8.1023  -6.0651  -6.0650  -6.0640  -1.1048  -1.0058  -0.9776  -0.9708
 -0.9664  -0.8623  -0.8066  -0.7530  -0.7296  -0.6876  -0.6196  -0.6115
 -0.5887  -0.5509  -0.5092  -0.4999  -0.4840  -0.4519  -0.4505  -0.4471
 -0.4403  -0.4235  -0.4153  -0.4042  -0.4025  -0.3862  -0.3596  -0.3505
 -0.3482  -0.3342  -0.3310  -0.3281  -0.3074  -0.2949  -0.2883  -0.2776
 -0.2563  -0.2555  -0.2480  -0.2244  -0.2228

          Ground-State Mulliken Net Atomic Charges

     Atom                 Charge (a.u.)    Spin (a.u.)
  --------------------------------------------------------
      1 C                     0.137600       0.060092
      2 C                    -0.506875       0.004103
      3 C                    -0.876524       0.055171
      4 C                     0.520713       0.000298
      5 C                     1.000983       0.021731
      6 C                    -0.529147       0.011171
      7 C                    -0.591424       0.125243
      8 C                     0.085243       0.173805
      9 C                     0.089140      -0.044049
     10 C                    -0.714990       0.132831
     11 O                    -0.486625       0.218435
     12 O                    -0.524409       0.241252
     13 H                     0.171793      -0.004310
     14 H                     0.199913      -0.001188
     15 H                     0.203020      -0.003670
     16 H                     0.156761       0.000932
     17 H                     0.244748      -0.001330
     18 S                     0.572638      -0.001414
     19 O                    -0.333931       0.000192
     20 O                    -0.408488       0.005334
     21 O                    -0.410138       0.005369
  --------------------------------------------------------
  Sum of atomic charges =    -2.000000

                    Cartesian Multipole Moments
 -----------------------------------------------------------------
    Charge (ESU x 10^10)
                -9.6064
    Dipole Moment (Debye)
         X     -16.0715      Y      -8.9455      Z       2.0378
       Tot      18.5059
    Quadrupole Moments (Debye-Ang)
        XX    -141.7334     XY     -17.2055     YY    -194.6226
        XZ       4.1695     YZ      25.9530     ZZ    -123.1894

 Total job time:  39.74s(wall), 276.02s(cpu)
        *  Thank you very much for using Q-Chem.  Have a nice day.  *
