 Q-Chem 5.4, Q-Chem, Inc., Pleasanton, CA (2021)
 Q-Chem 5.4.0 for Intel X86 EM64T Linux

User input:
--------------------------------------------------------------
$molecule
-2 1
C                  5.7614360000     -5.1229810000      1.2394400000
C                  6.7752340000     -5.0420630000      0.3014450000
C                  6.6861480000     -4.0902140000     -0.7472370000
C                  4.6216090000     -4.2842660000      1.1972800000
C                  4.5313740000     -3.3134250000      0.1268720000
C                  5.5838610000     -3.2561370000     -0.8152650000
C                  3.6000320000     -4.4462540000      2.2365140000
C                  2.5424130000     -3.5312760000      2.0367570000
C                  2.4222850000     -2.5746730000      1.0081720000
C                  3.3962190000     -2.4021070000     -0.0046980000
O                  3.7005340000     -5.3155630000      3.1805790000
O                  3.3080280000     -1.5317000000     -0.9588740000
H                  5.7977190000     -5.8398170000      2.0546420000
H                  7.6373080000     -5.7052910000      0.3673250000
H                  5.4797760000     -2.5149870000     -1.6029430000
Cl                 1.1737950000     -3.5833630000      3.2366170000
H                  7.4788100000     -4.0178310000     -1.4912660000
H                  1.5462070000     -1.9338730000      0.9805800000
$end
$rem
MAX_SCF_CYCLES=200
BASIS  =  6-311++G(d,p)
GUI  =  2
JOB_TYPE  =  SP
METHOD  =  B3LYP
SOLVENT_METHOD = COSMO
$end
$solvent
dielectric 37.219
opticaldielectric 1.43
$end

--------------------------------------------------------------

             Standard Nuclear Orientation (Angstroms)
    I     Atom           X                Y                Z
 ----------------------------------------------------------------
    1      C      -1.5737878743    -1.7555948097     0.0001273023
    2      C      -2.9357542719    -1.5122509213     0.0000215880
    3      C      -3.4092141570    -0.1745205867    -0.0002245637
    4      C      -0.6176509359    -0.7114549431     0.0000981600
    5      C      -1.1015347220     0.6532077852     0.0000062599
    6      C      -2.4988693795     0.8678906876    -0.0001760246
    7      C       0.8040283869    -1.0701951205     0.0007097668
    8      C       1.6070097054     0.0920726434     0.0002673296
    9      C       1.1707244888     1.4326554687     0.0000760715
   10      C      -0.1962865048     1.8007763840    -0.0001047600
   11      O       1.2129670312    -2.2907792453    -0.0003357419
   12      O      -0.6210063645     3.0236626507     0.0001332651
   13      H      -1.1774542763    -2.7668535344     0.0004077323
   14      H      -3.6410790780    -2.3428531413     0.0000990825
   15      H      -2.8225876255     1.9050888844    -0.0003739180
   16      Cl      3.4108799426    -0.1560085605    -0.0001669671
   17      H      -4.4796698194     0.0285955121    -0.0003758849
   18      H       1.9081580260     2.2295810397    -0.0001055358
 ----------------------------------------------------------------

   11    -994.8708230313      6.12e-06  Convergence criterion met
 Total energy in the final basis set =     -994.8708230313
    6    -995.1570409353      3.49e-06  Convergence criterion met
 Total energy in the final basis set =     -995.1570409353

                    Orbital Energies (a.u.)
 --------------------------------------------------------------

 Alpha MOs
 -- Occupied --
******** -19.0314 -19.0297 -10.1888 -10.1875 -10.1848 -10.1563 -10.1555
-10.1524 -10.1520 -10.1518 -10.1491 -10.1335  -9.4408  -7.2043  -7.1963
 -7.1958  -0.9495  -0.9426  -0.8367  -0.8278  -0.7637  -0.7301  -0.7030
 -0.6539  -0.5932  -0.5792  -0.5348  -0.4836  -0.4763  -0.4428  -0.4276
 -0.4055  -0.3901  -0.3877  -0.3868  -0.3731  -0.3596  -0.3435  -0.3292
 -0.3285  -0.3148  -0.3061  -0.2938  -0.2372  -0.2356  -0.2196  -0.2141
 -0.2092  -0.1279

          Ground-State Mulliken Net Atomic Charges

     Atom                 Charge (a.u.)
  ----------------------------------------
      1 C                    -0.092940
      2 C                    -0.460738
      3 C                    -0.494964
      4 C                     0.117488
      5 C                     0.221633
      6 C                     0.003424
      7 C                    -1.036138
      8 C                     1.167544
      9 C                    -0.079912
     10 C                    -0.979880
     11 O                    -0.689403
     12 O                    -0.737495
     13 H                     0.156291
     14 H                     0.190711
     15 H                     0.160578
     16 Cl                    0.198000
     17 H                     0.187535
     18 H                     0.168266
  ----------------------------------------
  Sum of atomic charges =    -2.000000

                    Cartesian Multipole Moments
 -----------------------------------------------------------------
    Charge (ESU x 10^10)
                -9.6064
    Dipole Moment (Debye)
         X      -5.0405      Y      -2.8154      Z      -0.0003
       Tot       5.7735
    Quadrupole Moments (Debye-Ang)
        XX    -112.8306     XY      17.5669     YY    -142.8973
        XZ      -0.0021     YZ      -0.0070     ZZ     -92.5163

 Total job time:  27.88s(wall), 207.27s(cpu)
        *  Thank you very much for using Q-Chem.  Have a nice day.  *
