 Gaussian 16, Revision A.03,
 Gaussian 16:  ES64L-G16RevA.03 25-Dec-2016

 ----------------------------------------------------------------------
 #P UB3LYP/6-311++G(d,p) nosym opt freq SCRF=(PCM,Solvent=n,n-DiMethylF
 ormamide)
 ----------------------------------------------------------------------

 -------
 Reduced
 -------
 Symbolic Z-matrix:
 Charge = -2 Multiplicity = 1

 SCF Done:  E(UB3LYP) =  -718.991655953     A.U. after   18 cycles
 SCF Done:  E(UB3LYP) =  -718.992441189     A.U. after   12 cycles
 SCF Done:  E(UB3LYP) =  -718.992605185     A.U. after   13 cycles
 SCF Done:  E(UB3LYP) =  -718.992616418     A.U. after   12 cycles
 SCF Done:  E(UB3LYP) =  -718.992622458     A.U. after   11 cycles
 SCF Done:  E(UB3LYP) =  -718.992624999     A.U. after   10 cycles
 SCF Done:  E(UB3LYP) =  -718.992625211     A.U. after    9 cycles
 Optimization completed.
    -- Stationary point found.
 Normal termination of Gaussian 16 at Sat Feb 10 12:03:46 2024.

 ----------------------------------------------------------------------
 #P Geom=AllCheck Guess=TCheck SCRF=Check GenChk UB3LYP/6-311++G(d,p) F
 req
 ----------------------------------------------------------------------

 Structure from the checkpoint file:  "075-an.chk"
 -------
 Reduced
 -------
 Charge = -2 Multiplicity = 1

                          Input orientation:
 ---------------------------------------------------------------------
 Center     Atomic      Atomic             Coordinates (Angstroms)
 Number     Number       Type             X           Y           Z
 ---------------------------------------------------------------------
      1          6           0        1.564596    1.105958   -1.583140
      2          6           0        0.188766    0.894730   -1.337612
      3          6           0       -0.300099    0.153054   -0.234657
      4          6           0        0.565323   -0.449658    0.737526
      5          6           0        1.952880   -0.222337    0.474313
      6          6           0        2.423940    0.506069   -0.610171
      7          8           0        2.022490    1.789081   -2.609242
      8          8           0        0.156517   -1.137565    1.765031
      9          6           0       -1.767071    0.000482   -0.078040
     10          9           0       -2.490093    0.598942   -1.074460
     11          9           0       -2.211110   -1.301865   -0.071414
     12          9           0       -2.278794    0.539750    1.081947
     13          1           0       -0.518570    1.326805   -2.037511
     14          1           0        2.661420   -0.654101    1.178495
     15          1           0        3.497944    0.633975   -0.738464
 ---------------------------------------------------------------------

 SCF Done:  E(UB3LYP) =  -718.992625211     A.U. after    1 cycles

 Alpha  occ. eigenvalues --  -24.69367 -24.68684 -24.68660 -19.01910 -19.01276
 Alpha  occ. eigenvalues --  -10.40186 -10.18197 -10.17073 -10.14572 -10.13248
 Alpha  occ. eigenvalues --  -10.13088 -10.12991  -1.28890  -1.20403  -1.19835
 Alpha  occ. eigenvalues --   -0.93116  -0.91756  -0.79616  -0.74162  -0.68042
 Alpha  occ. eigenvalues --   -0.64995  -0.59298  -0.57754  -0.56961  -0.54719
 Alpha  occ. eigenvalues --   -0.49243  -0.45502  -0.45425  -0.43360  -0.43041
 Alpha  occ. eigenvalues --   -0.41556  -0.41355  -0.39988  -0.39427  -0.37106
 Alpha  occ. eigenvalues --   -0.35692  -0.35671  -0.32933  -0.32409  -0.31078
 Alpha  occ. eigenvalues --   -0.23069  -0.22516  -0.19885  -0.19462  -0.12634
 Alpha virt. eigenvalues --    0.00298   0.00679   0.01954   0.02469   0.04243
 Alpha virt. eigenvalues --    0.04820   0.05050   0.06638   0.07275   0.07972
 Alpha virt. eigenvalues --    0.08194   0.08605   0.09193   0.11035   0.11874

  Beta  occ. eigenvalues --  -24.69367 -24.68684 -24.68660 -19.01910 -19.01276
  Beta  occ. eigenvalues --  -10.40186 -10.18197 -10.17073 -10.14572 -10.13248
  Beta  occ. eigenvalues --  -10.13088 -10.12991  -1.28890  -1.20403  -1.19835
  Beta  occ. eigenvalues --   -0.93116  -0.91756  -0.79616  -0.74162  -0.68042
  Beta  occ. eigenvalues --   -0.64995  -0.59298  -0.57754  -0.56961  -0.54719
  Beta  occ. eigenvalues --   -0.49243  -0.45502  -0.45425  -0.43360  -0.43041
  Beta  occ. eigenvalues --   -0.41556  -0.41355  -0.39988  -0.39427  -0.37106
  Beta  occ. eigenvalues --   -0.35692  -0.35671  -0.32933  -0.32409  -0.31078
  Beta  occ. eigenvalues --   -0.23069  -0.22516  -0.19885  -0.19462  -0.12634
  Beta virt. eigenvalues --    0.00298   0.00679   0.01954   0.02469   0.04243
  Beta virt. eigenvalues --    0.04820   0.05050   0.06638   0.07275   0.07972
  Beta virt. eigenvalues --    0.08194   0.08605   0.09193   0.11035   0.11874

 Mulliken charges and spin densities:
               1          2
     1  C   -0.542744  -0.000000
     2  C   -0.328641  -0.000000
     3  C    0.284121   0.000000
     4  C   -0.466840  -0.000000
     5  C   -0.058102   0.000000
     6  C    0.124474  -0.000000
     7  O   -0.758219   0.000000
     8  O   -0.706693   0.000000
     9  C    0.535241  -0.000000
    10  F   -0.207945   0.000000
    11  F   -0.148078   0.000000
    12  F   -0.149399   0.000000
    13  H    0.133645   0.000000
    14  H    0.143711   0.000000
    15  H    0.145468  -0.000000
 Sum of Mulliken charges =  -2.00000   0.00000

 Dipole moment (field-independent basis, Debye):
    X=             -5.6368    Y=             -3.0166    Z=              4.1030  Tot=              7.5966
 Quadrupole moment (field-independent basis, Debye-Ang):
   XX=           -100.5051   YY=            -94.7791   ZZ=           -116.1514
   XY=            -14.7676   XZ=             21.2845   YZ=             26.4184

  Exact polarizability: 175.391   7.558 126.081  -6.916 -49.088 168.568
 Approx polarizability: 196.504   6.756 138.878  -4.838 -56.908 188.271

                      1                      2                      3
                      A                      A                      A
 Frequencies --     51.9810                97.5726               154.1132
 Red. masses --     16.3140                 5.6778                11.2207
 Frc consts  --      0.0260                 0.0318                 0.1570
 IR Inten    --      1.3287                10.4012                13.5814

                      4                      5                      6
                      A                      A                      A
 Frequencies --    186.4373               288.2432               304.1411
 Red. masses --     13.5630                15.3224                 8.8043
 Frc consts  --      0.2778                 0.7501                 0.4798
 IR Inten    --      1.7295                 0.4228                 0.0532

                      7                      8                      9
                      A                      A                      A
 Frequencies --    341.9689               364.9450               407.8860
 Red. masses --     17.0264                 5.7214                 9.3388
 Frc consts  --      1.1731                 0.4490                 0.9154
 IR Inten    --     12.0031                 0.1904                 6.0322

                     10                     11                     12
                      A                      A                      A
 Frequencies --    457.8132               485.2999               505.7048
 Red. masses --      4.4131                12.1722                10.2392
 Frc consts  --      0.5450                 1.6890                 1.5428
 IR Inten    --      1.4251                 0.3274                 0.9769

                     13                     14                     15
                      A                      A                      A
 Frequencies --    538.2117               582.3359               620.9329
 Red. masses --      3.7985                 6.8355                 3.8772
 Frc consts  --      0.6483                 1.3657                 0.8808
 IR Inten    --     11.1611                 2.2439                22.7130

                     16                     17                     18
                      A                      A                      A
 Frequencies --    667.4689               724.5414               730.6499
 Red. masses --      8.4693                11.4718                 2.6625
 Frc consts  --      2.2231                 3.5482                 0.8374
 IR Inten    --     31.5730                16.0266                 1.3457

                     19                     20                     21
                      A                      A                      A
 Frequencies --    810.7713               813.4840               830.0400
 Red. masses --      6.4576                 1.8557                 2.0186
 Frc consts  --      2.5010                 0.7235                 0.8194
 IR Inten    --    296.6028                 1.2316               117.6198

                     22                     23                     24
                      A                      A                      A
 Frequencies --    896.2798               923.3010               976.4436
 Red. masses --      6.9423                 1.3190                11.7016
 Frc consts  --      3.2858                 0.6625                 6.5734
 IR Inten    --    150.7023                 2.4896               463.2784

                     25                     26                     27
                      A                      A                      A
 Frequencies --   1002.0149              1028.8811              1120.4175
 Red. masses --      6.0051                 3.8556                 1.6374
 Frc consts  --      3.5524                 2.4047                 1.2110
 IR Inten    --    108.6314               304.0608                53.7905

                     28                     29                     30
                      A                      A                      A
 Frequencies --   1162.8437              1228.3820              1257.9768
 Red. masses --      3.0185                 2.0940                 2.6390
 Frc consts  --      2.4048                 1.8616                 2.4605
 IR Inten    --    860.3015               306.3189                91.7415

                     31                     32                     33
                      A                      A                      A
 Frequencies --   1311.8184              1325.7688              1410.9081
 Red. masses --      4.4094                 7.0725                 5.5192
 Frc consts  --      4.4707                 7.3242                 6.4733
 IR Inten    --    807.3752                 8.1818               547.7991

                     34                     35                     36
                      A                      A                      A
 Frequencies --   1453.5188              1497.8777              1621.0289
 Red. masses --      2.7488                 5.1145                 6.7427
 Frc consts  --      3.4216                 6.7609                10.4391
 IR Inten    --   1298.4861               102.9117                 2.2024

                     37                     38                     39
                      A                      A                      A
 Frequencies --   3104.3694              3130.5626              3158.4422
 Red. masses --      1.0851                 1.0920                 1.0880
 Frc consts  --      6.1610                 6.3054                 6.3946
 IR Inten    --     73.7646                96.2873                38.1820

 - Thermochemistry -
 -------------------
 Temperature   298.150 Kelvin.  Pressure   1.00000 Atm.
 Atom     1 has atomic number  6 and mass  12.00000

 Molecular mass:   176.00851 amu.
 Principal axes and moments of inertia in atomic units:
                           1         2         3
     Eigenvalues --  1184.844592480.680733344.85993
           X            0.89259   0.44984  -0.03034
           Y            0.26889  -0.47710   0.83671
           Z           -0.36190   0.75500   0.54681
 This molecule is an asymmetric top.
 Rotational symmetry number  1.
 Warning -- assumption of classical behavior for rotation
           may cause significant error
 Rotational temperatures (Kelvin)      0.07310     0.03492     0.02589
 Rotational constants (GHZ):           1.52319     0.72752     0.53956
 Zero-point vibrational energy     224750.7 (Joules/Mol)
                                   53.71670 (Kcal/Mol)
 Warning -- explicit consideration of  14 degrees of freedom as
           vibrations may cause significant error
 Vibrational temperatures:     74.79   140.39   221.73   268.24   414.72
          (Kelvin)            437.59   492.02   525.07   586.86   658.69
                              698.24   727.60   774.37   837.85   893.38
                              960.34  1042.45  1051.24  1166.52  1170.42
                             1194.24  1289.55  1328.42  1404.88  1441.68
                             1480.33  1612.03  1673.07  1767.37  1809.95
                             1887.41  1907.49  2029.98  2091.29  2155.11
                             2332.30  4466.50  4504.18  4544.29

 Zero-point correction=                           0.085603 (Hartree/Particle)
 Thermal correction to Energy=                    0.095197
 Thermal correction to Enthalpy=                  0.096141
 Thermal correction to Gibbs Free Energy=         0.049964
 Sum of electronic and zero-point Energies=           -718.907022
 Sum of electronic and thermal Energies=              -718.897428
 Sum of electronic and thermal Enthalpies=            -718.896484
 Sum of electronic and thermal Free Energies=         -718.942662

                     E (Thermal)             CV                S
                      KCal/Mol        Cal/Mol-Kelvin    Cal/Mol-Kelvin
 Total                   59.737             36.537             97.189
 Electronic               0.000              0.000              0.000
 Translational            0.889              2.981             41.403
 Rotational               0.889              2.981             30.665
 Vibrational             57.959             30.576             25.121
 Vibration     1          0.596              1.977              4.741
 Vibration     2          0.603              1.951              3.502
 Vibration     3          0.620              1.898              2.621
 Vibration     4          0.632              1.858              2.263
 Vibration     5          0.685              1.696              1.484
 Vibration     6          0.695              1.666              1.394
 Vibration     7          0.721              1.592              1.203
 Vibration     8          0.738              1.544              1.101
 Vibration     9          0.772              1.453              0.934
 Vibration    10          0.816              1.344              0.772
 Vibration    11          0.841              1.283              0.696
 Vibration    12          0.861              1.237              0.644
 Vibration    13          0.893              1.166              0.569
 Vibration    14          0.939              1.070              0.481

                           ! Non-Optimized Parameters !
 Normal termination of Gaussian 16 at Sat Feb 10 12:16:59 2024.
