 Gaussian 16, Revision A.03,
 Gaussian 16:  ES64L-G16RevA.03 25-Dec-2016

 --------------------------------------
 #P UB3LYP/6-311++G(d,p) nosym opt freq
 --------------------------------------

 --------
 Oxidized
 --------
 Symbolic Z-matrix:
 Charge =  0 Multiplicity = 1

 SCF Done:  E(UB3LYP) =  -571.728608270     A.U. after   14 cycles
 SCF Done:  E(UB3LYP) =  -571.744810273     A.U. after   13 cycles
 SCF Done:  E(UB3LYP) =  -571.745500015     A.U. after   11 cycles
 SCF Done:  E(UB3LYP) =  -571.745538836     A.U. after   11 cycles
 SCF Done:  E(UB3LYP) =  -571.745540822     A.U. after    8 cycles
 Optimization completed.
    -- Stationary point found.
 Normal termination of Gaussian 16 at Sat Jan  6 01:55:42 2024.

 ----------------------------------------------------------------------
 #P Geom=AllCheck Guess=TCheck SCRF=Check GenChk UB3LYP/6-311++G(d,p) F
 req
 ----------------------------------------------------------------------

 Structure from the checkpoint file:  "349.chk"
 --------
 Oxidized
 --------
 Charge =  0 Multiplicity = 1

                          Input orientation:
 ---------------------------------------------------------------------
 Center     Atomic      Atomic             Coordinates (Angstroms)
 Number     Number       Type             X           Y           Z
 ---------------------------------------------------------------------
      1          6           0       -3.550313    0.203952    0.856923
      2          6           0       -3.579769   -0.178987   -0.517402
      3          6           0       -2.420721   -0.371075   -1.216162
      4          6           0       -1.157701   -0.189901   -0.575756
      5          7           0       -0.029190   -0.380986   -1.270550
      6          6           0        1.127805   -0.197887   -0.622374
      7          6           0        2.362478   -0.387849   -1.313996
      8          6           0        3.550312   -0.203997   -0.663312
      9          6           0        3.579699    0.179003    0.711227
     10          6           0        2.420830    0.371094    1.409997
     11          6           0        1.157582    0.189925    0.769609
     12          7           0        0.029294    0.380998    1.464361
     13          6           0       -1.127921    0.197883    0.816128
     14          6           0       -2.362412    0.387837    1.507720
     15          1           0       -4.485938    0.349055    1.385063
     16          1           0       -4.537067   -0.317523   -1.007038
     17          1           0       -2.419350   -0.661883   -2.259884
     18          1           0        2.316182   -0.678482   -2.356724
     19          1           0        4.486015   -0.349051   -1.191276
     20          1           0        4.537080    0.317501    1.200725
     21          1           0        2.419375    0.661903    2.453721
     22          1           0       -2.316273    0.678471    2.550453
 ---------------------------------------------------------------------

 SCF Done:  E(UB3LYP) =  -571.745540822     A.U. after    2 cycles

 Alpha  occ. eigenvalues --  -14.33152 -14.33150 -10.22841 -10.22838 -10.22802
 Alpha  occ. eigenvalues --  -10.22800 -10.19503 -10.19501 -10.19460 -10.19458
 Alpha  occ. eigenvalues --  -10.18942 -10.18941 -10.18941 -10.18940  -0.99254
 Alpha  occ. eigenvalues --   -0.92377  -0.87569  -0.84670  -0.77792  -0.76741
 Alpha  occ. eigenvalues --   -0.74966  -0.69180  -0.65732  -0.62275  -0.60945
 Alpha  occ. eigenvalues --   -0.57302  -0.56537  -0.51106  -0.50177  -0.48813
 Alpha  occ. eigenvalues --   -0.47772  -0.45045  -0.44993  -0.44502  -0.44201
 Alpha  occ. eigenvalues --   -0.40351  -0.38655  -0.38420  -0.37090  -0.36850
 Alpha  occ. eigenvalues --   -0.36066  -0.33605  -0.31772  -0.27839  -0.26429
 Alpha  occ. eigenvalues --   -0.25802  -0.23668
 Alpha virt. eigenvalues --   -0.10344  -0.04069  -0.02025  -0.00703  -0.00411
 Alpha virt. eigenvalues --   -0.00407   0.00893   0.01697   0.01946   0.03151
 Alpha virt. eigenvalues --    0.03820   0.03849   0.04060   0.05334   0.06236

  Beta  occ. eigenvalues --  -14.33152 -14.33150 -10.22841 -10.22838 -10.22802
  Beta  occ. eigenvalues --  -10.22800 -10.19503 -10.19501 -10.19460 -10.19458
  Beta  occ. eigenvalues --  -10.18942 -10.18941 -10.18941 -10.18940  -0.99254
  Beta  occ. eigenvalues --   -0.92377  -0.87569  -0.84670  -0.77792  -0.76741
  Beta  occ. eigenvalues --   -0.74966  -0.69180  -0.65732  -0.62275  -0.60945
  Beta  occ. eigenvalues --   -0.57302  -0.56537  -0.51106  -0.50177  -0.48813
  Beta  occ. eigenvalues --   -0.47772  -0.45045  -0.44993  -0.44502  -0.44201
  Beta  occ. eigenvalues --   -0.40351  -0.38655  -0.38420  -0.37090  -0.36850
  Beta  occ. eigenvalues --   -0.36066  -0.33605  -0.31772  -0.27839  -0.26429
  Beta  occ. eigenvalues --   -0.25802  -0.23668
  Beta virt. eigenvalues --   -0.10344  -0.04069  -0.02025  -0.00703  -0.00411
  Beta virt. eigenvalues --   -0.00407   0.00893   0.01697   0.01946   0.03151
  Beta virt. eigenvalues --    0.03820   0.03849   0.04060   0.05334   0.06236

 Mulliken charges and spin densities:
               1          2
     1  C   -0.260884  -0.000000
     2  C   -0.260638   0.000000
     3  C   -0.123052  -0.000000
     4  C   -0.020522   0.000000
     5  N    0.077127   0.000000
     6  C   -0.020508  -0.000000
     7  C   -0.123103  -0.000000
     8  C   -0.260838  -0.000000
     9  C   -0.260571   0.000000
    10  C   -0.123129  -0.000000
    11  C   -0.020663   0.000000
    12  N    0.077125  -0.000000
    13  C   -0.020394   0.000000
    14  C   -0.122952  -0.000000
    15  H    0.174737   0.000000
    16  H    0.174739   0.000000
    17  H    0.191003  -0.000000
    18  H    0.191009   0.000000
    19  H    0.174750  -0.000000
    20  H    0.174754  -0.000000
    21  H    0.190999  -0.000000
    22  H    0.191011  -0.000000
 Sum of Mulliken charges =  -0.00000   0.00000

 Dipole moment (field-independent basis, Debye):
    X=              0.0005    Y=             -0.0000    Z=             -0.0001  Tot=              0.0005
 Quadrupole moment (field-independent basis, Debye-Ang):
   XX=            -61.4086   YY=            -84.8478   ZZ=            -80.5252
   XY=             -0.0552   XZ=             -0.3857   YZ=              1.3050

  Exact polarizability: 278.088  -0.293  81.682  -2.638  19.342 145.738
 Approx polarizability: 466.753  -0.319 132.808  -3.866  41.646 270.741

                      1                      2                      3
                      A                      A                      A
 Frequencies --     95.2428               109.2715               241.3161
 Red. masses --      5.2516                 3.7827                 4.7205
 Frc consts  --      0.0281                 0.0266                 0.1620
 IR Inten    --      3.2377                 0.0001                 0.0000

                      4                      5                      6
                      A                      A                      A
 Frequencies --    245.9862               277.0945               401.8275
 Red. masses --      4.6506                 5.1225                 4.2132
 Frc consts  --      0.1658                 0.2317                 0.4008
 IR Inten    --      5.1609                 0.0000                 5.6823

                      7                      8                      9
                      A                      A                      A
 Frequencies --    417.4331               451.7260               492.1549
 Red. masses --      6.6033                 4.9997                 4.6100
 Frc consts  --      0.6779                 0.6011                 0.6579
 IR Inten    --      0.0000                 0.0000                 0.1191

                     10                     11                     12
                      A                      A                      A
 Frequencies --    493.1675               497.6895               536.1268
 Red. masses --      3.4644                 2.7220                 8.4814
 Frc consts  --      0.4964                 0.3972                 1.4363
 IR Inten    --      0.0000                 0.0000                 0.0000

                     13                     14                     15
                      A                      A                      A
 Frequencies --    594.5931               609.8534               626.7077
 Red. masses --      3.7359                 7.1427                 8.7129
 Frc consts  --      0.7782                 1.5652                 2.0162
 IR Inten    --      0.0000                16.8121                 0.0000

                     16                     17                     18
                      A                      A                      A
 Frequencies --    665.5656               739.5964               743.2801
 Red. masses --      6.2867                 4.3625                 6.6637
 Frc consts  --      1.6408                 1.4060                 2.1690
 IR Inten    --      4.6494                 0.0000                 0.0000

                     19                     20                     21
                      A                      A                      A
 Frequencies --    767.3207               783.0471               807.7446
 Red. masses --      1.2827                 1.3659                 2.6956
 Frc consts  --      0.4450                 0.4934                 1.0362
 IR Inten    --    165.8200                 0.0003                 0.0000

                     22                     23                     24
                      A                      A                      A
 Frequencies --    833.7817               867.5232               879.2220
 Red. masses --      5.6251                 1.4666                 2.0220
 Frc consts  --      2.3040                 0.6503                 0.9209
 IR Inten    --     15.6878                 0.0000                 0.0000

                     25                     26                     27
                      A                      A                      A
 Frequencies --    915.7389               938.8165               983.0957
 Red. masses --      5.9942                 6.7661                 1.3167
 Frc consts  --      2.9616                 3.5136                 0.7498
 IR Inten    --      1.7864                 0.0000                 1.4717

                     28                     29                     30
                      A                      A                      A
 Frequencies --    984.5622               998.7743              1000.0726
 Red. masses --      1.3345                 1.2906                 1.2981
 Frc consts  --      0.7622                 0.7585                 0.7649
 IR Inten    --      0.0003                 0.0000                 0.0000

                     31                     32                     33
                      A                      A                      A
 Frequencies --   1017.7371              1020.5159              1141.4110
 Red. masses --      2.1300                 2.2535                 1.6752
 Frc consts  --      1.2999                 1.3828                 1.2859
 IR Inten    --      9.4278                 0.0266                 0.0001

                     34                     35                     36
                      A                      A                      A
 Frequencies --   1149.7213              1160.6548              1178.7645
 Red. masses --      1.4997                 1.2985                 1.0715
 Frc consts  --      1.1680                 1.0306                 0.8772
 IR Inten    --     11.7321                13.6277                 0.0000

                     37                     38                     39
                      A                      A                      A
 Frequencies --   1227.3581              1246.3160              1289.2123
 Red. masses --      1.6641                 2.9558                 2.2653
 Frc consts  --      1.4770                 2.7051                 2.2183
 IR Inten    --      0.0000                 0.0568                 0.3478

                     40                     41                     42
                      A                      A                      A
 Frequencies --   1308.4380              1337.5615              1372.7469
 Red. masses --      2.9286                 2.7930                 4.3206
 Frc consts  --      2.9541                 2.9441                 4.7970
 IR Inten    --      0.0002                 0.0043                25.7348

                     43                     44                     45
                      A                      A                      A
 Frequencies --   1413.3867              1422.9943              1463.9827
 Red. masses --      1.7582                11.5852                 2.5127
 Frc consts  --      2.0694                13.8217                 3.1730
 IR Inten    --      0.0000                 0.0000                 7.4814

                     46                     47                     48
                      A                      A                      A
 Frequencies --   1506.9463              1509.7881              1554.1536
 Red. masses --      3.2374                 2.8442                 6.0015
 Frc consts  --      4.3316                 3.8198                 8.5408
 IR Inten    --      8.0797                 0.0000                41.6915

                     49                     50                     51
                      A                      A                      A
 Frequencies --   1567.6046              1586.6384              1642.5819
 Red. masses --      9.7227                 7.2321                 5.2063
 Frc consts  --     14.0770                10.7269                 8.2762
 IR Inten    --      0.0001                 0.0002                 0.0000

                     52                     53                     54
                      A                      A                      A
 Frequencies --   1672.1372              3167.7210              3167.8911
 Red. masses --      6.0683                 1.0865                 1.0865
 Frc consts  --      9.9968                 6.4235                 6.4245
 IR Inten    --      0.4369                 5.5104                 0.3405

                     55                     56                     57
                      A                      A                      A
 Frequencies --   3179.5680              3179.6878              3192.8911
 Red. masses --      1.0889                 1.0890                 1.0944
 Frc consts  --      6.4861                 6.4872                 6.5737
 IR Inten    --     10.3126                 0.4301                 0.0003

                     58                     59                     60
                      A                      A                      A
 Frequencies --   3193.1127              3197.0324              3197.5539
 Red. masses --      1.0946                 1.0973                 1.0974
 Frc consts  --      6.5754                 6.6081                 6.6107
 IR Inten    --     17.6813                31.3632                 0.0192

 - Thermochemistry -
 -------------------
 Temperature   298.150 Kelvin.  Pressure   1.00000 Atm.
 Atom     1 has atomic number  6 and mass  12.00000

 Molecular mass:   180.06875 amu.
 Principal axes and moments of inertia in atomic units:
                           1         2         3
     Eigenvalues --   833.175613758.151964591.32757
           X            0.99978   0.02063  -0.00211
           Y           -0.00350   0.26834   0.96332
           Z           -0.02044   0.96310  -0.26835
 This molecule is an asymmetric top.
 Rotational symmetry number  1.
 Warning -- assumption of classical behavior for rotation
           may cause significant error
 Rotational temperatures (Kelvin)      0.10396     0.02305     0.01886
 Rotational constants (GHZ):           2.16610     0.48022     0.39308
 Zero-point vibrational energy     444200.0 (Joules/Mol)
                                  106.16635 (Kcal/Mol)
 Warning -- explicit consideration of  14 degrees of freedom as
           vibrations may cause significant error
 Vibrational temperatures:    137.03   157.22   347.20   353.92   398.68
          (Kelvin)            578.14   600.59   649.93   708.10   709.56
                              716.06   771.37   855.49   877.44   901.69
                              957.60  1064.11  1069.41  1104.00  1126.63
                             1162.16  1199.63  1248.17  1265.00  1317.54
                             1350.75  1414.46  1416.57  1437.01  1438.88
                             1464.30  1468.29  1642.24  1654.19  1669.92
                             1695.98  1765.89  1793.17  1854.89  1882.55
                             1924.45  1975.08  2033.55  2047.37  2106.34
                             2168.16  2172.25  2236.08  2255.43  2282.82
                             2363.31  2405.83  4557.64  4557.89  4574.69
                             4574.86  4593.86  4594.18  4599.82  4600.57

 Zero-point correction=                           0.169187 (Hartree/Particle)
 Thermal correction to Energy=                    0.178401
 Thermal correction to Enthalpy=                  0.179345
 Thermal correction to Gibbs Free Energy=         0.134544
 Sum of electronic and zero-point Energies=           -571.576354
 Sum of electronic and thermal Energies=              -571.567140
 Sum of electronic and thermal Enthalpies=            -571.566196
 Sum of electronic and thermal Free Energies=         -571.610997

                     E (Thermal)             CV                S
                      KCal/Mol        Cal/Mol-Kelvin    Cal/Mol-Kelvin
 Total                  111.948             39.183             94.292
 Electronic               0.000              0.000              0.000
 Translational            0.889              2.981             41.471
 Rotational               0.889              2.981             31.042
 Vibrational            110.171             33.221             21.778
 Vibration     1          0.603              1.953              3.549
 Vibration     2          0.606              1.942              3.282
 Vibration     3          0.658              1.777              1.793
 Vibration     4          0.660              1.769              1.759
 Vibration     5          0.678              1.716              1.552
 Vibration     6          0.767              1.466              0.956
 Vibration     7          0.780              1.432              0.901
 Vibration     8          0.810              1.357              0.791
 Vibration     9          0.848              1.267              0.678
 Vibration    10          0.849              1.265              0.675
 Vibration    11          0.853              1.255              0.664
 Vibration    12          0.891              1.170              0.574
 Vibration    13          0.952              1.043              0.459
 Vibration    14          0.969              1.011              0.433

 Optimization completed.
    -- Stationary point found.
 Normal termination of Gaussian 16 at Sat Jan  6 02:36:55 2024.
