 Q-Chem 5.4, Q-Chem, Inc., Pleasanton, CA (2021)
 Q-Chem 5.4.0 for Intel X86 EM64T Linux

User input:
--------------------------------------------------------------
$molecule
-1 2
C                  3.3128630000     -0.9469420000     -0.1004030000
O                  1.9344520000     -1.1544410000      0.0951290000
C                  1.0739450000     -0.1063580000     -0.0844190000
C                  1.5313570000      1.1544130000     -0.4554590000
C                  0.6248330000      2.2148530000     -0.6333750000
C                 -0.7222320000      2.0114820000     -0.4412210000
C                 -1.2120720000      0.7436680000     -0.0650160000
C                 -2.6727980000      0.6125870000      0.1203640000
O                 -3.4510730000      1.5920290000     -0.0499580000
C                 -3.1363250000     -0.6884880000      0.5022080000
C                 -2.2847700000     -1.7483290000      0.6855360000
C                 -0.8513140000     -1.6823480000      0.5198030000
O                 -0.1439240000     -2.7043940000      0.7085550000
C                 -0.3182710000     -0.3562230000      0.1242810000
H                  3.7860280000     -1.9097120000      0.0976580000
H                  3.5434090000     -0.6383100000     -1.1293880000
H                  3.7209900000     -0.1970320000      0.5911600000
H                  2.5869620000      1.3319980000     -0.6107400000
H                  1.0009430000      3.1918910000     -0.9231930000
H                 -1.4488680000      2.8044340000     -0.5691930000
H                 -4.2081630000     -0.8010490000      0.6423970000
H                 -2.6659710000     -2.7237310000      0.9752760000
$end

$rem
BASIS  =  6-311++G(d,p)
GUI  =  2
JOB_TYPE  =  SP
METHOD  =  B3LYP
SCF_CONVERGENCE  = 8
SOLVENT_METHOD = sm12
$end

$smx
solvent dimethylformamide
charges CM5
$end

--------------------------------------------------------------

             Standard Nuclear Orientation (Angstroms)
    I     Atom           X                Y                Z
 ----------------------------------------------------------------
    1      C       3.3128630000    -0.9469420000    -0.1004030000
    2      O       1.9344520000    -1.1544410000     0.0951290000
    3      C       1.0739450000    -0.1063580000    -0.0844190000
    4      C       1.5313570000     1.1544130000    -0.4554590000
    5      C       0.6248330000     2.2148530000    -0.6333750000
    6      C      -0.7222320000     2.0114820000    -0.4412210000
    7      C      -1.2120720000     0.7436680000    -0.0650160000
    8      C      -2.6727980000     0.6125870000     0.1203640000
    9      O      -3.4510730000     1.5920290000    -0.0499580000
   10      C      -3.1363250000    -0.6884880000     0.5022080000
   11      C      -2.2847700000    -1.7483290000     0.6855360000
   12      C      -0.8513140000    -1.6823480000     0.5198030000
   13      O      -0.1439240000    -2.7043940000     0.7085550000
   14      C      -0.3182710000    -0.3562230000     0.1242810000
   15      H       3.7860280000    -1.9097120000     0.0976580000
   16      H       3.5434090000    -0.6383100000    -1.1293880000
   17      H       3.7209900000    -0.1970320000     0.5911600000
   18      H       2.5869620000     1.3319980000    -0.6107400000
   19      H       1.0009430000     3.1918910000    -0.9231930000
   20      H      -1.4488680000     2.8044340000    -0.5691930000
   21      H      -4.2081630000    -0.8010490000     0.6423970000
   22      H      -2.6659710000    -2.7237310000     0.9752760000
 ----------------------------------------------------------------

   18    -649.8686571688      3.60e-09  Convergence criterion met
 Total energy in the final basis set =     -649.9608704938

                    Orbital Energies (a.u.)
 --------------------------------------------------------------

 Alpha MOs
 -- Occupied --
-19.1513 -19.0750 -19.0718 -10.2452 -10.2256 -10.2220 -10.2185 -10.1848
-10.1841 -10.1825 -10.1780 -10.1707 -10.1684 -10.1677  -1.0706  -0.9982
 -0.9958  -0.8620  -0.8085  -0.7639  -0.7493  -0.6998  -0.6781  -0.6236
 -0.6148  -0.5652  -0.5234  -0.5117  -0.4904  -0.4765  -0.4686  -0.4610
 -0.4386  -0.4184  -0.4172  -0.4140  -0.3973  -0.3908  -0.3769  -0.3662
 -0.3628  -0.3572  -0.3335  -0.3227  -0.2791  -0.2617  -0.2405  -0.2356
 -0.2295  -0.1539

 Beta MOs
 -- Occupied --
-19.1513 -19.0683 -19.0648 -10.2453 -10.2248 -10.2207 -10.2185 -10.1843
-10.1838 -10.1819 -10.1774 -10.1706 -10.1669 -10.1661  -1.0705  -0.9866
 -0.9838  -0.8601  -0.8030  -0.7628  -0.7470  -0.6988  -0.6692  -0.6206
 -0.6128  -0.5637  -0.5215  -0.5093  -0.4889  -0.4748  -0.4681  -0.4591
 -0.4365  -0.4153  -0.4131  -0.4056  -0.3918  -0.3887  -0.3605  -0.3603
 -0.3552  -0.3493  -0.3330  -0.3175  -0.2556  -0.2472  -0.2342  -0.2298
 -0.2232

          Ground-State Mulliken Net Atomic Charges

     Atom                 Charge (a.u.)    Spin (a.u.)
  --------------------------------------------------------
      1 C                     0.101222      -0.000595
      2 O                    -0.121471      -0.002094
      3 C                     0.549820       0.034168
      4 C                     2.209325       0.051786
      5 C                     0.726976       0.021706
      6 C                    -0.275904       0.040472
      7 C                    -2.182327       0.021811
      8 C                    -1.063002       0.078834
      9 O                    -0.363372       0.244767
     10 C                    -0.557451       0.071571
     11 C                     0.051068       0.148794
     12 C                    -1.447479       0.009587
     13 O                    -0.305357       0.261077
     14 C                    -0.345094       0.046571
     15 H                     0.270747      -0.000099
     16 H                     0.231112       0.000334
     17 H                     0.230698       0.000355
     18 H                     0.398879      -0.003068
     19 H                     0.369640      -0.001741
     20 H                     0.108284      -0.003283
     21 H                     0.212073      -0.008015
     22 H                     0.201612      -0.012940
  --------------------------------------------------------
  Sum of atomic charges =    -1.000000

                    Cartesian Multipole Moments
 -----------------------------------------------------------------
    Charge (ESU x 10^10)
                -4.8032
    Dipole Moment (Debye)
         X      10.3273      Y       2.3154      Z      -1.6628
       Tot      10.7135
    Quadrupole Moments (Debye-Ang)
        XX    -105.1546     XY      12.2494     YY    -108.8827
        XZ      -1.3078     YZ       4.2082     ZZ     -88.4439

 Total job time:  442.59s(wall), 3167.88s(cpu)
        *  Thank you very much for using Q-Chem.  Have a nice day.  *
