 Gaussian 16, Revision A.03,
 Gaussian 16:  ES64L-G16RevA.03 25-Dec-2016

 --------------------------------------
 #P UB3LYP/6-311++G(d,p) nosym opt freq
 --------------------------------------

 --------
 Oxidized
 --------
 Symbolic Z-matrix:
 Charge =  0 Multiplicity = 1

 SCF Done:  E(UB3LYP) =  -846.448319488     A.U. after   15 cycles
 SCF Done:  E(UB3LYP) =  -846.462829507     A.U. after   14 cycles
 SCF Done:  E(UB3LYP) =  -846.464536482     A.U. after   13 cycles
 SCF Done:  E(UB3LYP) =  -846.465282165     A.U. after   12 cycles
 SCF Done:  E(UB3LYP) =  -846.465320343     A.U. after   11 cycles
 SCF Done:  E(UB3LYP) =  -846.465323182     A.U. after   10 cycles
 SCF Done:  E(UB3LYP) =  -846.465323328     A.U. after    8 cycles
 SCF Done:  E(UB3LYP) =  -846.465323407     A.U. after    9 cycles
 Optimization completed.
    -- Stationary point found.
 Normal termination of Gaussian 16 at Tue Dec 26 20:36:00 2023.

 ----------------------------------------------------------------------
 #P Geom=AllCheck Guess=TCheck SCRF=Check GenChk UB3LYP/6-311++G(d,p) F
 req
 ----------------------------------------------------------------------

 Structure from the checkpoint file:  "284.chk"
 --------
 Oxidized
 --------
 Charge =  0 Multiplicity = 1

                          Input orientation:
 ---------------------------------------------------------------------
 Center     Atomic      Atomic             Coordinates (Angstroms)
 Number     Number       Type             X           Y           Z
 ---------------------------------------------------------------------
      1          6           0       -0.198001    3.976826    0.088500
      2          6           0       -1.262678    3.446360    0.809811
      3          6           0       -1.311541    2.076302    1.076037
      4          6           0        0.817713    3.131509   -0.365489
      5          6           0        0.771710    1.755640   -0.099820
      6          6           0       -0.298907    1.232639    0.623639
      7          6           0        1.953757    3.668138   -1.130414
      8          6           0        3.022589    2.729137   -1.599907
      9          6           0        3.002321    1.393267   -1.355846
     10          6           0        1.859814    0.841180   -0.584234
     11          8           0        2.083970    4.854086   -1.413478
     12          8           0        1.796579   -0.355314   -0.339657
     13          1           0       -0.137442    5.035726   -0.130826
     14          1           0       -2.053620    4.096869    1.164684
     15          1           0       -2.142330    1.665258    1.638339
     16          1           0       -0.321345    0.168283    0.821356
     17          8           0        3.992090    3.359212   -2.282749
     18          6           0        4.026057    0.366840   -1.782527
     19          6           0        5.251644    0.811468   -2.589349
     20          6           0        6.162307   -0.377120   -2.920316
     21          6           0        7.403775    0.015708   -3.728585
     22          6           0        8.319955   -1.166978   -4.062714
     23          6           0        9.557480   -0.765019   -4.870480
     24          1           0        3.734260    4.302037   -2.293633
     25          1           0        3.486005   -0.408611   -2.339845
     26          1           0        4.357503   -0.149173   -0.872833
     27          1           0        5.820329    1.560745   -2.031622
     28          1           0        4.937570    1.298061   -3.516990
     29          1           0        5.590886   -1.130183   -3.478752
     30          1           0        6.477136   -0.865819   -1.988895
     31          1           0        7.975831    0.768720   -3.171018
     32          1           0        7.089930    0.503323   -4.660731
     33          1           0        7.748786   -1.919322   -4.620256
     34          1           0        8.634330   -1.653820   -3.131452
     35          1           0        9.275913   -0.307001   -5.824041
     36          1           0       10.189210   -1.629860   -5.091772
     37          1           0       10.168014   -0.039165   -4.323935
 ---------------------------------------------------------------------

 SCF Done:  E(UB3LYP) =  -846.465323407     A.U. after    1 cycles

 Alpha  occ. eigenvalues --  -19.17447 -19.15073 -19.12534 -10.29421 -10.27773
 Alpha  occ. eigenvalues --  -10.26874 -10.21545 -10.21381 -10.20839 -10.20820
 Alpha  occ. eigenvalues --  -10.20806 -10.20670 -10.20311 -10.17928 -10.16298
 Alpha  occ. eigenvalues --  -10.16274 -10.16196 -10.16086 -10.15588  -1.10921
 Alpha  occ. eigenvalues --   -1.06636  -1.05911  -0.89816  -0.84435  -0.80993
 Alpha  occ. eigenvalues --   -0.79151  -0.78567  -0.76320  -0.72181  -0.69330
 Alpha  occ. eigenvalues --   -0.66177  -0.65654  -0.62143  -0.60894  -0.59133
 Alpha  occ. eigenvalues --   -0.57716  -0.57163  -0.54363  -0.51987  -0.49911
 Alpha  occ. eigenvalues --   -0.48647  -0.48082  -0.47260  -0.46747  -0.45888
 Alpha  occ. eigenvalues --   -0.45088  -0.44701  -0.43778  -0.42591  -0.42217
 Alpha  occ. eigenvalues --   -0.41387  -0.41294  -0.39941  -0.39585  -0.38338
 Alpha  occ. eigenvalues --   -0.38013  -0.37886  -0.37485  -0.36003  -0.34392
 Alpha  occ. eigenvalues --   -0.33190  -0.32748  -0.32244  -0.31789  -0.30476
 Alpha  occ. eigenvalues --   -0.29447  -0.28528  -0.27437  -0.25767
 Alpha virt. eigenvalues --   -0.12573  -0.06121  -0.02958  -0.01340  -0.00632
 Alpha virt. eigenvalues --    0.00045   0.00681   0.01180   0.01309   0.01870
 Alpha virt. eigenvalues --    0.02191   0.02425   0.03413   0.03495   0.03963

  Beta  occ. eigenvalues --  -19.17447 -19.15073 -19.12534 -10.29421 -10.27773
  Beta  occ. eigenvalues --  -10.26874 -10.21545 -10.21381 -10.20839 -10.20820
  Beta  occ. eigenvalues --  -10.20806 -10.20670 -10.20311 -10.17928 -10.16298
  Beta  occ. eigenvalues --  -10.16274 -10.16196 -10.16086 -10.15588  -1.10921
  Beta  occ. eigenvalues --   -1.06636  -1.05911  -0.89816  -0.84435  -0.80993
  Beta  occ. eigenvalues --   -0.79151  -0.78567  -0.76320  -0.72181  -0.69330
  Beta  occ. eigenvalues --   -0.66177  -0.65654  -0.62143  -0.60894  -0.59133
  Beta  occ. eigenvalues --   -0.57716  -0.57163  -0.54363  -0.51987  -0.49911
  Beta  occ. eigenvalues --   -0.48647  -0.48082  -0.47260  -0.46747  -0.45888
  Beta  occ. eigenvalues --   -0.45088  -0.44701  -0.43778  -0.42591  -0.42217
  Beta  occ. eigenvalues --   -0.41387  -0.41294  -0.39941  -0.39585  -0.38338
  Beta  occ. eigenvalues --   -0.38013  -0.37886  -0.37485  -0.36003  -0.34392
  Beta  occ. eigenvalues --   -0.33190  -0.32748  -0.32244  -0.31789  -0.30476
  Beta  occ. eigenvalues --   -0.29447  -0.28528  -0.27437  -0.25767
  Beta virt. eigenvalues --   -0.12573  -0.06121  -0.02958  -0.01340  -0.00632
  Beta virt. eigenvalues --    0.00045   0.00681   0.01180   0.01309   0.01870
  Beta virt. eigenvalues --    0.02191   0.02425   0.03413   0.03495   0.03963

 Mulliken charges and spin densities:
               1          2
     1  C    0.162704   0.000000
     2  C   -0.314100  -0.000000
     3  C   -0.366217   0.000000
     4  C    0.119064  -0.000000
     5  C    0.605383  -0.000000
     6  C    0.164147  -0.000000
     7  C   -0.904688   0.000000
     8  C   -1.331542  -0.000000
     9  C    1.447614   0.000000
    10  C   -0.802808  -0.000000
    11  O   -0.269959   0.000000
    12  O   -0.190907   0.000000
    13  H    0.190291  -0.000000
    14  H    0.176579  -0.000000
    15  H    0.180666   0.000000
    16  H    0.192426  -0.000000
    17  O   -0.169666  -0.000000
    18  C    0.203142  -0.000000
    19  C    0.098829   0.000000
    20  C   -0.329932   0.000000
    21  C   -0.143256  -0.000000
    22  C   -0.235259  -0.000000
    23  C   -0.659919  -0.000000
    24  H    0.288642  -0.000000
    25  H    0.198165   0.000000
    26  H    0.198460   0.000000
    27  H    0.171645   0.000000
    28  H    0.171960   0.000000
    29  H    0.126001  -0.000000
    30  H    0.126027  -0.000000
    31  H    0.114882   0.000000
    32  H    0.114848   0.000000
    33  H    0.127028   0.000000
    34  H    0.126974   0.000000
    35  H    0.134987   0.000000
    36  H    0.142794   0.000000
    37  H    0.134994   0.000000
 Sum of Mulliken charges =  -0.00000  -0.00000

 Dipole moment (field-independent basis, Debye):
    X=             -1.7585    Y=              1.0538    Z=              0.8586  Tot=              2.2226
 Quadrupole moment (field-independent basis, Debye-Ang):
   XX=           -112.0064   YY=           -118.0043   ZZ=           -113.7819
   XY=             -4.6130   XZ=             -2.0341   YZ=              3.9808

  Exact polarizability: 233.977 -22.794 222.823 -63.842  -4.467 157.974
 Approx polarizability: 303.219   1.257 420.811 -65.626 -40.362 238.401

 ******    1 imaginary frequencies (negative Signs) ******

                      1                      2                      3
                      A                      A                      A
 Frequencies --    -25.6269                41.5174                45.7707
 Red. masses --      3.1501                 2.1102                 4.4458
 Frc consts  --      0.0012                 0.0021                 0.0055
 IR Inten    --      0.0111                 1.1742                 0.1684

                      4                      5                      6
                      A                      A                      A
 Frequencies --     55.2993                61.0997                98.5799
 Red. masses --      3.2088                 3.7320                 2.7213
 Frc consts  --      0.0058                 0.0082                 0.0156
 IR Inten    --      0.5052                 2.9281                 0.0132

                      7                      8                      9
                      A                      A                      A
 Frequencies --    123.4691               136.3690               146.2649
 Red. masses --      4.6490                 2.4602                 3.9358
 Frc consts  --      0.0418                 0.0270                 0.0496
 IR Inten    --      0.0006                 0.0760                 0.3715

                     10                     11                     12
                      A                      A                      A
 Frequencies --    147.6128               170.3617               182.6268
 Red. masses --      2.1312                 5.4129                 4.9945
 Frc consts  --      0.0274                 0.0926                 0.0981
 IR Inten    --      0.2017                 0.2665                 0.4104

                     13                     14                     15
                      A                      A                      A
 Frequencies --    243.7568               257.2990               293.8226
 Red. masses --      1.1213                 4.6304                 4.1776
 Frc consts  --      0.0393                 0.1806                 0.2125
 IR Inten    --      0.0000                 0.0214                 1.2911

                     16                     17                     18
                      A                      A                      A
 Frequencies --    295.2000               367.3449               391.5961
 Red. masses --      4.5552                 5.3576                 7.7903
 Frc consts  --      0.2339                 0.4260                 0.7039
 IR Inten    --      0.1180                 3.9775                12.0074

                     19                     20                     21
                      A                      A                      A
 Frequencies --    410.9969               416.0603               423.6927
 Red. masses --      6.6903                 5.7232                 3.5683
 Frc consts  --      0.6658                 0.5837                 0.3774
 IR Inten    --      5.3867                24.2596                 0.0056

                     22                     23                     24
                      A                      A                      A
 Frequencies --    443.6198               443.6505               482.8151
 Red. masses --      4.3196                 3.7462                 7.1554
 Frc consts  --      0.5009                 0.4344                 0.9828
 IR Inten    --      2.8573                 3.4400                 4.3725

                     25                     26                     27
                      A                      A                      A
 Frequencies --    538.3379               539.5473               648.4308
 Red. masses --      4.6540                 6.6702                 6.1968
 Frc consts  --      0.7947                 1.1441                 1.5351
 IR Inten    --      7.9693                 0.7388                 1.3042

                     28                     29                     30
                      A                      A                      A
 Frequencies --    652.8499               675.1434               687.7112
 Red. masses --      1.1555                 6.3425                 3.6664
 Frc consts  --      0.2902                 1.7034                 1.0216
 IR Inten    --     60.2149                 4.6243                 7.1888

                     31                     32                     33
                      A                      A                      A
 Frequencies --    728.7549               731.5920               734.0010
 Red. masses --      7.0027                 1.4393                 1.6087
 Frc consts  --      2.1912                 0.4539                 0.5106
 IR Inten    --      2.2889                41.6252                32.9196

                     34                     35                     36
                      A                      A                      A
 Frequencies --    738.7660               750.8600               790.8190
 Red. masses --      2.0389                 1.7860                 1.2915
 Frc consts  --      0.6556                 0.5933                 0.4759
 IR Inten    --      7.2269                 4.4826                 5.1216

                     37                     38                     39
                      A                      A                      A
 Frequencies --    806.6684               864.8907               888.4819
 Red. masses --      1.7008                 5.8528                 1.2890
 Frc consts  --      0.6521                 2.5795                 0.5995
 IR Inten    --     11.1892                21.5814                 0.2847

                     40                     41                     42
                      A                      A                      A
 Frequencies --    899.7659               911.8109               940.8568
 Red. masses --      2.0241                 1.3176                 5.4877
 Frc consts  --      0.9655                 0.6454                 2.8621
 IR Inten    --      2.8679                 0.0312                22.6467

                     43                     44                     45
                      A                      A                      A
 Frequencies --    997.0661               999.1479              1007.8582
 Red. masses --      1.3406                 1.2520                 4.0930
 Frc consts  --      0.7853                 0.7364                 2.4496
 IR Inten    --      0.9510                 0.5315                13.4352

                     46                     47                     48
                      A                      A                      A
 Frequencies --   1016.1147              1039.5310              1044.4837
 Red. masses --      1.3247                 3.8907                 2.9655
 Frc consts  --      0.8058                 2.4771                 1.9061
 IR Inten    --      0.1673                11.5819                17.4656

                     49                     50                     51
                      A                      A                      A
 Frequencies --   1061.5835              1065.4021              1070.3898
 Red. masses --      2.5585                 2.6973                 2.3540
 Frc consts  --      1.6988                 1.8039                 1.5890
 IR Inten    --      0.0536                12.1097                14.9669

                     52                     53                     54
                      A                      A                      A
 Frequencies --   1111.8324              1132.5678              1140.0662
 Red. masses --      2.1878                 2.4073                 1.4357
 Frc consts  --      1.5934                 1.8193                 1.0995
 IR Inten    --      1.7245                 8.3574                 0.2297

                     55                     56                     57
                      A                      A                      A
 Frequencies --   1163.3133              1184.9382              1223.4712
 Red. masses --      2.5259                 1.1765                 1.5376
 Frc consts  --      2.0140                 0.9732                 1.3560
 IR Inten    --     18.8831                 4.6176                 0.0058

                     58                     59                     60
                      A                      A                      A
 Frequencies --   1229.4677              1254.0499              1279.9106
 Red. masses --      2.5931                 1.4566                 2.1837
 Frc consts  --      2.3094                 1.3496                 2.1077
 IR Inten    --     33.3547                48.1146                72.0803

                     61                     62                     63
                      A                      A                      A
 Frequencies --   1282.6753              1303.4942              1314.7754
 Red. masses --      1.2751                 2.3678                 2.7284
 Frc consts  --      1.2360                 2.3703                 2.7789
 IR Inten    --      0.0202                71.2149               352.2203

                     64                     65                     66
                      A                      A                      A
 Frequencies --   1323.2767              1324.7115              1332.0703
 Red. masses --      1.1347                 1.5530                 1.0568
 Frc consts  --      1.1706                 1.6057                 1.1049
 IR Inten    --      0.1774                 5.0296                 0.0831

                     67                     68                     69
                      A                      A                      A
 Frequencies --   1340.1586              1365.8217              1369.1019
 Red. masses --      1.0842                 6.0257                 1.5504
 Frc consts  --      1.1472                 6.6228                 1.7123
 IR Inten    --      0.2604                62.7450                36.6836

                     70                     71                     72
                      A                      A                      A
 Frequencies --   1396.0309              1403.7008              1413.0848
 Red. masses --      1.6038                 1.5925                 1.2648
 Frc consts  --      1.8416                 1.8488                 1.4880
 IR Inten    --     75.0543                27.5653                 5.0920

                     73                     74                     75
                      A                      A                      A
 Frequencies --   1422.7202              1463.8452              1485.5487
 Red. masses --      1.8588                 1.0833                 1.1606
 Frc consts  --      2.2167                 1.3676                 1.5091
 IR Inten    --    187.5802                 5.6704                 0.5554

                     76                     77                     78
                      A                      A                      A
 Frequencies --   1486.1201              1486.7603              1495.0202
 Red. masses --      1.9859                 1.0982                 1.0694
 Frc consts  --      2.5842                 1.4302                 1.4082
 IR Inten    --      6.5111                 0.9433                 3.7257

                     79                     80                     81
                      A                      A                      A
 Frequencies --   1499.6088              1505.2061              1508.7719
 Red. masses --      1.0397                 1.0885                 2.6362
 Frc consts  --      1.3776                 1.4530                 3.5357
 IR Inten    --      7.9522                 0.2225                 3.6536

                     82                     83                     84
                      A                      A                      A
 Frequencies --   1513.5768              1616.0780              1628.1011
 Red. masses --      1.0967                 6.8354                 5.9398
 Frc consts  --      1.4803                10.5181                 9.2765
 IR Inten    --     11.4999                 2.7228                76.7507

                     85                     86                     87
                      A                      A                      A
 Frequencies --   1687.4964              1702.8309              1705.6908
 Red. masses --      7.9242                12.0992                 9.5746
 Frc consts  --     13.2951                20.6705                16.4123
 IR Inten    --     43.7449               252.6302               211.0748

                     88                     89                     90
                      A                      A                      A
 Frequencies --   2990.5060              2994.9812              3006.6469
 Red. masses --      1.0576                 1.0583                 1.0596
 Frc consts  --      5.5726                 5.5928                 5.6438
 IR Inten    --      1.0737                11.3476                58.9463

                     91                     92                     93
                      A                      A                      A
 Frequencies --   3008.5093              3011.3048              3016.6371
 Red. masses --      1.0998                 1.0603                 1.0355
 Frc consts  --      5.8648                 5.6647                 5.5522
 IR Inten    --      0.5344                 9.9674                45.9938

                     94                     95                     96
                      A                      A                      A
 Frequencies --   3021.9910              3026.0273              3040.2220
 Red. masses --      1.1023                 1.0993                 1.0595
 Frc consts  --      5.9313                 5.9306                 5.7698
 IR Inten    --      3.9624                 4.3310                23.3273

                     97                     98                     99
                      A                      A                      A
 Frequencies --   3043.0592              3076.8571              3081.2292
 Red. masses --      1.1052                 1.1026                 1.1047
 Frc consts  --      6.0302                 6.1501                 6.1791
 IR Inten    --     43.9800                45.1104                72.7791

                    100                    101                    102
                      A                      A                      A
 Frequencies --   3081.4719              3171.7562              3185.9426
 Red. masses --      1.1009                 1.0871                 1.0916
 Frc consts  --      6.1592                 6.4435                 6.5283
 IR Inten    --     46.7920                 3.2238                 8.6394

                    103                    104                    105
                      A                      A                      A
 Frequencies --   3200.2833              3203.9261              3587.6898
 Red. masses --      1.0935                 1.0944                 1.0641
 Frc consts  --      6.5984                 6.6193                 8.0694
 IR Inten    --      1.9961                 7.8318               162.0242

 - Thermochemistry -
 -------------------
 Temperature   298.150 Kelvin.  Pressure   1.00000 Atm.
 Atom     1 has atomic number  6 and mass  12.00000

 Molecular mass:   258.12559 amu.
 Principal axes and moments of inertia in atomic units:
                           1         2         3
     Eigenvalues --  1786.66001********************
           X            0.83278   0.22903   0.50401
           Y           -0.34426   0.92722   0.14749
           Z           -0.43355  -0.29634   0.85101
 This molecule is an asymmetric top.
 Rotational symmetry number  1.
 Warning -- assumption of classical behavior for rotation
           may cause significant error
 Rotational temperatures (Kelvin)      0.04848     0.00674     0.00594
 Rotational constants (GHZ):           1.01012     0.14046     0.12387
    1 imaginary frequencies ignored.
 Zero-point vibrational energy     803619.1 (Joules/Mol)
                                  192.06958 (Kcal/Mol)
 Warning -- explicit consideration of  25 degrees of freedom as
           vibrations may cause significant error
 Vibrational temperatures:     59.73    65.85    79.56    87.91   141.83
          (Kelvin)            177.64   196.20   210.44   212.38   245.11
                              262.76   350.71   370.20   422.75   424.73
                              528.53   563.42   591.33   598.62   609.60
                              638.27   638.31   694.66   774.55   776.29
                              932.95   939.31   971.38   989.46  1048.52
                             1052.60  1056.06  1062.92  1080.32  1137.81
                             1160.62  1244.38  1278.33  1294.56  1311.89
                             1353.68  1434.56  1437.55  1450.08  1461.96
                             1495.65  1502.78  1527.38  1532.88  1540.05
                             1599.68  1629.51  1640.30  1673.75  1704.86
                             1760.30  1768.93  1804.30  1841.51  1845.48
                             1875.44  1891.67  1903.90  1905.96  1916.55
                             1928.19  1965.11  1969.83  2008.58  2019.61
                             2033.11  2046.98  2106.15  2137.37  2138.20
                             2139.12  2151.00  2157.60  2165.66  2170.79
                             2177.70  2325.18  2342.47  2427.93  2449.99
                             2454.11  4302.67  4309.11  4325.89  4328.57
                             4332.60  4340.27  4347.97  4353.78  4374.20
                             4378.28  4426.91  4433.20  4433.55  4563.45
                             4583.86  4604.49  4609.74  5161.89

 Zero-point correction=                           0.306082 (Hartree/Particle)
 Thermal correction to Energy=                    0.323432
 Thermal correction to Enthalpy=                  0.324376
 Thermal correction to Gibbs Free Energy=         0.260003
 Sum of electronic and zero-point Energies=           -846.159241
 Sum of electronic and thermal Energies=              -846.141892
 Sum of electronic and thermal Enthalpies=            -846.140947
 Sum of electronic and thermal Free Energies=         -846.205320

                     E (Thermal)             CV                S
                      KCal/Mol        Cal/Mol-Kelvin    Cal/Mol-Kelvin
 Total                  202.957             66.531            135.484
 Electronic               0.000              0.000              0.000
 Translational            0.889              2.981             42.545
 Rotational               0.889              2.981             34.169
 Vibrational            201.179             60.569             58.771
 Vibration     1          0.594              1.981              5.185
 Vibration     2          0.595              1.979              4.992
 Vibration     3          0.596              1.975              4.618
 Vibration     4          0.597              1.973              4.421
 Vibration     5          0.604              1.950              3.482
 Vibration     6          0.610              1.929              3.045
 Vibration     7          0.614              1.917              2.854
 Vibration     8          0.617              1.907              2.720
 Vibration     9          0.617              1.905              2.703
 Vibration    10          0.625              1.879              2.431
 Vibration    11          0.630              1.863              2.301
 Vibration    12          0.659              1.773              1.775
 Vibration    13          0.667              1.750              1.680
 Vibration    14          0.689              1.685              1.452
 Vibration    15          0.689              1.683              1.444
 Vibration    16          0.740              1.539              1.091
 Vibration    17          0.759              1.488              0.994
 Vibration    18          0.775              1.446              0.923
 Vibration    19          0.779              1.435              0.905
 Vibration    20          0.786              1.419              0.880
 Vibration    21          0.803              1.375              0.815
 Vibration    22          0.803              1.375              0.815
 Vibration    23          0.839              1.288              0.703
 Vibration    24          0.893              1.165              0.569
 Vibration    25          0.895              1.163              0.566

                           ! Non-Optimized Parameters !
 Normal termination of Gaussian 16 at Tue Dec 26 21:36:10 2023.
