 Q-Chem 5.4, Q-Chem, Inc., Pleasanton, CA (2021)
 Q-Chem 5.4.0 for Intel X86 EM64T Linux

User input:
--------------------------------------------------------------
$molecule
0 1
C                  2.6085190000      1.5507490000     -0.2055610000
O                  2.4800860000      0.1869900000      0.2459400000
C                  1.3056980000     -0.4678890000      0.1702680000
C                  1.3007130000     -1.7961580000     -0.0556810000
C                  0.0498420000     -2.5720240000     -0.0839380000
O                  0.0635210000     -3.7779040000     -0.2994540000
C                 -1.2207590000     -1.8547440000      0.1120930000
C                 -1.2574670000     -0.5273810000      0.3407540000
O                 -2.4409350000      0.0721190000      0.5727130000
C                 -2.6908740000      1.4281260000      0.1497110000
C                  0.0232540000      0.2464870000      0.5026690000
O                  0.0259140000      1.3837700000      0.9362520000
H                  3.6727150000      1.6831770000     -0.3941850000
H                  2.0536190000      1.7064160000     -1.1339080000
H                  2.2643630000      2.2484420000      0.5545140000
H                  2.2239370000     -2.3348980000     -0.2293610000
H                 -2.1329030000     -2.4361850000      0.0604250000
H                 -2.2755810000      1.6072610000     -0.8450190000
H                 -3.7757260000      1.5118390000      0.1087290000
H                 -2.2779360000      2.1418060000      0.8589420000
$end
$rem
MAX_SCF_CYCLES=200
BASIS  =  6-311++G(d,p)
GUI  =  2
JOB_TYPE  =  SP
METHOD  =  B3LYP
SOLVENT_METHOD = PCM
$end
$pcm
theory = CPCM
$end
$solvent
dielectric 37.219
opticaldielectric 1.43
$end

--------------------------------------------------------------

             Standard Nuclear Orientation (Angstroms)
    I     Atom           X                Y                Z
 ----------------------------------------------------------------
    1      C       2.6085190000     1.5507490000    -0.2055610000
    2      O       2.4800860000     0.1869900000     0.2459400000
    3      C       1.3056980000    -0.4678890000     0.1702680000
    4      C       1.3007130000    -1.7961580000    -0.0556810000
    5      C       0.0498420000    -2.5720240000    -0.0839380000
    6      O       0.0635210000    -3.7779040000    -0.2994540000
    7      C      -1.2207590000    -1.8547440000     0.1120930000
    8      C      -1.2574670000    -0.5273810000     0.3407540000
    9      O      -2.4409350000     0.0721190000     0.5727130000
   10      C      -2.6908740000     1.4281260000     0.1497110000
   11      C       0.0232540000     0.2464870000     0.5026690000
   12      O       0.0259140000     1.3837700000     0.9362520000
   13      H       3.6727150000     1.6831770000    -0.3941850000
   14      H       2.0536190000     1.7064160000    -1.1339080000
   15      H       2.2643630000     2.2484420000     0.5545140000
   16      H       2.2239370000    -2.3348980000    -0.2293610000
   17      H      -2.1329030000    -2.4361850000     0.0604250000
   18      H      -2.2755810000     1.6072610000    -0.8450190000
   19      H      -3.7757260000     1.5118390000     0.1087290000
   20      H      -2.2779360000     2.1418060000     0.8589420000
 ----------------------------------------------------------------

    9    -610.6852058273      5.93e-06  Convergence criterion met
 Total energy in the final basis set =     -610.6852058273

                    Orbital Energies (a.u.)
 --------------------------------------------------------------

 Alpha MOs
 -- Occupied --
-19.1760 -19.1760 -19.1565 -19.1327 -10.3046 -10.2830 -10.2739 -10.2739
-10.2239 -10.2238 -10.1975 -10.1975  -1.1069  -1.0900  -1.0722  -1.0635
 -0.8609  -0.7983  -0.7342  -0.7066  -0.7025  -0.6287  -0.6041  -0.5501
 -0.5386  -0.5177  -0.5108  -0.4933  -0.4782  -0.4703  -0.4596  -0.4404
 -0.4381  -0.4237  -0.4230  -0.4205  -0.3783  -0.3766  -0.3570  -0.3445
 -0.2889  -0.2851  -0.2830  -0.2567

          Ground-State Mulliken Net Atomic Charges

     Atom                 Charge (a.u.)
  ----------------------------------------
      1 C                    -0.348212
      2 O                    -0.186891
      3 C                    -0.120234
      4 C                     0.261570
      5 C                    -0.405466
      6 O                    -0.348078
      7 C                     0.260199
      8 C                    -0.115032
      9 O                    -0.187902
     10 C                    -0.347659
     11 C                     0.139534
     12 O                    -0.250931
     13 H                     0.175081
     14 H                     0.185855
     15 H                     0.192600
     16 H                     0.271135
     17 H                     0.271219
     18 H                     0.185262
     19 H                     0.175154
     20 H                     0.192796
  ----------------------------------------
  Sum of atomic charges =     0.000000

                    Cartesian Multipole Moments
 -----------------------------------------------------------------
    Charge (ESU x 10^10)
                -0.0000
    Dipole Moment (Debye)
         X      -0.2531      Y       5.7714      Z      -1.7619
       Tot       6.0397
    Quadrupole Moments (Debye-Ang)
        XX     -62.6373     XY       0.2062     YY     -87.2627
        XZ      -0.4500     YZ      -4.9818     ZZ     -70.9858

 Total job time:  18.33s(wall), 135.20s(cpu)
        *  Thank you very much for using Q-Chem.  Have a nice day.  *
