 Gaussian 16, Revision A.03,
 Gaussian 16:  ES64L-G16RevA.03 25-Dec-2016

 ----------------------------------------------------------------------
 #P UB3LYP/6-311++G(d,p) nosym opt freq SCRF=(PCM,Solvent=n,n-DiMethylF
 ormamide)
 ----------------------------------------------------------------------

 -------
 Reduced
 -------
 Symbolic Z-matrix:
 Charge = -2 Multiplicity = 1

 SCF Done:  E(UB3LYP) =  -609.784170328     A.U. after   19 cycles
 SCF Done:  E(UB3LYP) =  -609.785376312     A.U. after   13 cycles
 SCF Done:  E(UB3LYP) =  -609.785026067     A.U. after   15 cycles
 SCF Done:  E(UB3LYP) =  -609.785822330     A.U. after   14 cycles
 SCF Done:  E(UB3LYP) =  -609.785953226     A.U. after   13 cycles
 SCF Done:  E(UB3LYP) =  -609.785960162     A.U. after   11 cycles
 SCF Done:  E(UB3LYP) =  -609.785964495     A.U. after   12 cycles
 SCF Done:  E(UB3LYP) =  -609.785966675     A.U. after   11 cycles
 SCF Done:  E(UB3LYP) =  -609.785967297     A.U. after   10 cycles
 SCF Done:  E(UB3LYP) =  -609.785967609     A.U. after   10 cycles
 Optimization completed.
    -- Stationary point found.
 Normal termination of Gaussian 16 at Sat Feb 10 12:42:31 2024.

 ----------------------------------------------------------------------
 #P Geom=AllCheck Guess=TCheck SCRF=Check GenChk UB3LYP/6-311++G(d,p) F
 req
 ----------------------------------------------------------------------

 Structure from the checkpoint file:  "096-an.chk"
 -------
 Reduced
 -------
 Charge = -2 Multiplicity = 1

                          Input orientation:
 ---------------------------------------------------------------------
 Center     Atomic      Atomic             Coordinates (Angstroms)
 Number     Number       Type             X           Y           Z
 ---------------------------------------------------------------------
      1          6           0        2.093420    3.837321    5.677333
      2          6           0        2.862361    3.280286    4.592513
      3          6           0        2.365066    2.381356    3.674037
      4          6           0        1.010314    1.900388    3.705617
      5          6           0        0.241574    2.430695    4.752625
      6          6           0        0.723233    3.366097    5.729025
      7          8           0        2.648043    4.675397    6.485589
      8          8           0        0.562342    1.038933    2.817729
      9          1           0        3.896945    3.610079    4.521604
     10          1           0        3.015626    2.009247    2.883315
     11          1           0       -0.789037    2.104941    4.826069
     12          6           0       -0.190394    3.825784    6.769901
     13          8           0        0.025728    4.601922    7.697212
     14          8           0       -1.457895    3.278961    6.648208
     15          6           0       -2.413034    3.668300    7.639343
     16          1           0       -3.333767    3.146899    7.380339
     17          1           0       -2.580929    4.747434    7.626460
     18          1           0       -2.088576    3.373812    8.639923
 ---------------------------------------------------------------------

 SCF Done:  E(UB3LYP) =  -609.785967609     A.U. after    1 cycles

 Alpha  occ. eigenvalues --  -19.13748 -19.07941 -19.02460 -19.01173 -10.26914
 Alpha  occ. eigenvalues --  -10.20703 -10.18675 -10.16855 -10.13909 -10.13674
 Alpha  occ. eigenvalues --  -10.13065 -10.12000  -1.07280  -0.98358  -0.93812
 Alpha  occ. eigenvalues --   -0.91626  -0.78740  -0.73609  -0.68845  -0.65390
 Alpha  occ. eigenvalues --   -0.59420  -0.55411  -0.52292  -0.47151  -0.46089
 Alpha  occ. eigenvalues --   -0.45249  -0.42947  -0.42079  -0.41264  -0.38501
 Alpha  occ. eigenvalues --   -0.38024  -0.35811  -0.34941  -0.34082  -0.33382
 Alpha  occ. eigenvalues --   -0.31585  -0.31261  -0.28561  -0.25978  -0.22763
 Alpha  occ. eigenvalues --   -0.22368  -0.19478  -0.19257  -0.12706
 Alpha virt. eigenvalues --   -0.01812   0.00216   0.01134   0.02107   0.03208
 Alpha virt. eigenvalues --    0.03801   0.03892   0.05089   0.05526   0.06370
 Alpha virt. eigenvalues --    0.06620   0.06870   0.08344   0.08553   0.09226

  Beta  occ. eigenvalues --  -19.13748 -19.07941 -19.02460 -19.01173 -10.26914
  Beta  occ. eigenvalues --  -10.20703 -10.18675 -10.16855 -10.13909 -10.13674
  Beta  occ. eigenvalues --  -10.13065 -10.12000  -1.07280  -0.98358  -0.93812
  Beta  occ. eigenvalues --   -0.91626  -0.78740  -0.73609  -0.68845  -0.65390
  Beta  occ. eigenvalues --   -0.59420  -0.55411  -0.52292  -0.47151  -0.46089
  Beta  occ. eigenvalues --   -0.45249  -0.42947  -0.42079  -0.41264  -0.38501
  Beta  occ. eigenvalues --   -0.38024  -0.35811  -0.34941  -0.34082  -0.33382
  Beta  occ. eigenvalues --   -0.31585  -0.31261  -0.28561  -0.25978  -0.22763
  Beta  occ. eigenvalues --   -0.22368  -0.19478  -0.19257  -0.12706
  Beta virt. eigenvalues --   -0.01812   0.00216   0.01134   0.02107   0.03208
  Beta virt. eigenvalues --    0.03801   0.03892   0.05089   0.05526   0.06370
  Beta virt. eigenvalues --    0.06620   0.06870   0.08344   0.08553   0.09226

 Mulliken charges and spin densities:
               1          2
     1  C   -0.915211  -0.000000
     2  C   -0.005857   0.000000
     3  C    0.057655  -0.000000
     4  C   -0.573903   0.000000
     5  C   -0.184306  -0.000000
     6  C    0.938587  -0.000000
     7  O   -0.659335   0.000000
     8  O   -0.761155  -0.000000
     9  H    0.146504  -0.000000
    10  H    0.150581   0.000000
    11  H    0.165037  -0.000000
    12  C   -0.008428   0.000000
    13  O   -0.417337  -0.000000
    14  O   -0.185515  -0.000000
    15  C   -0.226469   0.000000
    16  H    0.143025   0.000000
    17  H    0.167851   0.000000
    18  H    0.168277   0.000000
 Sum of Mulliken charges =  -2.00000   0.00000

 Dipole moment (field-independent basis, Debye):
    X=            -12.9608    Y=            -29.0439    Z=            -47.9520  Tot=             57.5407
 Quadrupole moment (field-independent basis, Debye-Ang):
   XX=            -99.6027   YY=           -196.4099   ZZ=           -353.9975
   XY=            -52.2002   XZ=            -79.0256   YZ=           -179.4451

  Exact polarizability: 225.315  19.271 157.902 -33.380  59.795 197.716
 Approx polarizability: 247.879  25.997 174.822 -31.513  67.920 215.543

                      1                      2                      3
                      A                      A                      A
 Frequencies --     48.8236                84.9788               119.3184
 Red. masses --      6.7635                 3.9095                 5.1638
 Frc consts  --      0.0095                 0.0166                 0.0433
 IR Inten    --      4.1957                13.2467                 3.5388

                      4                      5                      6
                      A                      A                      A
 Frequencies --    164.8822               170.8448               185.4734
 Red. masses --      4.7529                 2.9011                 1.3985
 Frc consts  --      0.0761                 0.0499                 0.0283
 IR Inten    --      8.9678                10.2529                 3.9409

                      7                      8                      9
                      A                      A                      A
 Frequencies --    315.0063               330.8634               338.0793
 Red. masses --      7.7033                 6.1500                 6.2879
 Frc consts  --      0.4504                 0.3967                 0.4234
 IR Inten    --      8.0095                 3.1224                 0.1828

                     10                     11                     12
                      A                      A                      A
 Frequencies --    408.1407               425.6304               442.1846
 Red. masses --      7.5642                10.1214                 3.9010
 Frc consts  --      0.7424                 1.0803                 0.4494
 IR Inten    --     21.0062                10.0412                 0.0077

                     13                     14                     15
                      A                      A                      A
 Frequencies --    483.4006               559.2693               563.7963
 Red. masses --     11.9521                 2.2521                 4.8832
 Frc consts  --      1.6455                 0.4150                 0.9145
 IR Inten    --     19.7126                30.0934                 2.2142

                     16                     17                     18
                      A                      A                      A
 Frequencies --    682.0068               712.4724               767.8694
 Red. masses --      6.9832                 3.7068                 6.1662
 Frc consts  --      1.9137                 1.1086                 2.1421
 IR Inten    --     15.4750                 1.1450               153.7462

                     19                     20                     21
                      A                      A                      A
 Frequencies --    780.1395               812.5160               831.5931
 Red. masses --      3.1042                 6.1024                 2.2989
 Frc consts  --      1.1131                 2.3736                 0.9367
 IR Inten    --     11.0771               140.1409                14.0185

                     22                     23                     24
                      A                      A                      A
 Frequencies --    837.4739               904.6252               944.1606
 Red. masses --      1.9733                 6.5343                 1.2987
 Frc consts  --      0.8154                 3.1506                 0.6821
 IR Inten    --     92.2856               111.6488                 0.2311

                     25                     26                     27
                      A                      A                      A
 Frequencies --    968.5080              1069.1975              1120.1462
 Red. masses --      3.6916                 5.7104                 2.1979
 Frc consts  --      2.0402                 3.8462                 1.6248
 IR Inten    --     89.1311               254.5081               448.3970

                     28                     29                     30
                      A                      A                      A
 Frequencies --   1139.8411              1166.3213              1195.8259
 Red. masses --      1.9326                 1.2778                 1.5468
 Frc consts  --      1.4794                 1.0241                 1.3032
 IR Inten    --   1376.4027                 1.1793                 0.4735

                     31                     32                     33
                      A                      A                      A
 Frequencies --   1219.1895              1253.7652              1312.9184
 Red. masses --      1.9206                 3.1170                 4.0909
 Frc consts  --      1.6820                 2.8868                 4.1547
 IR Inten    --    228.3770               187.3331               518.6943

                     34                     35                     36
                      A                      A                      A
 Frequencies --   1331.3202              1408.8777              1444.8028
 Red. masses --      4.2540                 9.4813                 2.7110
 Frc consts  --      4.4423                11.0883                 3.3342
 IR Inten    --    102.7892               247.6342               870.3185

                     37                     38                     39
                      A                      A                      A
 Frequencies --   1462.0647              1472.5823              1483.4413
 Red. masses --      1.1815                 1.0478                 3.9304
 Frc consts  --      1.4881                 1.3387                 5.0960
 IR Inten    --     24.4330                 9.3615               362.0806

                     40                     41                     42
                      A                      A                      A
 Frequencies --   1494.0782              1605.6215              1663.1368
 Red. masses --      1.0917                 6.7310                10.3397
 Frc consts  --      1.4358                10.2239                16.8506
 IR Inten    --     13.3647               502.1027               935.5583

                     43                     44                     45
                      A                      A                      A
 Frequencies --   3032.4160              3095.8467              3104.1625
 Red. masses --      1.0302                 1.1059                 1.0849
 Frc consts  --      5.5813                 6.2451                 6.1591
 IR Inten    --     93.2554                53.0714                69.7438

                     46                     47                     48
                      A                      A                      A
 Frequencies --   3129.9458              3131.8529              3175.5096
 Red. masses --      1.1042                 1.0925                 1.0872
 Frc consts  --      6.3731                 6.3134                 6.4593
 IR Inten    --     40.4577               110.2511                35.6043

 - Thermochemistry -
 -------------------
 Temperature   298.150 Kelvin.  Pressure   1.00000 Atm.
 Atom     1 has atomic number  6 and mass  12.00000

 Molecular mass:   166.02661 amu.
 Principal axes and moments of inertia in atomic units:
                           1         2         3
     Eigenvalues --  1240.282142539.033983767.88115
           X           -0.57269   0.76934  -0.28309
           Y            0.35749   0.54514   0.75831
           Z            0.73772   0.33308  -0.58722
 This molecule is an asymmetric top.
 Rotational symmetry number  1.
 Warning -- assumption of classical behavior for rotation
           may cause significant error
 Rotational temperatures (Kelvin)      0.06983     0.03411     0.02299
 Rotational constants (GHZ):           1.45511     0.71080     0.47898
 Zero-point vibrational energy     325353.9 (Joules/Mol)
                                   77.76144 (Kcal/Mol)
 Warning -- explicit consideration of  15 degrees of freedom as
           vibrations may cause significant error
 Vibrational temperatures:     70.25   122.27   171.67   237.23   245.81
          (Kelvin)            266.85   453.22   476.04   486.42   587.22
                              612.39   636.21   695.51   804.66   811.18
                              981.26  1025.09  1104.79  1122.45  1169.03
                             1196.48  1204.94  1301.55  1358.44  1393.47
                             1538.34  1611.64  1639.98  1678.08  1720.53
                             1754.14  1803.89  1889.00  1915.47  2027.06
                             2078.75  2103.59  2118.72  2134.34  2149.65
                             2310.13  2392.88  4362.97  4454.23  4466.20
                             4503.29  4506.04  4568.85

 Zero-point correction=                           0.123921 (Hartree/Particle)
 Thermal correction to Energy=                    0.134433
 Thermal correction to Enthalpy=                  0.135377
 Thermal correction to Gibbs Free Energy=         0.087061
 Sum of electronic and zero-point Energies=           -609.662047
 Sum of electronic and thermal Energies=              -609.651535
 Sum of electronic and thermal Enthalpies=            -609.650591
 Sum of electronic and thermal Free Energies=         -609.698907

                     E (Thermal)             CV                S
                      KCal/Mol        Cal/Mol-Kelvin    Cal/Mol-Kelvin
 Total                   84.358             38.810            101.690
 Electronic               0.000              0.000              0.000
 Translational            0.889              2.981             41.229
 Rotational               0.889              2.981             30.851
 Vibrational             82.580             32.848             29.609
 Vibration     1          0.595              1.978              4.864
 Vibration     2          0.601              1.960              3.772
 Vibration     3          0.609              1.933              3.111
 Vibration     4          0.623              1.886              2.493
 Vibration     5          0.626              1.878              2.426
 Vibration     6          0.632              1.860              2.273
 Vibration     7          0.702              1.645              1.336
 Vibration     8          0.713              1.614              1.256
 Vibration     9          0.718              1.599              1.221
 Vibration    10          0.773              1.453              0.933
 Vibration    11          0.787              1.414              0.873
 Vibration    12          0.802              1.378              0.820
 Vibration    13          0.840              1.287              0.701
 Vibration    14          0.915              1.119              0.525
 Vibration    15          0.920              1.110              0.516

                           ! Non-Optimized Parameters !
 Normal termination of Gaussian 16 at Sat Feb 10 12:57:15 2024.
