 Q-Chem 5.4, Q-Chem, Inc., Pleasanton, CA (2021)
 Q-Chem 5.4.0 for Intel X86 EM64T Linux

User input:
--------------------------------------------------------------
$molecule
0 1
Cl                 2.3036300000     -2.0604200000      0.0548880000
C                  1.0518560000     -0.8772180000      0.0239180000
C                  1.2928540000      0.4520720000      0.0020060000
Cl                 2.8808390000      1.1207340000      0.0024780000
C                  0.1648900000      1.4446470000     -0.0245980000
O                  0.3670920000      2.6401820000     -0.0444800000
C                 -1.2139150000      0.8985850000     -0.0255640000
C                 -1.4523420000     -0.4150840000     -0.0038960000
C                 -0.3535300000     -1.4104280000      0.0224910000
O                 -0.5842350000     -2.6007630000      0.0419890000
H                 -2.0044010000      1.6398340000     -0.0450010000
H                 -2.4527400000     -0.8321410000     -0.0042310000
$end
$rem
MAX_SCF_CYCLES=200
BASIS  =  6-311++G(d,p)
GUI  =  2
JOB_TYPE  =  SP
METHOD  =  B3LYP
SOLVENT_METHOD = COSMO
$end
$solvent
dielectric 37.219
opticaldielectric 1.43
$end

--------------------------------------------------------------

             Standard Nuclear Orientation (Angstroms)
    I     Atom           X                Y                Z
 ----------------------------------------------------------------
    1      Cl     -1.6161819758    -1.7241301095    -0.0000149557
    2      C      -0.6755653044    -0.2808336956    -0.0000090282
    3      C       0.6755718720    -0.2801962540    -0.0000004139
    4      Cl      1.6173388113    -1.7230685575     0.0000300737
    5      C       1.4507302273     1.0071829492    -0.0000102535
    6      O       2.6633155901     1.0220696590    -0.0000635766
    7      C       0.6669864430     2.2661641041     0.0000252602
    8      C      -0.6683199034     2.2657908503     0.0000322817
    9      C      -1.4514120136     1.0066004320     0.0000034706
   10      O      -2.6639728886     1.0206896301    -0.0000112170
   11      H       1.2551391103     3.1765334977     0.0000430549
   12      H      -1.2574948510     3.1755192123     0.0000503874
 ----------------------------------------------------------------

    8   -1300.7973596969      8.84e-06  Convergence criterion met
 Total energy in the final basis set =    -1300.7973596969
    5   -1300.8106436865      2.66e-06  Convergence criterion met
 Total energy in the final basis set =    -1300.8106436865

                    Orbital Energies (a.u.)
 --------------------------------------------------------------

 Alpha MOs
 -- Occupied --
********-101.5863 -19.1598 -19.1598 -10.3097 -10.3097 -10.2845 -10.2838
-10.2230 -10.2222  -9.5008  -9.5008  -7.2657  -7.2656  -7.2560  -7.2560
 -7.2547  -7.2546  -1.0955  -1.0935  -0.9395  -0.8863  -0.8590  -0.7755
 -0.7210  -0.6419  -0.6260  -0.5528  -0.5257  -0.5027  -0.4795  -0.4786
 -0.4707  -0.4568  -0.4425  -0.4311  -0.4024  -0.3649  -0.3559  -0.3350
 -0.3238  -0.3118  -0.3029  -0.2862

          Ground-State Mulliken Net Atomic Charges

     Atom                 Charge (a.u.)
  ----------------------------------------
      1 Cl                    0.394627
      2 C                     0.449341
      3 C                     0.449376
      4 Cl                    0.394120
      5 C                    -0.946272
      6 O                    -0.249758
      7 C                     0.075312
      8 C                     0.075601
      9 C                    -0.944264
     10 O                    -0.249794
     11 H                     0.275874
     12 H                     0.275836
  ----------------------------------------
  Sum of atomic charges =     0.000000

                    Cartesian Multipole Moments
 -----------------------------------------------------------------
    Charge (ESU x 10^10)
                 0.0000
    Dipole Moment (Debye)
         X      -0.0034      Y       2.4641      Z       0.0002
       Tot       2.4641
    Quadrupole Moments (Debye-Ang)
        XX     -90.3912     XY      -0.0049     YY     -59.1866
        XZ       0.0003     YZ       0.0001     ZZ     -69.0090

 Total job time:  10.64s(wall), 74.39s(cpu)
        *  Thank you very much for using Q-Chem.  Have a nice day.  *
