 Gaussian 16, Revision A.03,
 Gaussian 16:  ES64L-G16RevA.03 25-Dec-2016

 ---------------------------------------------------
 #P UB3LYP/6-311++G(d,p) nosym opt freq Int=Acc2E=11
 ---------------------------------------------------

 -------
 Reduced
 -------
 Symbolic Z-matrix:
 Charge = -2 Multiplicity = 1

 SCF Done:  E(UB3LYP) =  -1368.23606211     A.U. after   23 cycles
 SCF Done:  E(UB3LYP) =  -1368.26043096     A.U. after   16 cycles
 SCF Done:  E(UB3LYP) =  -1368.26645929     A.U. after   15 cycles
 SCF Done:  E(UB3LYP) =  -1368.27185353     A.U. after   16 cycles
 SCF Done:  E(UB3LYP) =  -1368.27539816     A.U. after   15 cycles
 SCF Done:  E(UB3LYP) =  -1368.27387842     A.U. after   16 cycles
 SCF Done:  E(UB3LYP) =  -1368.28459652     A.U. after   15 cycles
 SCF Done:  E(UB3LYP) =  -1368.27994305     A.U. after   16 cycles
 SCF Done:  E(UB3LYP) =  -1368.29076276     A.U. after   14 cycles
 SCF Done:  E(UB3LYP) =  -1368.27896131     A.U. after   15 cycles
 SCF Done:  E(UB3LYP) =  -1368.29288099     A.U. after   14 cycles
 SCF Done:  E(UB3LYP) =  -1368.29504443     A.U. after   13 cycles
 SCF Done:  E(UB3LYP) =  -1368.29518987     A.U. after   14 cycles
 SCF Done:  E(UB3LYP) =  -1368.29531246     A.U. after   13 cycles
 SCF Done:  E(UB3LYP) =  -1368.29547226     A.U. after   13 cycles
 SCF Done:  E(UB3LYP) =  -1368.29549786     A.U. after   12 cycles
 SCF Done:  E(UB3LYP) =  -1368.29549130     A.U. after   13 cycles
 SCF Done:  E(UB3LYP) =  -1368.29550784     A.U. after   13 cycles
 Optimization completed.
    -- Stationary point found.
 Normal termination of Gaussian 16 at Thu Jan  4 22:59:27 2024.

 ----------------------------------------------------------------------
 #P Geom=AllCheck Guess=TCheck SCRF=Check GenChk UB3LYP/6-311++G(d,p) F
 req
 ----------------------------------------------------------------------

 Structure from the checkpoint file:  "157-an-new.chk"
 -------
 Reduced
 -------
 Charge = -2 Multiplicity = 1

                          Input orientation:
 ---------------------------------------------------------------------
 Center     Atomic      Atomic             Coordinates (Angstroms)
 Number     Number       Type             X           Y           Z
 ---------------------------------------------------------------------
      1          6           0       -1.687184    1.961661   -5.163994
      2          6           0       -1.617253    0.643232   -5.542870
      3          6           0       -1.312718   -0.369785   -4.592224
      4          6           0       -1.457870    2.365240   -3.806760
      5          6           0       -1.148583    1.331940   -2.844236
      6          6           0       -1.087291   -0.009284   -3.278295
      7          6           0       -1.530362    3.710737   -3.425057
      8          6           0       -0.900521    1.645312   -1.446656
      9          6           0       -1.298604    4.083195   -2.076713
     10          6           0       -0.986875    3.061199   -1.099326
     11          6           0       -1.354489    5.444768   -1.607512
     12          6           0       -1.119496    5.756229   -0.282902
     13          6           0       -0.815371    4.747983    0.659586
     14          6           0       -0.755635    3.437822    0.240764
     15          8           0       -1.831244    4.639563   -4.410608
     16          8           0       -0.628298    0.753044   -0.589634
     17          7           0       -1.666215    6.508711   -2.559041
     18          1           0       -1.919226    2.733870   -5.887902
     19          1           0       -1.796979    0.371798   -6.581423
     20          1           0       -1.259115   -1.410961   -4.899615
     21          1           0       -0.851786   -0.749811   -2.520499
     22         16           0       -1.205977    7.502177    0.260960
     23          1           0       -0.637634    5.035825    1.687972
     24          1           0       -1.833220    5.517394   -3.948772
     25          1           0       -2.477378    7.011974   -2.196327
     26          1           0       -0.525493    2.636079    0.933983
     27          8           0       -2.599770    7.940390   -0.062321
     28          8           0       -0.902466    7.495239    1.714446
     29          8           0       -0.182435    8.216362   -0.565286
     30          1           0       -0.919104    7.202096   -2.493586
 ---------------------------------------------------------------------

 SCF Done:  E(UB3LYP) =  -1368.29550784     A.U. after    1 cycles

 Alpha  occ. eigenvalues --  -88.81247 -18.89757 -18.85763 -18.85553 -18.85545
 Alpha  occ. eigenvalues --  -18.82886 -14.09937  -9.99366  -9.99190  -9.98620
 Alpha  occ. eigenvalues --   -9.97048  -9.96982  -9.96316  -9.96189  -9.96079
 Alpha  occ. eigenvalues --   -9.95956  -9.95630  -9.94868  -9.94806  -9.94474
 Alpha  occ. eigenvalues --   -9.94461  -7.87110  -5.83381  -5.83366  -5.83296
 Alpha  occ. eigenvalues --   -0.87227  -0.80790  -0.75282  -0.73908  -0.73285
 Alpha  occ. eigenvalues --   -0.69601  -0.64209  -0.62145  -0.57304  -0.53907
 Alpha  occ. eigenvalues --   -0.52462  -0.51728  -0.45919  -0.43256  -0.40897
 Alpha  occ. eigenvalues --   -0.37681  -0.35613  -0.35275  -0.32492  -0.30018
 Alpha  occ. eigenvalues --   -0.28856  -0.27814  -0.26275  -0.25823  -0.24939
 Alpha  occ. eigenvalues --   -0.22625  -0.22084  -0.21807  -0.21399  -0.21277
 Alpha  occ. eigenvalues --   -0.20149  -0.19071  -0.18630  -0.16818  -0.15886
 Alpha  occ. eigenvalues --   -0.14555  -0.14517  -0.14265  -0.13278  -0.11614
 Alpha  occ. eigenvalues --   -0.11559  -0.10033  -0.09709  -0.06861  -0.06777
 Alpha  occ. eigenvalues --   -0.06157  -0.05346  -0.04779  -0.04200  -0.02877
 Alpha  occ. eigenvalues --   -0.02064  -0.01807  -0.00154   0.07167
 Alpha virt. eigenvalues --    0.14162   0.15989   0.16209   0.17825   0.18567
 Alpha virt. eigenvalues --    0.19087   0.19221   0.20241   0.20833   0.21605
 Alpha virt. eigenvalues --    0.22301   0.23129   0.23651   0.23838   0.24714

  Beta  occ. eigenvalues --  -88.81247 -18.89757 -18.85763 -18.85553 -18.85545
  Beta  occ. eigenvalues --  -18.82886 -14.09937  -9.99366  -9.99190  -9.98620
  Beta  occ. eigenvalues --   -9.97048  -9.96982  -9.96316  -9.96189  -9.96079
  Beta  occ. eigenvalues --   -9.95956  -9.95630  -9.94868  -9.94806  -9.94474
  Beta  occ. eigenvalues --   -9.94461  -7.87110  -5.83381  -5.83366  -5.83296
  Beta  occ. eigenvalues --   -0.87227  -0.80790  -0.75282  -0.73908  -0.73285
  Beta  occ. eigenvalues --   -0.69601  -0.64209  -0.62145  -0.57304  -0.53907
  Beta  occ. eigenvalues --   -0.52462  -0.51728  -0.45919  -0.43256  -0.40897
  Beta  occ. eigenvalues --   -0.37681  -0.35613  -0.35275  -0.32492  -0.30018
  Beta  occ. eigenvalues --   -0.28856  -0.27814  -0.26275  -0.25823  -0.24939
  Beta  occ. eigenvalues --   -0.22625  -0.22084  -0.21807  -0.21399  -0.21277
  Beta  occ. eigenvalues --   -0.20149  -0.19071  -0.18630  -0.16818  -0.15886
  Beta  occ. eigenvalues --   -0.14555  -0.14517  -0.14265  -0.13278  -0.11614
  Beta  occ. eigenvalues --   -0.11559  -0.10033  -0.09709  -0.06861  -0.06777
  Beta  occ. eigenvalues --   -0.06157  -0.05346  -0.04779  -0.04200  -0.02877
  Beta  occ. eigenvalues --   -0.02064  -0.01807  -0.00154   0.07167
  Beta virt. eigenvalues --    0.14162   0.15989   0.16209   0.17825   0.18567
  Beta virt. eigenvalues --    0.19087   0.19221   0.20241   0.20833   0.21605
  Beta virt. eigenvalues --    0.22301   0.23129   0.23651   0.23838   0.24714

 Mulliken charges and spin densities:
               1          2
     1  C   -0.132701   0.000000
     2  C   -0.454139  -0.000000
     3  C   -0.404794  -0.000000
     4  C    0.344650  -0.000000
     5  C    0.295250   0.000000
     6  C   -0.033600  -0.000000
     7  C   -0.263471  -0.000000
     8  C   -0.717325   0.000000
     9  C    0.162307  -0.000000
    10  C    0.680501  -0.000000
    11  C   -0.198150   0.000000
    12  C   -1.122677  -0.000000
    13  C    0.000635  -0.000000
    14  C    0.013424   0.000000
    15  O   -0.453036  -0.000000
    16  O   -0.434451  -0.000000
    17  N   -0.590705  -0.000000
    18  H    0.117393  -0.000000
    19  H    0.092806  -0.000000
    20  H    0.091284   0.000000
    21  H    0.133442   0.000000
    22  S    0.435966   0.000000
    23  H    0.198104   0.000000
    24  H    0.470134  -0.000000
    25  H    0.299869  -0.000000
    26  H    0.143820  -0.000000
    27  O   -0.364355  -0.000000
    28  O   -0.243847  -0.000000
    29  O   -0.366561  -0.000000
    30  H    0.300224  -0.000000
 Sum of Mulliken charges =  -2.00000   0.00000

 Dipole moment (field-independent basis, Debye):
    X=             11.2274    Y=            -43.4656    Z=             11.5272  Tot=             46.3485
 Quadrupole moment (field-independent basis, Debye-Ang):
   XX=           -160.6615   YY=           -446.5459   ZZ=           -204.2404
   XY=             53.7618   XZ=            -17.6611   YZ=             10.1746

  Exact polarizability: 138.945  -6.948 351.799  27.129  86.056 313.693
 Approx polarizability: 230.040 -18.502 548.698  56.751  90.862 545.998

                      1                      2                      3
                      A                      A                      A
 Frequencies --     31.8180                41.8066                89.1503
 Red. masses --      8.7625                 7.8666                 7.9571
 Frc consts  --      0.0052                 0.0081                 0.0373
 IR Inten    --      0.0791                 0.1271                 7.2321

                      4                      5                      6
                      A                      A                      A
 Frequencies --    109.4852               127.8933               143.0461
 Red. masses --      5.2417                 9.1224                 4.6685
 Frc consts  --      0.0370                 0.0879                 0.0563
 IR Inten    --      3.1758                 4.2769                 0.8239

                      7                      8                      9
                      A                      A                      A
 Frequencies --    168.8177               197.3426               210.4819
 Red. masses --      8.1352                 5.0909                11.2475
 Frc consts  --      0.1366                 0.1168                 0.2936
 IR Inten    --      2.3184                 0.0092                 4.2015

                     10                     11                     12
                      A                      A                      A
 Frequencies --    242.8365               258.3724               273.7900
 Red. masses --      7.5124                 1.6935                 2.0717
 Frc consts  --      0.2610                 0.0666                 0.0915
 IR Inten    --      7.9147                11.3698                10.9185

                     13                     14                     15
                      A                      A                      A
 Frequencies --    295.8212               352.7101               354.4781
 Red. masses --      9.1077                 7.2506                 7.0243
 Frc consts  --      0.4696                 0.5314                 0.5200
 IR Inten    --      3.0043                 0.0759                 7.7500

                     16                     17                     18
                      A                      A                      A
 Frequencies --    385.8927               391.7324               404.0985
 Red. masses --      7.7735                 6.7228                 6.1280
 Frc consts  --      0.6820                 0.6078                 0.5896
 IR Inten    --      6.9714                 1.7470                11.9101

                     19                     20                     21
                      A                      A                      A
 Frequencies --    419.9645               446.2293               482.6545
 Red. masses --      6.7763                 3.6587                 8.8864
 Frc consts  --      0.7042                 0.4292                 1.2197
 IR Inten    --      5.4200                 1.2725                 1.8744

                     22                     23                     24
                      A                      A                      A
 Frequencies --    490.8019               504.8126               521.5334
 Red. masses --      9.4088                12.5148                 8.3232
 Frc consts  --      1.3354                 1.8790                 1.3338
 IR Inten    --      7.7720                22.3724                 5.7023

                     25                     26                     27
                      A                      A                      A
 Frequencies --    531.3176               551.0969               575.6276
 Red. masses --      3.9022                 5.0562                 6.7170
 Frc consts  --      0.6490                 0.9047                 1.3113
 IR Inten    --      7.2716                13.2915                34.4733

                     28                     29                     30
                      A                      A                      A
 Frequencies --    604.2852               630.1964               655.4180
 Red. masses --      9.7463                 5.7683                 6.9756
 Frc consts  --      2.0969                 1.3497                 1.7655
 IR Inten    --    167.9654                 0.2400                12.1565

                     31                     32                     33
                      A                      A                      A
 Frequencies --    674.2823               691.9996               694.5958
 Red. masses --      5.9091                 2.0655                 7.6595
 Frc consts  --      1.5829                 0.5827                 2.1773
 IR Inten    --     58.8729                63.0865                14.9515

                     34                     35                     36
                      A                      A                      A
 Frequencies --    723.6918               742.0731               785.7311
 Red. masses --      4.7279                 2.2325                 1.7620
 Frc consts  --      1.4589                 0.7243                 0.6409
 IR Inten    --      0.0028                19.3319                 1.3765

                     37                     38                     39
                      A                      A                      A
 Frequencies --    799.8702               818.6038               841.9817
 Red. masses --      7.0272                 1.5742                 2.9573
 Frc consts  --      2.6489                 0.6215                 1.2352
 IR Inten    --      1.8899                21.2381                 1.8606

                     40                     41                     42
                      A                      A                      A
 Frequencies --    877.4922               930.5976               938.6904
 Red. masses --      7.2516                 1.0707                 7.6728
 Frc consts  --      3.2898                 0.5463                 3.9833
 IR Inten    --     19.8021                73.9089               104.6120

                     43                     44                     45
                      A                      A                      A
 Frequencies --    948.6694               966.0915               973.3909
 Red. masses --      1.2609                 1.3185                 7.4696
 Frc consts  --      0.6686                 0.7250                 4.1698
 IR Inten    --      0.1699                 1.2044               215.1526

                     46                     47                     48
                      A                      A                      A
 Frequencies --    982.4990              1000.1839              1024.1554
 Red. masses --      1.2839                 5.4530                 2.0857
 Frc consts  --      0.7302                 3.2140                 1.2890
 IR Inten    --      0.6937                77.8753                48.2644

                     49                     50                     51
                      A                      A                      A
 Frequencies --   1074.6245              1092.1944              1113.4426
 Red. masses --      4.1333                 1.7804                16.8135
 Frc consts  --      2.8123                 1.2513                12.2813
 IR Inten    --     46.2454               188.9955               300.3108

                     52                     53                     54
                      A                      A                      A
 Frequencies --   1121.4993              1142.1965              1154.7036
 Red. masses --      2.1380                 1.6736                 1.4634
 Frc consts  --      1.5844                 1.2864                 1.1496
 IR Inten    --     76.0909                43.0938                94.4572

                     55                     56                     57
                      A                      A                      A
 Frequencies --   1169.3114              1184.7736              1200.2603
 Red. masses --      4.3970                 2.1184                 2.4104
 Frc consts  --      3.5422                 1.7519                 2.0460
 IR Inten    --     45.2226               155.1929                12.4472

                     58                     59                     60
                      A                      A                      A
 Frequencies --   1232.5367              1258.1441              1258.4695
 Red. masses --      2.4808                 2.3238                 1.1972
 Frc consts  --      2.2205                 2.1673                 1.1172
 IR Inten    --     40.7705                44.0604                 0.3573

                     61                     62                     63
                      A                      A                      A
 Frequencies --   1320.0147              1347.4301              1356.7754
 Red. masses --      5.0178                 3.3476                 6.4455
 Frc consts  --      5.1513                 3.5809                 6.9907
 IR Inten    --      5.0572                90.0605               185.2211

                     64                     65                     66
                      A                      A                      A
 Frequencies --   1396.3496              1418.1586              1443.4160
 Red. masses --      4.7928                 3.2067                 2.6629
 Frc consts  --      5.5059                 3.7998                 3.2688
 IR Inten    --    343.4751               107.6119                13.1962

                     67                     68                     69
                      A                      A                      A
 Frequencies --   1464.9997              1491.6536              1520.4408
 Red. masses --      2.2103                 2.4938                 8.9446
 Frc consts  --      2.7950                 3.2693                12.1828
 IR Inten    --    197.2209                20.8728               394.2125

                     70                     71                     72
                      A                      A                      A
 Frequencies --   1527.9080              1565.8779              1597.0810
 Red. masses --      5.3299                 5.4208                 5.3699
 Frc consts  --      7.3310                 7.8312                 8.0700
 IR Inten    --     85.9574                62.4605                79.2047

                     73                     74                     75
                      A                      A                      A
 Frequencies --   1606.2846              1631.7624              1673.0047
 Red. masses --      2.4623                 5.1734                 1.1672
 Frc consts  --      3.7432                 8.1160                 1.9248
 IR Inten    --      5.8879                98.7217                41.1632

                     76                     77                     78
                      A                      A                      A
 Frequencies --   3106.2822              3131.7932              3165.1503
 Red. masses --      1.0841                 1.0898                 1.0915
 Frc consts  --      6.1629                 6.2980                 6.4428
 IR Inten    --     43.3213                91.4415                43.8230

                     79                     80                     81
                      A                      A                      A
 Frequencies --   3168.4641              3181.1181              3194.5500
 Red. masses --      1.0869                 1.0911                 1.0924
 Frc consts  --      6.4291                 6.5052                 6.5681
 IR Inten    --      6.1693                23.9234                10.8686

                     82                     83                     84
                      A                      A                      A
 Frequencies --   3214.0710              3433.9865              3466.4133
 Red. masses --      1.0694                 1.0506                 1.0884
 Frc consts  --      6.5090                 7.2993                 7.7054
 IR Inten    --    712.8356                38.5166                23.1431

 - Thermochemistry -
 -------------------
 Temperature   298.150 Kelvin.  Pressure   1.00000 Atm.
 Atom     1 has atomic number  6 and mass  12.00000

 Molecular mass:   303.02014 amu.
 Principal axes and moments of inertia in atomic units:
                           1         2         3
     Eigenvalues --  2458.67582********************
           X            0.01416   0.22465   0.97434
           Y            0.84522  -0.52332   0.10837
           Z            0.53424   0.82199  -0.19729
 This molecule is an asymmetric top.
 Rotational symmetry number  1.
 Warning -- assumption of classical behavior for rotation
           may cause significant error
 Rotational temperatures (Kelvin)      0.03523     0.00789     0.00662
 Rotational constants (GHZ):           0.73403     0.16430     0.13796
 Zero-point vibrational energy     546294.2 (Joules/Mol)
                                  130.56744 (Kcal/Mol)
 Warning -- explicit consideration of  28 degrees of freedom as
           vibrations may cause significant error
 Vibrational temperatures:     45.78    60.15   128.27   157.52   184.01
          (Kelvin)            205.81   242.89   283.93   302.84   349.39
                              371.74   393.92   425.62   507.47   510.01
                              555.21   563.62   581.41   604.24   642.02
                              694.43   706.15   726.31   750.37   764.45
                              792.91   828.20   869.43   906.71   943.00
                              970.14   995.63   999.37  1041.23  1067.68
                             1130.49  1150.83  1177.79  1211.42  1262.52
                             1338.92  1350.57  1364.92  1389.99  1400.49
                             1413.60  1439.04  1473.53  1546.14  1571.42
                             1602.00  1613.59  1643.37  1661.36  1682.38
                             1704.62  1726.91  1773.35  1810.19  1810.66
                             1899.21  1938.65  1952.10  2009.04  2040.41
                             2076.75  2107.81  2146.16  2187.58  2198.32
                             2252.95  2297.84  2311.09  2347.74  2407.08
                             4469.25  4505.95  4553.95  4558.71  4576.92
                             4596.24  4624.33  4940.74  4987.40

 Zero-point correction=                           0.208072 (Hartree/Particle)
 Thermal correction to Energy=                    0.224693
 Thermal correction to Enthalpy=                  0.225638
 Thermal correction to Gibbs Free Energy=         0.163657
 Sum of electronic and zero-point Energies=          -1368.087435
 Sum of electronic and thermal Energies=             -1368.070814
 Sum of electronic and thermal Enthalpies=           -1368.069870
 Sum of electronic and thermal Free Energies=        -1368.131851

                     E (Thermal)             CV                S
                      KCal/Mol        Cal/Mol-Kelvin    Cal/Mol-Kelvin
 Total                  140.997             66.290            130.450
 Electronic               0.000              0.000              0.000
 Translational            0.889              2.981             43.023
 Rotational               0.889              2.981             34.223
 Vibrational            139.220             60.328             53.204
 Vibration     1          0.594              1.983              5.713
 Vibration     2          0.594              1.980              5.172
 Vibration     3          0.602              1.957              3.679
 Vibration     4          0.606              1.942              3.278
 Vibration     5          0.611              1.925              2.977
 Vibration     6          0.616              1.910              2.763
 Vibration     7          0.625              1.881              2.449
 Vibration     8          0.637              1.844              2.158
 Vibration     9          0.643              1.825              2.039
 Vibration    10          0.659              1.775              1.782
 Vibration    11          0.667              1.749              1.673
 Vibration    12          0.676              1.722              1.572
 Vibration    13          0.690              1.682              1.440
 Vibration    14          0.729              1.570              1.154
 Vibration    15          0.730              1.566              1.146
 Vibration    16          0.755              1.500              1.016
 Vibration    17          0.759              1.488              0.994
 Vibration    18          0.769              1.461              0.948
 Vibration    19          0.783              1.427              0.892
 Vibration    20          0.805              1.369              0.807
 Vibration    21          0.839              1.289              0.703
 Vibration    22          0.847              1.270              0.682
 Vibration    23          0.860              1.239              0.646
 Vibration    24          0.877              1.202              0.606
 Vibration    25          0.886              1.181              0.584
 Vibration    26          0.906              1.137              0.542
 Vibration    27          0.932              1.084              0.494
 Vibration    28          0.963              1.023              0.442

                           ! Non-Optimized Parameters !
 Normal termination of Gaussian 16 at Thu Jan  4 23:48:12 2024.
