 Gaussian 16, Revision A.03,
 Gaussian 16:  ES64L-G16RevA.03 25-Dec-2016

 ----------------------------------------------------------------
 #P UB3LYP/6-311++G(d,p) SCRF=(PCM,Solvent=n,n-DiMethylFormamide)
 ----------------------------------------------------------------

 -------
 Reduced
 -------
 Symbolic Z-matrix:
 Charge = -2 Multiplicity = 1

                         Standard orientation:
 ---------------------------------------------------------------------
 Center     Atomic      Atomic             Coordinates (Angstroms)
 Number     Number       Type             X           Y           Z
 ---------------------------------------------------------------------
      1          6           0        3.704383   -1.709504   -0.000576
      2          6           0        5.018866   -1.310971   -0.000547
      3          6           0        5.358394    0.070113    0.000164
      4          6           0        2.631824   -0.757053    0.000086
      5          6           0        2.982013    0.645512    0.000710
      6          6           0        4.345481    1.008832    0.000738
      7          6           0        1.293030   -1.168082    0.000176
      8          6           0        1.963602    1.682722    0.000848
      9          6           0        0.251459   -0.206002    0.000077
     10          6           0        0.584096    1.203356    0.000029
     11          6           0       -1.148122   -0.549988   -0.000490
     12          6           0       -2.125547    0.425440   -0.001812
     13          6           0       -1.785657    1.797230   -0.002828
     14          6           0       -0.456549    2.156358   -0.001646
     15          8           0        1.043204   -2.532685   -0.001855
     16          8           0        2.252028    2.916231    0.001475
     17          7           0       -1.530025   -1.960203    0.000110
     18          1           0        3.445158   -2.761642   -0.001067
     19          1           0        5.808116   -2.060407   -0.000961
     20          1           0        6.400874    0.377756    0.000151
     21          1           0        4.559735    2.072877    0.001108
     22         16           0       -3.888981   -0.066390    0.000495
     23          1           0       -2.583259    2.529248   -0.004262
     24          1           0        0.054812   -2.616118   -0.003957
     25          1           0       -2.137195   -2.109688    0.807464
     26          1           0       -0.155906    3.198434   -0.002158
     27          8           0       -4.064280   -0.875225    1.247193
     28          8           0       -4.668052    1.197640   -0.007635
     29          8           0       -4.063016   -0.889855   -1.237244
     30          1           0       -2.161169   -2.103432   -0.790070
 ---------------------------------------------------------------------

 SCF Done:  E(UB3LYP) =  -1368.52988371     A.U. after   16 cycles

 The electronic state is 1-A.
 Alpha  occ. eigenvalues --  -89.04299 -19.10981 -19.09067 -19.08710 -19.08705
 Alpha  occ. eigenvalues --  -19.04597 -14.30918 -10.21024 -10.20571 -10.19966
 Alpha  occ. eigenvalues --  -10.18790 -10.17612 -10.16535 -10.16490 -10.16326
 Alpha  occ. eigenvalues --  -10.16239 -10.16018 -10.16008 -10.15889 -10.15845
 Alpha  occ. eigenvalues --  -10.15422  -8.10184  -6.06465  -6.06448  -6.06344
 Alpha  occ. eigenvalues --   -1.10481  -1.02037  -0.97215  -0.97102  -0.96541
 Alpha  occ. eigenvalues --   -0.90873  -0.84861  -0.83318  -0.78330  -0.74386
 Alpha  occ. eigenvalues --   -0.73557  -0.72884  -0.67003  -0.64515  -0.61858
 Alpha  occ. eigenvalues --   -0.58944  -0.57013  -0.56119  -0.53288  -0.51590
 Alpha  occ. eigenvalues --   -0.49731  -0.48831  -0.47673  -0.47150  -0.46091
 Alpha  occ. eigenvalues --   -0.45047  -0.44325  -0.43489  -0.42809  -0.41600
 Alpha  occ. eigenvalues --   -0.41090  -0.40385  -0.39719  -0.37994  -0.37115
 Alpha  occ. eigenvalues --   -0.36103  -0.35496  -0.35189  -0.34010  -0.33198
 Alpha  occ. eigenvalues --   -0.33163  -0.32863  -0.32191  -0.29635  -0.29622
 Alpha  occ. eigenvalues --   -0.28826  -0.26669  -0.26587  -0.25483  -0.24717
 Alpha  occ. eigenvalues --   -0.24079  -0.23466  -0.21994  -0.14149
 Alpha virt. eigenvalues --   -0.04821  -0.01577  -0.00174   0.00195   0.00652
 Alpha virt. eigenvalues --    0.01187   0.02297   0.02447   0.03880   0.04246
 Alpha virt. eigenvalues --    0.04458   0.04604   0.05339   0.05415   0.06124

  Beta  occ. eigenvalues --  -89.04299 -19.10981 -19.09067 -19.08710 -19.08705
  Beta  occ. eigenvalues --  -19.04597 -14.30918 -10.21024 -10.20571 -10.19966
  Beta  occ. eigenvalues --  -10.18790 -10.17612 -10.16535 -10.16490 -10.16326
  Beta  occ. eigenvalues --  -10.16239 -10.16018 -10.16008 -10.15889 -10.15845
  Beta  occ. eigenvalues --  -10.15422  -8.10184  -6.06465  -6.06448  -6.06344
  Beta  occ. eigenvalues --   -1.10481  -1.02037  -0.97215  -0.97102  -0.96541
  Beta  occ. eigenvalues --   -0.90873  -0.84861  -0.83318  -0.78330  -0.74386
  Beta  occ. eigenvalues --   -0.73557  -0.72884  -0.67003  -0.64515  -0.61858
  Beta  occ. eigenvalues --   -0.58944  -0.57013  -0.56119  -0.53288  -0.51590
  Beta  occ. eigenvalues --   -0.49731  -0.48831  -0.47673  -0.47150  -0.46091
  Beta  occ. eigenvalues --   -0.45047  -0.44325  -0.43489  -0.42809  -0.41600
  Beta  occ. eigenvalues --   -0.41090  -0.40385  -0.39719  -0.37994  -0.37115
  Beta  occ. eigenvalues --   -0.36103  -0.35496  -0.35189  -0.34010  -0.33198
  Beta  occ. eigenvalues --   -0.33163  -0.32863  -0.32191  -0.29635  -0.29622
  Beta  occ. eigenvalues --   -0.28826  -0.26669  -0.26587  -0.25483  -0.24717
  Beta  occ. eigenvalues --   -0.24079  -0.23466  -0.21994  -0.14149
  Beta virt. eigenvalues --   -0.04821  -0.01577  -0.00174   0.00195   0.00652
  Beta virt. eigenvalues --    0.01187   0.02297   0.02447   0.03880   0.04246
  Beta virt. eigenvalues --    0.04458   0.04604   0.05339   0.05415   0.06124

 Mulliken charges and spin densities:
               1          2
     1  C   -0.109729  -0.000000
     2  C   -0.473774   0.000000
     3  C   -0.454963  -0.000000
     4  C    0.225551   0.000000
     5  C    0.178568   0.000000
     6  C   -0.016202  -0.000000
     7  C   -0.198682  -0.000000
     8  C   -0.406689   0.000000
     9  C    0.139838  -0.000000
    10  C    0.599345   0.000000
    11  C   -0.179841  -0.000000
    12  C   -1.209614   0.000000
    13  C   -0.055394  -0.000000
    14  C    0.035264  -0.000000
    15  O   -0.488854  -0.000000
    16  O   -0.543993  -0.000000
    17  N   -0.584272   0.000000
    18  H    0.149979  -0.000000
    19  H    0.173425   0.000000
    20  H    0.170714  -0.000000
    21  H    0.150180   0.000000
    22  S    0.504758  -0.000000
    23  H    0.219471  -0.000000
    24  H    0.483519  -0.000000
    25  H    0.323204   0.000000
    26  H    0.160268  -0.000000
    27  O   -0.407514  -0.000000
    28  O   -0.297498  -0.000000
    29  O   -0.409773  -0.000000
    30  H    0.322710   0.000000
 Sum of Mulliken charges =  -2.00000  -0.00000

 Dipole moment (field-independent basis, Debye):
    X=              9.4932    Y=             -4.7582    Z=              0.0180  Tot=             10.6190
 Quadrupole moment (field-independent basis, Debye-Ang):
   XX=           -257.0543   YY=           -170.1275   ZZ=           -146.1289
   XY=            -12.1820   XZ=             -0.0272   YZ=             -0.0870

 Normal termination of Gaussian 16 at Wed Jan 17 09:34:09 2024.
