 Q-Chem 5.4, Q-Chem, Inc., Pleasanton, CA (2021)
 Q-Chem 5.4.0 for Intel X86 EM64T Linux

User input:
--------------------------------------------------------------
$molecule
-2 1
C                 -4.9631230000     -0.4480770000     -0.3174340000
C                 -3.6324740000     -0.3782230000      0.3984010000
O                 -3.3833230000     -0.9510960000      1.4335880000
O                 -2.5756580000     -1.8538130000     -1.4533930000
C                 -1.3053770000     -1.7415440000     -1.3575120000
C                 -0.4313390000     -2.6769040000     -1.9588740000
C                  0.9639690000     -2.5877430000     -1.8566680000
C                  1.5550850000     -1.5762150000     -1.1443600000
O                  2.9740770000     -1.4933740000     -1.2162420000
C                  3.7208160000     -1.8173270000     -0.1464330000
C                  5.0985100000     -1.2067710000     -0.2817620000
O                  3.3805990000     -2.5289690000      0.7700870000
C                  0.7947360000     -0.5577490000     -0.4959510000
C                  1.4498660000      0.5250500000      0.2416580000
O                  2.7068450000      0.5880950000      0.4188520000
C                  0.5841440000      1.5632330000      0.7749060000
C                  1.1542120000      2.6621270000      1.4531210000
C                  0.3874600000      3.6872430000      1.9714880000
C                 -1.0259960000      3.6342200000      1.8211580000
C                 -1.6210290000      2.5777990000      1.1748280000
C                 -0.8484940000      1.5006250000      0.6296860000
C                 -1.4146400000      0.4148640000     -0.0350660000
O                 -2.8166200000      0.4830280000     -0.2426350000
C                 -0.6504060000     -0.6227050000     -0.6160900000
H                 -4.7955720000     -1.0671630000     -1.2014770000
H                 -5.2831630000      0.5469870000     -0.6395680000
H                 -5.7131970000     -0.9006770000      0.3330310000
H                 -0.8933240000     -3.4925960000     -2.5084530000
H                  1.6033340000     -3.3193530000     -2.3452390000
H                  4.9827280000     -0.1495110000     -0.0312710000
H                  5.4594390000     -1.2828060000     -1.3109710000
H                  5.7928810000     -1.6897460000      0.4073950000
H                  2.2352590000      2.6609880000      1.5472230000
H                  0.8527760000      4.5224570000      2.4891300000
H                 -1.6437990000      4.4337790000      2.2260550000
H                 -2.6992070000      2.5418660000      1.0687970000
$end
$rem
MAX_SCF_CYCLES=200
BASIS  =  6-311++G(d,p)
GUI  =  2
JOB_TYPE  =  SP
METHOD  =  B3LYP
SOLVENT_METHOD = PCM
$end
$pcm
theory = CPCM
$end
$solvent
dielectric 37.219
opticaldielectric 1.43
$end

--------------------------------------------------------------

             Standard Nuclear Orientation (Angstroms)
    I     Atom           X                Y                Z
 ----------------------------------------------------------------
    1      C      -4.9631230000    -0.4480770000    -0.3174340000
    2      C      -3.6324740000    -0.3782230000     0.3984010000
    3      O      -3.3833230000    -0.9510960000     1.4335880000
    4      O      -2.5756580000    -1.8538130000    -1.4533930000
    5      C      -1.3053770000    -1.7415440000    -1.3575120000
    6      C      -0.4313390000    -2.6769040000    -1.9588740000
    7      C       0.9639690000    -2.5877430000    -1.8566680000
    8      C       1.5550850000    -1.5762150000    -1.1443600000
    9      O       2.9740770000    -1.4933740000    -1.2162420000
   10      C       3.7208160000    -1.8173270000    -0.1464330000
   11      C       5.0985100000    -1.2067710000    -0.2817620000
   12      O       3.3805990000    -2.5289690000     0.7700870000
   13      C       0.7947360000    -0.5577490000    -0.4959510000
   14      C       1.4498660000     0.5250500000     0.2416580000
   15      O       2.7068450000     0.5880950000     0.4188520000
   16      C       0.5841440000     1.5632330000     0.7749060000
   17      C       1.1542120000     2.6621270000     1.4531210000
   18      C       0.3874600000     3.6872430000     1.9714880000
   19      C      -1.0259960000     3.6342200000     1.8211580000
   20      C      -1.6210290000     2.5777990000     1.1748280000
   21      C      -0.8484940000     1.5006250000     0.6296860000
   22      C      -1.4146400000     0.4148640000    -0.0350660000
   23      O      -2.8166200000     0.4830280000    -0.2426350000
   24      C      -0.6504060000    -0.6227050000    -0.6160900000
   25      H      -4.7955720000    -1.0671630000    -1.2014770000
   26      H      -5.2831630000     0.5469870000    -0.6395680000
   27      H      -5.7131970000    -0.9006770000     0.3330310000
   28      H      -0.8933240000    -3.4925960000    -2.5084530000
   29      H       1.6033340000    -3.3193530000    -2.3452390000
   30      H       4.9827280000    -0.1495110000    -0.0312710000
   31      H       5.4594390000    -1.2828060000    -1.3109710000
   32      H       5.7928810000    -1.6897460000     0.4073950000
   33      H       2.2352590000     2.6609880000     1.5472230000
   34      H       0.8527760000     4.5224570000     2.4891300000
   35      H      -1.6437990000     4.4337790000     2.2260550000
   36      H      -2.6992070000     2.5418660000     1.0687970000
 ----------------------------------------------------------------

    9   -1145.0995792822      4.48e-06  Convergence criterion met
 Total energy in the final basis set =    -1145.0995792822

                    Orbital Energies (a.u.)
 --------------------------------------------------------------

 Alpha MOs
 -- Occupied --
-19.1544 -19.1515 -19.1068 -19.1043 -19.0434 -19.0341 -10.2981 -10.2965
-10.2073 -10.1987 -10.1984 -10.1968 -10.1648 -10.1646 -10.1621 -10.1603
-10.1593 -10.1590 -10.1583 -10.1573 -10.1557 -10.1504 -10.1484 -10.1291
 -1.0974  -1.0951  -1.0186  -1.0167  -0.9692  -0.9566  -0.8480  -0.8211
 -0.7834  -0.7476  -0.7434  -0.7316  -0.7206  -0.6982  -0.6700  -0.6207
 -0.6083  -0.5980  -0.5928  -0.5509  -0.5215  -0.5152  -0.4945  -0.4871
 -0.4760  -0.4711  -0.4694  -0.4615  -0.4555  -0.4450  -0.4374  -0.4321
 -0.4238  -0.4111  -0.4044  -0.4008  -0.3963  -0.3897  -0.3844  -0.3762
 -0.3734  -0.3704  -0.3670  -0.3585  -0.3570  -0.3442  -0.3374  -0.3348
 -0.3207  -0.3118  -0.3014  -0.2913  -0.2810  -0.2754  -0.2733  -0.2423
 -0.2290  -0.2207  -0.2052  -0.1871  -0.1343

          Ground-State Mulliken Net Atomic Charges

     Atom                 Charge (a.u.)
  ----------------------------------------
      1 C                    -0.494500
      2 C                     0.113482
      3 O                    -0.335008
      4 O                    -0.611047
      5 C                    -0.403266
      6 C                    -0.234225
      7 C                     0.141528
      8 C                    -0.709256
      9 O                    -0.025125
     10 C                     0.111168
     11 C                    -0.480846
     12 O                    -0.342217
     13 C                     0.551867
     14 C                    -0.349772
     15 O                    -0.552862
     16 C                     0.414532
     17 C                    -0.021793
     18 C                    -0.447119
     19 C                    -0.580188
     20 C                    -0.087600
     21 C                     0.340841
     22 C                    -0.643501
     23 O                    -0.039038
     24 C                     0.576142
     25 H                     0.203657
     26 H                     0.167079
     27 H                     0.161330
     28 H                     0.159997
     29 H                     0.189006
     30 H                     0.200687
     31 H                     0.174592
     32 H                     0.160465
     33 H                     0.149874
     34 H                     0.185581
     35 H                     0.190042
     36 H                     0.165494
  ----------------------------------------
  Sum of atomic charges =    -2.000000

                    Cartesian Multipole Moments
 -----------------------------------------------------------------
    Charge (ESU x 10^10)
                -9.6064
    Dipole Moment (Debye)
         X       0.7519      Y       8.1657      Z      -0.5212
       Tot       8.2168
    Quadrupole Moments (Debye-Ang)
        XX    -184.8071     XY     -11.9422     YY    -177.2243
        XZ      -9.3267     YZ      -2.1731     ZZ    -166.3797

 Total job time:  242.04s(wall), 739.23s(cpu)
        *  Thank you very much for using Q-Chem.  Have a nice day.  *
