 Q-Chem 5.4, Q-Chem, Inc., Pleasanton, CA (2021)
 Q-Chem 5.4.0 for Intel X86 EM64T Linux

User input:
--------------------------------------------------------------
$molecule
0 1
C                 -3.3771490000      3.6872340000      0.0365510000
C                 -4.5920050000      3.0123770000      0.0577090000
C                 -4.6176280000      1.6151870000      0.0814750000
C                 -2.1756580000      2.9720830000      0.0389260000
C                 -2.2012570000      1.5655170000      0.0628530000
C                 -3.4284490000      0.8957120000      0.0840380000
C                 -0.8869420000      3.7239980000      0.0158770000
C                  0.3704130000      2.9214600000      0.0190150000
C                  0.3465820000      1.5183140000      0.0428510000
C                 -0.9409050000      0.7661020000      0.0661820000
C                  1.5973830000      3.5869310000     -0.0022810000
C                  2.7762490000      2.8562380000      0.0003210000
C                  2.7897180000      1.4494910000      0.0239720000
C                  1.5490320000      0.8097750000      0.0449430000
O                 -0.8610070000      4.9433380000     -0.0046910000
O                 -0.9624560000     -0.4538990000      0.0871000000
Br                 4.4294180000      3.8294040000     -0.0300210000
C                  4.0627630000      0.6487950000      0.0268070000
H                 -3.3338170000      4.7691770000      0.0179770000
H                 -5.5207070000      3.5715610000      0.0557530000
H                 -5.5662700000      1.0907730000      0.0979560000
H                 -3.4251640000     -0.1870950000      0.1022740000
H                  1.6057510000      4.6686620000     -0.0205460000
H                  1.5014010000     -0.2726980000      0.0636710000
H                  4.6817330000      0.8958470000      0.8937890000
H                  4.6635770000      0.8611870000     -0.8619480000
H                  3.8444340000     -0.4192200000      0.0500060000
$end
$rem
MAX_SCF_CYCLES=200
BASIS  =  6-311++G(d,p)
GUI  =  2
JOB_TYPE  =  SP
METHOD  =  B3LYP
SOLVENT_METHOD = PCM
$end
$pcm
theory = CPCM
$end
$solvent
dielectric 37.219
opticaldielectric 1.43
$end

--------------------------------------------------------------

             Standard Nuclear Orientation (Angstroms)
    I     Atom           X                Y                Z
 ----------------------------------------------------------------
    1      C      -3.3771490000     3.6872340000     0.0365510000
    2      C      -4.5920050000     3.0123770000     0.0577090000
    3      C      -4.6176280000     1.6151870000     0.0814750000
    4      C      -2.1756580000     2.9720830000     0.0389260000
    5      C      -2.2012570000     1.5655170000     0.0628530000
    6      C      -3.4284490000     0.8957120000     0.0840380000
    7      C      -0.8869420000     3.7239980000     0.0158770000
    8      C       0.3704130000     2.9214600000     0.0190150000
    9      C       0.3465820000     1.5183140000     0.0428510000
   10      C      -0.9409050000     0.7661020000     0.0661820000
   11      C       1.5973830000     3.5869310000    -0.0022810000
   12      C       2.7762490000     2.8562380000     0.0003210000
   13      C       2.7897180000     1.4494910000     0.0239720000
   14      C       1.5490320000     0.8097750000     0.0449430000
   15      O      -0.8610070000     4.9433380000    -0.0046910000
   16      O      -0.9624560000    -0.4538990000     0.0871000000
   17      Br      4.4294180000     3.8294040000    -0.0300210000
   18      C       4.0627630000     0.6487950000     0.0268070000
   19      H      -3.3338170000     4.7691770000     0.0179770000
   20      H      -5.5207070000     3.5715610000     0.0557530000
   21      H      -5.5662700000     1.0907730000     0.0979560000
   22      H      -3.4251640000    -0.1870950000     0.1022740000
   23      H       1.6057510000     4.6686620000    -0.0205460000
   24      H       1.5014010000    -0.2726980000     0.0636710000
   25      H       4.6817330000     0.8958470000     0.8937890000
   26      H       4.6635770000     0.8611870000    -0.8619480000
   27      H       3.8444340000    -0.4192200000     0.0500060000
 ----------------------------------------------------------------

    9   -3301.8347331555      1.97e-06  Convergence criterion met
 Total energy in the final basis set =    -3301.8347331555

                    Orbital Energies (a.u.)
 --------------------------------------------------------------

 Alpha MOs
 -- Occupied --
******** -62.4961 -56.3166 -56.3128 -56.3126 -19.1342 -19.1338 -10.2864
-10.2859 -10.2532 -10.2200 -10.2129 -10.2114 -10.2098 -10.2093 -10.2072
-10.2007 -10.1980 -10.1977 -10.1973 -10.1971 -10.1750  -8.7049  -6.5362
 -6.5238  -6.5230  -2.6471  -2.6438  -2.6432  -2.6332  -2.6331  -1.0700
 -1.0681  -0.9061  -0.8881  -0.8389  -0.8075  -0.7897  -0.7790  -0.7590
 -0.7204  -0.6838  -0.6585  -0.6329  -0.6225  -0.5892  -0.5554  -0.5510
 -0.5115  -0.4978  -0.4802  -0.4742  -0.4620  -0.4601  -0.4575  -0.4507
 -0.4491  -0.4359  -0.4354  -0.4228  -0.4010  -0.3917  -0.3911  -0.3795
 -0.3740  -0.3730  -0.3671  -0.3314  -0.3055  -0.2918  -0.2870  -0.2800
 -0.2782  -0.2771  -0.2650

          Ground-State Mulliken Net Atomic Charges

     Atom                 Charge (a.u.)
  ----------------------------------------
      1 C                     0.223028
      2 C                    -0.513748
      3 C                    -0.487228
      4 C                     0.031261
      5 C                     0.281441
      6 C                     0.107960
      7 C                    -0.782381
      8 C                     0.389596
      9 C                     0.349996
     10 C                    -0.537483
     11 C                     0.034593
     12 C                    -0.229012
     13 C                     0.428329
     14 C                    -0.096380
     15 O                    -0.278633
     16 O                    -0.279308
     17 Br                   -0.261419
     18 C                    -0.198893
     19 H                     0.198686
     20 H                     0.225333
     21 H                     0.227198
     22 H                     0.195220
     23 H                     0.232955
     24 H                     0.164268
     25 H                     0.189011
     26 H                     0.189774
     27 H                     0.195836
  ----------------------------------------
  Sum of atomic charges =     0.000000

                    Cartesian Multipole Moments
 -----------------------------------------------------------------
    Charge (ESU x 10^10)
                -0.0000
    Dipole Moment (Debye)
         X      -1.1926      Y      -1.4756      Z       0.0329
       Tot       1.8976
    Quadrupole Moments (Debye-Ang)
        XX     -86.9117     XY      -9.6832     YY    -135.6831
        XZ      -0.1748     YZ       0.2644     ZZ    -118.2261

 Total job time:  62.59s(wall), 394.03s(cpu)
        *  Thank you very much for using Q-Chem.  Have a nice day.  *
