 Gaussian 16, Revision A.03,
 Gaussian 16:  ES64L-G16RevA.03 25-Dec-2016

 ---------------------------------------------------------
 #P UB3LYP/genecp SCRF=(PCM,Solvent=n,n-DiMethylFormamide)
 ---------------------------------------------------------

 -------
 Reduced
 -------
 Symbolic Z-matrix:
 Charge = -2 Multiplicity = 1

                         Standard orientation:
 ---------------------------------------------------------------------
 Center     Atomic      Atomic             Coordinates (Angstroms)
 Number     Number       Type             X           Y           Z
 ---------------------------------------------------------------------
      1         53           0       -2.972938    1.878067    0.012271
      2          6           0       -1.187041    0.697092   -0.042014
      3          6           0       -1.186965   -0.697051    0.042166
      4         53           0       -2.972899   -1.878089   -0.012302
      5          6           0       -0.000016   -1.515905    0.066576
      6          8           0        0.000002   -2.786861    0.065837
      7          6           0        1.187051   -0.697077    0.042161
      8          6           0        1.186970    0.697048   -0.042044
      9         53           0        2.972907    1.878089    0.012052
     10          6           0       -0.000000    1.515917   -0.066361
     11          8           0        0.000021    2.786872   -0.065795
     12         53           0        2.972926   -1.878071   -0.012081
 ---------------------------------------------------------------------

 SCF Done:  E(UB3LYP) =  -1570.63323649     A.U. after   15 cycles

 The electronic state is 1-A.
 Alpha  occ. eigenvalues --  -19.03552 -19.03551 -10.20644 -10.20643 -10.19305
 Alpha  occ. eigenvalues --  -10.19302 -10.19252 -10.19252  -6.82467  -6.82467
 Alpha  occ. eigenvalues --   -6.82466  -6.82466  -4.84844  -4.84844  -4.84843
 Alpha  occ. eigenvalues --   -4.84843  -4.83812  -4.83812  -4.83812  -4.83811
 Alpha  occ. eigenvalues --   -4.83720  -4.83719  -4.83719  -4.83719  -1.89658
 Alpha  occ. eigenvalues --   -1.89658  -1.89657  -1.89657  -1.89332  -1.89332
 Alpha  occ. eigenvalues --   -1.89331  -1.89331  -1.89263  -1.89263  -1.89259
 Alpha  occ. eigenvalues --   -1.89258  -1.88371  -1.88371  -1.88370  -1.88370
 Alpha  occ. eigenvalues --   -1.88369  -1.88369  -1.88367  -1.88367  -0.96433
 Alpha  occ. eigenvalues --   -0.96092  -0.81912  -0.75824  -0.70565  -0.69395
 Alpha  occ. eigenvalues --   -0.68153  -0.64239  -0.63853  -0.53979  -0.53755
 Alpha  occ. eigenvalues --   -0.47244  -0.41768  -0.39437  -0.38768  -0.35538
 Alpha  occ. eigenvalues --   -0.35080  -0.34914  -0.34474  -0.31083  -0.30509
 Alpha  occ. eigenvalues --   -0.27222  -0.26814  -0.26293  -0.25918  -0.25187
 Alpha  occ. eigenvalues --   -0.24476  -0.23575  -0.23215  -0.21621  -0.21110
 Alpha  occ. eigenvalues --   -0.19999  -0.14012
 Alpha virt. eigenvalues --   -0.05344  -0.02668  -0.00811  -0.00609   0.01612
 Alpha virt. eigenvalues --    0.03031   0.04048   0.04232   0.05287   0.06386
 Alpha virt. eigenvalues --    0.06960   0.07673   0.08676   0.09238   0.09700

  Beta  occ. eigenvalues --  -19.03552 -19.03551 -10.20644 -10.20643 -10.19305
  Beta  occ. eigenvalues --  -10.19302 -10.19252 -10.19252  -6.82467  -6.82467
  Beta  occ. eigenvalues --   -6.82466  -6.82466  -4.84844  -4.84844  -4.84843
  Beta  occ. eigenvalues --   -4.84843  -4.83812  -4.83812  -4.83812  -4.83811
  Beta  occ. eigenvalues --   -4.83720  -4.83719  -4.83719  -4.83719  -1.89658
  Beta  occ. eigenvalues --   -1.89658  -1.89657  -1.89657  -1.89332  -1.89332
  Beta  occ. eigenvalues --   -1.89331  -1.89331  -1.89263  -1.89263  -1.89259
  Beta  occ. eigenvalues --   -1.89258  -1.88371  -1.88371  -1.88370  -1.88370
  Beta  occ. eigenvalues --   -1.88369  -1.88369  -1.88367  -1.88367  -0.96433
  Beta  occ. eigenvalues --   -0.96092  -0.81912  -0.75824  -0.70565  -0.69395
  Beta  occ. eigenvalues --   -0.68153  -0.64239  -0.63853  -0.53979  -0.53755
  Beta  occ. eigenvalues --   -0.47244  -0.41768  -0.39437  -0.38768  -0.35538
  Beta  occ. eigenvalues --   -0.35080  -0.34914  -0.34474  -0.31083  -0.30509
  Beta  occ. eigenvalues --   -0.27222  -0.26814  -0.26293  -0.25918  -0.25187
  Beta  occ. eigenvalues --   -0.24476  -0.23575  -0.23215  -0.21621  -0.21110
  Beta  occ. eigenvalues --   -0.19999  -0.14012
  Beta virt. eigenvalues --   -0.05344  -0.02668  -0.00811  -0.00609   0.01612
  Beta virt. eigenvalues --    0.03031   0.04048   0.04232   0.05287   0.06386
  Beta virt. eigenvalues --    0.06960   0.07673   0.08676   0.09238   0.09700

 Mulliken charges and spin densities:
               1          2
     1  I   -0.171766  -0.000000
     2  C    0.870916  -0.000000
     3  C    0.871427  -0.000000
     4  I   -0.171831  -0.000000
     5  C   -1.911228   0.000000
     6  O   -0.487558  -0.000000
     7  C    0.870900   0.000000
     8  C    0.871268  -0.000000
     9  I   -0.171818   0.000000
    10  C   -1.910990   0.000000
    11  O   -0.487565  -0.000000
    12  I   -0.171756   0.000000
 Sum of Mulliken charges =  -2.00000  -0.00000

 Dipole moment (field-independent basis, Debye):
    X=              0.0003    Y=             -0.0001    Z=             -0.0002  Tot=              0.0004
 Quadrupole moment (field-independent basis, Debye-Ang):
   XX=           -190.4970   YY=           -221.8144   ZZ=           -162.7035
   XY=             -0.0039   XZ=              0.0001   YZ=              1.3476

 Normal termination of Gaussian 16 at Mon Jan 22 18:36:24 2024.
