 Gaussian 16, Revision A.03,
 Gaussian 16:  ES64L-G16RevA.03 25-Dec-2016

 --------------------------------------
 #P UB3LYP/6-311++G(d,p) nosym opt freq
 --------------------------------------

 -------
 Radical
 -------
 Symbolic Z-matrix:
 Charge = -1 Multiplicity = 2

 SCF Done:  E(UB3LYP) =  -858.929084587     A.U. after   24 cycles
 SCF Done:  E(UB3LYP) =  -858.938831185     A.U. after   18 cycles
 SCF Done:  E(UB3LYP) =  -858.939964823     A.U. after   18 cycles
 SCF Done:  E(UB3LYP) =  -858.940191061     A.U. after   17 cycles
 SCF Done:  E(UB3LYP) =  -858.940522726     A.U. after   16 cycles
 SCF Done:  E(UB3LYP) =  -858.940737430     A.U. after   16 cycles
 SCF Done:  E(UB3LYP) =  -858.940786210     A.U. after   16 cycles
 SCF Done:  E(UB3LYP) =  -858.940845937     A.U. after   13 cycles
 SCF Done:  E(UB3LYP) =  -858.940858706     A.U. after   14 cycles
 SCF Done:  E(UB3LYP) =  -858.940865786     A.U. after   13 cycles
 SCF Done:  E(UB3LYP) =  -858.940867697     A.U. after   12 cycles
 SCF Done:  E(UB3LYP) =  -858.940868252     A.U. after   11 cycles
 SCF Done:  E(UB3LYP) =  -858.940868612     A.U. after   11 cycles
 SCF Done:  E(UB3LYP) =  -858.940868807     A.U. after   10 cycles
 SCF Done:  E(UB3LYP) =  -858.940868878     A.U. after   10 cycles
 Optimization completed.
    -- Stationary point found.
 Normal termination of Gaussian 16 at Thu Dec 21 06:51:28 2023.

 ----------------------------------------------------------------------
 #P Geom=AllCheck Guess=TCheck SCRF=Check GenChk UB3LYP/6-311++G(d,p) F
 req
 ----------------------------------------------------------------------

 Structure from the checkpoint file:  "155-rad.chk"
 -------
 Radical
 -------
 Charge = -1 Multiplicity = 2

                          Input orientation:
 ---------------------------------------------------------------------
 Center     Atomic      Atomic             Coordinates (Angstroms)
 Number     Number       Type             X           Y           Z
 ---------------------------------------------------------------------
      1          6           0       -2.242338    3.226572    4.120104
      2          6           0       -3.467369    2.668757    4.391783
      3          6           0       -3.903866    1.533180    3.679574
      4          6           0       -3.097988    0.968616    2.699142
      5          6           0       -1.810794    1.519675    2.389006
      6          6           0       -1.400616    2.675476    3.126092
      7          6           0       -0.118219    3.342582    2.901926
      8          6           0       -0.923571    0.941645    1.374054
      9          6           0        0.749503    2.802055    1.868628
     10          6           0        0.367378    1.629197    1.153877
     11          6           0        2.020741    3.404164    1.569772
     12          6           0        2.859319    2.809369    0.625744
     13          6           0        2.467839    1.647171   -0.052294
     14          6           0        1.238117    1.069423    0.197957
     15          8           0        0.199058    4.351326    3.610501
     16          8           0       -1.199994   -0.080236    0.708349
     17          7           0        2.394763    4.590821    2.181189
     18          8           0       -3.498042   -0.129480    1.991581
     19          6           0       -4.756590   -0.698194    2.267812
     20          1           0       -1.880474    4.099349    4.647862
     21          1           0       -4.111485    3.096605    5.154437
     22          1           0       -4.872932    1.109932    3.905801
     23          1           0        3.817636    3.274712    0.408864
     24          1           0        3.138537    1.206269   -0.784682
     25          1           0        0.908003    0.177552   -0.318480
     26          1           0        1.806424    4.828316    2.982807
     27          1           0        3.386215    4.759212    2.251432
     28          1           0       -4.850098   -1.547302    1.589587
     29          1           0       -5.578548    0.005649    2.078902
     30          1           0       -4.829912   -1.055583    3.303914
 ---------------------------------------------------------------------

 SCF Done:  E(UB3LYP) =  -858.940868878     A.U. after    1 cycles

 Alpha  occ. eigenvalues --  -19.03757 -18.94569 -18.93606 -14.18606 -10.12473
 Alpha  occ. eigenvalues --  -10.11970 -10.09568 -10.09358 -10.09328 -10.05636
 Alpha  occ. eigenvalues --  -10.05304 -10.05148 -10.05089 -10.04849 -10.04584
 Alpha  occ. eigenvalues --  -10.04367 -10.04343 -10.04087 -10.03184  -0.95713
 Alpha  occ. eigenvalues --   -0.87157  -0.86530  -0.79198  -0.73387  -0.71269
 Alpha  occ. eigenvalues --   -0.66017  -0.64482  -0.61853  -0.60430  -0.58885
 Alpha  occ. eigenvalues --   -0.54025  -0.51133  -0.50272  -0.46293  -0.44107
 Alpha  occ. eigenvalues --   -0.42927  -0.40952  -0.38929  -0.36946  -0.36701
 Alpha  occ. eigenvalues --   -0.36375  -0.34750  -0.34421  -0.32769  -0.32178
 Alpha  occ. eigenvalues --   -0.30970  -0.29500  -0.28801  -0.27858  -0.27223
 Alpha  occ. eigenvalues --   -0.26416  -0.25896  -0.24491  -0.24126  -0.23278
 Alpha  occ. eigenvalues --   -0.22999  -0.22141  -0.21641  -0.20225  -0.18356
 Alpha  occ. eigenvalues --   -0.14007  -0.12577  -0.11462  -0.11048  -0.09594
 Alpha  occ. eigenvalues --   -0.08679  -0.00875
 Alpha virt. eigenvalues --    0.07092   0.08139   0.08309   0.09016   0.09687
 Alpha virt. eigenvalues --    0.09939   0.10789   0.11019   0.11774   0.12616
 Alpha virt. eigenvalues --    0.12974   0.13111   0.14359   0.14524   0.15808

  Beta  occ. eigenvalues --  -19.03764 -18.94018 -18.93023 -14.18587 -10.12472
  Beta  occ. eigenvalues --  -10.11996 -10.09375 -10.09321 -10.09270 -10.05576
  Beta  occ. eigenvalues --  -10.05222 -10.05049 -10.05024 -10.04736 -10.04587
  Beta  occ. eigenvalues --  -10.04280 -10.04250 -10.04092 -10.03191  -0.95720
  Beta  occ. eigenvalues --   -0.86219  -0.85533  -0.79109  -0.73156  -0.71114
  Beta  occ. eigenvalues --   -0.65621  -0.64379  -0.61649  -0.60233  -0.58772
  Beta  occ. eigenvalues --   -0.53335  -0.50965  -0.50034  -0.46239  -0.43972
  Beta  occ. eigenvalues --   -0.42721  -0.40819  -0.38840  -0.36852  -0.36690
  Beta  occ. eigenvalues --   -0.36216  -0.34604  -0.34278  -0.32614  -0.32096
  Beta  occ. eigenvalues --   -0.30881  -0.28697  -0.28538  -0.27511  -0.26925
  Beta  occ. eigenvalues --   -0.26109  -0.25630  -0.24061  -0.22928  -0.22682
  Beta  occ. eigenvalues --   -0.22386  -0.21953  -0.21437  -0.19508  -0.17720
  Beta  occ. eigenvalues --   -0.12062  -0.11669  -0.10961  -0.10436  -0.09054
  Beta  occ. eigenvalues --   -0.08062
  Beta virt. eigenvalues --    0.04845   0.07089   0.08210   0.09007   0.09157
  Beta virt. eigenvalues --    0.09735   0.10787   0.10821   0.11198   0.11779
  Beta virt. eigenvalues --    0.12617   0.13029   0.13243   0.14357   0.14530

 Mulliken charges and spin densities:
               1          2
     1  C   -0.220518   0.018726
     2  C   -0.455247   0.052187
     3  C   -0.239632   0.068254
     4  C    0.023890  -0.001299
     5  C    0.261823   0.063431
     6  C    0.396842   0.038541
     7  C   -0.647541   0.095584
     8  C   -0.668583   0.021155
     9  C    0.170670  -0.014255
    10  C    0.679246   0.083157
    11  C    0.185120   0.026798
    12  C   -0.128250   0.059041
    13  C   -0.457654   0.057019
    14  C   -0.122285   0.022768
    15  O   -0.388816   0.203332
    16  O   -0.349638   0.222651
    17  N   -0.385788   0.007704
    18  O   -0.080671  -0.002069
    19  C   -0.275727  -0.001183
    20  H    0.148891  -0.000890
    21  H    0.133508  -0.003839
    22  H    0.121209  -0.004895
    23  H    0.092562  -0.004244
    24  H    0.125001  -0.004056
    25  H    0.149565  -0.001462
    26  H    0.299292  -0.002686
    27  H    0.210690  -0.000885
    28  H    0.174670  -0.000214
    29  H    0.123030   0.000770
    30  H    0.124339   0.000859
 Sum of Mulliken charges =  -1.00000   1.00000

 Dipole moment (field-independent basis, Debye):
    X=              1.9781    Y=            -10.3599    Z=             -9.0873  Tot=             13.9219
 Quadrupole moment (field-independent basis, Debye-Ang):
   XX=           -116.2114   YY=           -157.1668   ZZ=           -144.8884
   XY=              3.7001   XZ=              4.8942   YZ=            -29.2488

  Exact polarizability: 318.494  55.665 211.976 -79.518  49.415 200.144
 Approx polarizability: 463.272  77.770 376.867-109.539 117.543 339.634

                      1                      2                      3
                      A                      A                      A
 Frequencies --     31.7112                53.2292                85.2499
 Red. masses --      5.8246                 5.0507                 3.8730
 Frc consts  --      0.0035                 0.0084                 0.0166
 IR Inten    --      7.0373                 1.0116                 0.8272

                      4                      5                      6
                      A                      A                      A
 Frequencies --     95.4953               163.6719               168.3664
 Red. masses --      6.4094                 5.8419                 4.4772
 Frc consts  --      0.0344                 0.0922                 0.0748
 IR Inten    --      0.7577                 1.7218                 6.2623

                      7                      8                      9
                      A                      A                      A
 Frequencies --    193.5425               228.4539               265.0623
 Red. masses --      3.3213                 2.9542                 3.6332
 Frc consts  --      0.0733                 0.0908                 0.1504
 IR Inten    --      0.1074                 4.3239                 5.2716

                     10                     11                     12
                      A                      A                      A
 Frequencies --    269.7319               296.2860               320.2383
 Red. masses --      2.0669                 2.3879                 3.8954
 Frc consts  --      0.0886                 0.1235                 0.2354
 IR Inten    --      2.3775                 4.3488                 0.8722

                     13                     14                     15
                      A                      A                      A
 Frequencies --    356.6665               376.9894               386.1512
 Red. masses --      6.5776                 8.3774                 1.7383
 Frc consts  --      0.4930                 0.7015                 0.1527
 IR Inten    --      5.2599                 0.5080               109.7315

                     16                     17                     18
                      A                      A                      A
 Frequencies --    411.8902               416.9524               436.9013
 Red. masses --      4.6406                 5.4224                 3.6305
 Frc consts  --      0.4639                 0.5554                 0.4083
 IR Inten    --     10.8299                 6.7029                70.9208

                     19                     20                     21
                      A                      A                      A
 Frequencies --    474.9939               493.1483               496.0422
 Red. masses --      6.2593                 4.2545                 6.1193
 Frc consts  --      0.8321                 0.6096                 0.8871
 IR Inten    --      2.5599                 3.1810                 4.1441

                     22                     23                     24
                      A                      A                      A
 Frequencies --    541.1230               560.1971               578.3719
 Red. masses --      4.7128                 5.7846                 4.5155
 Frc consts  --      0.8131                 1.0696                 0.8900
 IR Inten    --      5.5622                 0.9790                 1.9876

                     25                     26                     27
                      A                      A                      A
 Frequencies --    596.4646               631.2750               662.2112
 Red. masses --      6.1931                 5.0828                 3.5305
 Frc consts  --      1.2982                 1.1934                 0.9122
 IR Inten    --     13.5370                 4.5014                 2.4238

                     28                     29                     30
                      A                      A                      A
 Frequencies --    705.6551               708.0734               731.4460
 Red. masses --      3.9269                 2.5512                 1.5831
 Frc consts  --      1.1521                 0.7536                 0.4990
 IR Inten    --     27.0974                62.9811                70.6420

                     31                     32                     33
                      A                      A                      A
 Frequencies --    749.1283               768.7577               776.5144
 Red. masses --      1.5062                 2.8523                 3.1347
 Frc consts  --      0.4980                 0.9932                 1.1136
 IR Inten    --      6.5800                29.4649                 9.9870

                     34                     35                     36
                      A                      A                      A
 Frequencies --    785.5959               823.3682               841.5856
 Red. masses --      3.0747                 5.6044                 1.4881
 Frc consts  --      1.1180                 2.2386                 0.6210
 IR Inten    --     74.1734                 0.2386                 0.4472

                     37                     38                     39
                      A                      A                      A
 Frequencies --    848.8311               856.9381               901.0110
 Red. masses --      6.8770                 1.4939                 6.2534
 Frc consts  --      2.9194                 0.6464                 2.9911
 IR Inten    --     30.3529                 0.5087                 6.4325

                     40                     41                     42
                      A                      A                      A
 Frequencies --    952.9595               960.3910               968.3391
 Red. masses --      5.4116                 1.2778                 1.2775
 Frc consts  --      2.8955                 0.6944                 0.7058
 IR Inten    --      5.6921                 0.9831                 1.3115

                     43                     44                     45
                      A                      A                      A
 Frequencies --   1028.3773              1073.6754              1096.0254
 Red. masses --      4.3550                 2.1141                 2.2918
 Frc consts  --      2.7136                 1.4359                 1.6221
 IR Inten    --     17.6895                22.8130                23.4410

                     46                     47                     48
                      A                      A                      A
 Frequencies --   1110.5256              1151.2638              1161.1774
 Red. masses --      3.6185                 1.5401                 1.7569
 Frc consts  --      2.6293                 1.2027                 1.3957
 IR Inten    --    184.0783                48.6524                32.7782

                     49                     50                     51
                      A                      A                      A
 Frequencies --   1161.8141              1177.9823              1184.9499
 Red. masses --      1.2820                 1.1916                 2.2886
 Frc consts  --      1.0196                 0.9742                 1.8933
 IR Inten    --      0.7585                 8.4296                 4.7229

                     52                     53                     54
                      A                      A                      A
 Frequencies --   1199.7174              1224.0087              1232.7347
 Red. masses --      1.6021                 2.2672                 2.5188
 Frc consts  --      1.3586                 2.0013                 2.2552
 IR Inten    --     12.2994                49.9973                37.7122

                     55                     56                     57
                      A                      A                      A
 Frequencies --   1267.3489              1307.4583              1337.0233
 Red. masses --      4.1745                 2.7475                 5.3696
 Frc consts  --      3.9504                 2.7672                 5.6555
 IR Inten    --    177.0128                 8.6707                 9.0027

                     58                     59                     60
                      A                      A                      A
 Frequencies --   1360.6799              1376.5569              1407.9604
 Red. masses --      5.6212                 6.1830                 3.2350
 Frc consts  --      6.1318                 6.9030                 3.7783
 IR Inten    --     10.3832                16.5210               252.2881

                     61                     62                     63
                      A                      A                      A
 Frequencies --   1433.8111              1463.0946              1465.0865
 Red. masses --      2.6898                 2.2900                 1.7480
 Frc consts  --      3.2581                 2.8882                 2.2106
 IR Inten    --     38.4315                 8.0461                33.8459

                     64                     65                     66
                      A                      A                      A
 Frequencies --   1481.4395              1485.8315              1502.2381
 Red. masses --      2.1331                 1.0481                 1.2323
 Frc consts  --      2.7583                 1.3633                 1.6385
 IR Inten    --      3.6096                 5.3763               144.0364

                     67                     68                     69
                      A                      A                      A
 Frequencies --   1509.9156              1546.8504              1563.5719
 Red. masses --      2.6037                 6.4811                 3.9002
 Frc consts  --      3.4974                 9.1368                 5.6179
 IR Inten    --     86.8005               407.3811               459.3286

                     70                     71                     72
                      A                      A                      A
 Frequencies --   1601.7488              1609.6126              1613.3595
 Red. masses --      2.4246                 2.5514                 4.2975
 Frc consts  --      3.6650                 3.8946                 6.5907
 IR Inten    --     76.8793               162.9312                 1.3812

                     73                     74                     75
                      A                      A                      A
 Frequencies --   1627.0280              2969.8861              3015.4116
 Red. masses --      7.5257                 1.0363                 1.1042
 Frc consts  --     11.7378                 5.3852                 5.9152
 IR Inten    --      8.2144               127.0771                66.4101

                     76                     77                     78
                      A                      A                      A
 Frequencies --   3102.5275              3123.6888              3141.7474
 Red. masses --      1.0955                 1.0850                 1.0874
 Frc consts  --      6.2132                 6.2377                 6.3240
 IR Inten    --     39.7046                32.9358                38.7502

                     79                     80                     81
                      A                      A                      A
 Frequencies --   3145.5708              3197.3126              3198.5603
 Red. masses --      1.0924                 1.0887                 1.0912
 Frc consts  --      6.3684                 6.5574                 6.5776
 IR Inten    --     65.1960                12.3705                16.9211

                     82                     83                     84
                      A                      A                      A
 Frequencies --   3200.2819              3357.0843              3635.8891
 Red. masses --      1.0923                 1.0627                 1.0861
 Frc consts  --      6.5916                 7.0563                 8.4597
 IR Inten    --     23.6112               138.7958                17.3832

 - Thermochemistry -
 -------------------
 Temperature   298.150 Kelvin.  Pressure   1.00000 Atm.
 Atom     1 has atomic number  6 and mass  12.00000

 Molecular mass:   253.07389 amu.
 Principal axes and moments of inertia in atomic units:
                           1         2         3
     Eigenvalues --  2483.877906188.666258657.17418
           X            0.89821  -0.11512   0.42423
           Y            0.36738   0.72651  -0.58070
           Z           -0.24136   0.67744   0.69485
 This molecule is an asymmetric top.
 Rotational symmetry number  1.
 Warning -- assumption of classical behavior for rotation
           may cause significant error
 Rotational temperatures (Kelvin)      0.03487     0.01400     0.01000
 Rotational constants (GHZ):           0.72658     0.29162     0.20847
 Zero-point vibrational energy     591073.9 (Joules/Mol)
                                  141.27005 (Kcal/Mol)
 Warning -- explicit consideration of  25 degrees of freedom as
           vibrations may cause significant error
 Vibrational temperatures:     45.63    76.58   122.66   137.40   235.49
          (Kelvin)            242.24   278.46   328.69   381.37   388.08
                              426.29   460.75   513.16   542.40   555.59
                              592.62   599.90   628.60   683.41   709.53
                              713.69   778.56   806.00   832.15   858.18
                              908.26   952.77  1015.28  1018.76  1052.39
                             1077.83  1106.07  1117.23  1130.30  1184.64
                             1210.85  1221.28  1232.94  1296.35  1371.10
                             1381.79  1393.22  1479.61  1544.78  1576.94
                             1597.80  1656.41  1670.68  1671.59  1694.85
                             1704.88  1726.13  1761.08  1773.63  1823.43
                             1881.14  1923.68  1957.71  1980.56  2025.74
                             2062.93  2105.07  2107.93  2131.46  2137.78
                             2161.39  2172.43  2225.57  2249.63  2304.56
                             2315.87  2321.26  2340.93  4273.00  4338.50
                             4463.85  4494.29  4520.27  4525.77  4600.22
                             4602.01  4604.49  4830.10  5231.23

 Zero-point correction=                           0.225128 (Hartree/Particle)
 Thermal correction to Energy=                    0.240284
 Thermal correction to Enthalpy=                  0.241229
 Thermal correction to Gibbs Free Energy=         0.182100
 Sum of electronic and zero-point Energies=           -858.715741
 Sum of electronic and thermal Energies=              -858.700585
 Sum of electronic and thermal Enthalpies=            -858.699640
 Sum of electronic and thermal Free Energies=         -858.758769

                     E (Thermal)             CV                S
                      KCal/Mol        Cal/Mol-Kelvin    Cal/Mol-Kelvin
 Total                  150.781             60.873            124.447
 Electronic               0.000              0.000              1.377
 Translational            0.889              2.981             42.486
 Rotational               0.889              2.981             33.253
 Vibrational            149.003             54.911             47.331
 Vibration     1          0.594              1.983              5.719
 Vibration     2          0.596              1.976              4.694
 Vibration     3          0.601              1.959              3.766
 Vibration     4          0.603              1.952              3.544
 Vibration     5          0.623              1.887              2.507
 Vibration     6          0.625              1.881              2.454
 Vibration     7          0.635              1.849              2.194
 Vibration     8          0.651              1.798              1.891
 Vibration     9          0.671              1.737              1.628
 Vibration    10          0.674              1.729              1.598
 Vibration    11          0.690              1.681              1.438
 Vibration    12          0.706              1.635              1.309
 Vibration    13          0.732              1.562              1.137
 Vibration    14          0.748              1.519              1.051
 Vibration    15          0.755              1.500              1.015
 Vibration    16          0.776              1.444              0.920
 Vibration    17          0.780              1.433              0.902
 Vibration    18          0.797              1.390              0.836
 Vibration    19          0.832              1.306              0.724
 Vibration    20          0.849              1.265              0.675
 Vibration    21          0.852              1.259              0.668
 Vibration    22          0.896              1.159              0.563
 Vibration    23          0.916              1.117              0.523
 Vibration    24          0.935              1.078              0.488
 Vibration    25          0.954              1.039              0.456

                           ! Non-Optimized Parameters !
 Normal termination of Gaussian 16 at Thu Dec 21 07:49:05 2023.
