 Gaussian 16, Revision A.03,
 Gaussian 16:  ES64L-G16RevA.03 25-Dec-2016

 --------------------------------------
 #P UB3LYP/6-311++G(d,p) nosym opt freq
 --------------------------------------

 -------
 Radical
 -------
 Symbolic Z-matrix:
 Charge = -1 Multiplicity = 2

 SCF Done:  E(UB3LYP) =  -765.445065414     A.U. after   24 cycles
 Optimization completed.
    -- Stationary point found.
 Normal termination of Gaussian 16 at Wed Jan 10 04:56:23 2024.

 ----------------------------------------------------------------------
 #P Geom=AllCheck Guess=TCheck SCRF=Check GenChk UB3LYP/6-311++G(d,p) F
 req
 ----------------------------------------------------------------------

 Structure from the checkpoint file:  "079-rad.chk"
 -------
 Radical
 -------
 Charge = -1 Multiplicity = 2

                          Input orientation:
 ---------------------------------------------------------------------
 Center     Atomic      Atomic             Coordinates (Angstroms)
 Number     Number       Type             X           Y           Z
 ---------------------------------------------------------------------
      1          6           0        1.294172    1.167033   -2.872292
      2          6           0       -0.015636    1.513324   -3.384161
      3          6           0       -1.106124    0.723435   -3.172379
      4          6           0       -1.039757   -0.513860   -2.422910
      5          6           0        0.269838   -0.893384   -1.899159
      6          8           0        2.288083    1.928192   -3.020152
      7          8           0       -2.066375   -1.228755   -2.238710
      8          1           0       -0.085874    2.447683   -3.933890
      9          6           0        1.381381   -0.095609   -2.140375
     10          6           0        2.723283   -0.469177   -1.604255
     11          6           0        3.895242   -0.558506   -2.551844
     12          6           0        5.190364   -0.572155   -2.021588
     13          6           0        3.726777   -0.714279   -3.931430
     14          6           0        6.295963   -0.722022   -2.852979
     15          6           0        6.118903   -0.881205   -4.228490
     16          6           0        4.830912   -0.881301   -4.763708
     17          8           0        2.898657   -0.762172   -0.427062
     18          6           0        0.322162   -2.187012   -1.128150
     19          1           0        5.306628   -0.462449   -0.950000
     20          1           0        2.727128   -0.701905   -4.347823
     21          1           0        7.296182   -0.717185   -2.431295
     22          1           0        6.979502   -1.002262   -4.878851
     23          1           0        4.686569   -1.004046   -5.832116
     24          1           0       -2.085225    0.997436   -3.555777
     25          1           0        0.052849   -2.020832   -0.078654
     26          1           0        1.314114   -2.639314   -1.135934
     27          1           0       -0.415309   -2.880474   -1.536895
 ---------------------------------------------------------------------

 SCF Done:  E(UB3LYP) =  -765.445065414     A.U. after    1 cycles

 Alpha  occ. eigenvalues --  -18.99293 -18.94725 -18.94693 -10.14375 -10.09718
 Alpha  occ. eigenvalues --  -10.09036 -10.08888 -10.08524 -10.08386 -10.08081
 Alpha  occ. eigenvalues --  -10.07966 -10.07887 -10.05783 -10.04668 -10.04294
 Alpha  occ. eigenvalues --  -10.04112 -10.03658  -0.92439  -0.87154  -0.86746
 Alpha  occ. eigenvalues --   -0.76475  -0.70499  -0.66611  -0.65545  -0.64540
 Alpha  occ. eigenvalues --   -0.59383  -0.54033  -0.53392  -0.51446  -0.48789
 Alpha  occ. eigenvalues --   -0.44447  -0.43789  -0.40459  -0.36867  -0.36180
 Alpha  occ. eigenvalues --   -0.35787  -0.34173  -0.33366  -0.33149  -0.31727
 Alpha  occ. eigenvalues --   -0.30125  -0.29190  -0.28794  -0.27569  -0.26945
 Alpha  occ. eigenvalues --   -0.26731  -0.26512  -0.25585  -0.24914  -0.24015
 Alpha  occ. eigenvalues --   -0.23618  -0.23248  -0.16456  -0.16255  -0.15141
 Alpha  occ. eigenvalues --   -0.14472  -0.12998  -0.11212  -0.10415  -0.03484
 Alpha virt. eigenvalues --    0.04526   0.06744   0.08064   0.08579   0.09560
 Alpha virt. eigenvalues --    0.09989   0.10290   0.10647   0.12036   0.12481
 Alpha virt. eigenvalues --    0.13019   0.13548   0.13858   0.14420   0.15069

  Beta  occ. eigenvalues --  -18.99250 -18.94060 -18.93914 -10.14371 -10.09637
  Beta  occ. eigenvalues --  -10.08935 -10.08886 -10.08525 -10.08386 -10.08081
  Beta  occ. eigenvalues --  -10.07962 -10.07884 -10.05572 -10.04600 -10.04216
  Beta  occ. eigenvalues --  -10.03994 -10.03672  -0.92359  -0.86014  -0.85401
  Beta  occ. eigenvalues --   -0.76468  -0.69909  -0.66556  -0.65536  -0.64277
  Beta  occ. eigenvalues --   -0.59034  -0.53504  -0.53065  -0.51423  -0.48571
  Beta  occ. eigenvalues --   -0.44344  -0.43429  -0.40340  -0.36774  -0.35992
  Beta  occ. eigenvalues --   -0.35711  -0.34013  -0.33156  -0.33087  -0.31557
  Beta  occ. eigenvalues --   -0.29568  -0.28927  -0.28595  -0.27299  -0.26707
  Beta  occ. eigenvalues --   -0.26356  -0.25704  -0.25249  -0.24440  -0.23405
  Beta  occ. eigenvalues --   -0.23035  -0.21177  -0.16357  -0.16155  -0.14331
  Beta  occ. eigenvalues --   -0.12486  -0.11557  -0.10524  -0.09800
  Beta virt. eigenvalues --    0.03455   0.05008   0.06744   0.08090   0.08580
  Beta virt. eigenvalues --    0.09595   0.10263   0.10649   0.10943   0.12065
  Beta virt. eigenvalues --    0.12499   0.13043   0.13790   0.13933   0.14994

 Mulliken charges and spin densities:
               1          2
     1  C   -0.906993   0.081240
     2  C   -0.043264   0.079818
     3  C    0.090423   0.069127
     4  C   -0.607653   0.061495
     5  C    0.791107   0.123892
     6  O   -0.353746   0.241725
     7  O   -0.395047   0.282376
     8  H    0.159974  -0.008530
     9  C    0.996213   0.025653
    10  C   -1.207601   0.030953
    11  C    1.262830  -0.001420
    12  C    0.659096  -0.010291
    13  C   -0.923963   0.004946
    14  C   -0.493602   0.002344
    15  C   -0.203534   0.002177
    16  C   -0.487549  -0.001253
    17  O   -0.210534   0.012765
    18  C   -0.542029  -0.004934
    19  H    0.198720  -0.000724
    20  H    0.164431   0.002521
    21  H    0.140339   0.000160
    22  H    0.126384  -0.000117
    23  H    0.153955  -0.000155
    24  H    0.155656  -0.005987
    25  H    0.166153   0.009634
    26  H    0.146144   0.001423
    27  H    0.164087   0.001162
 Sum of Mulliken charges =  -1.00000   1.00000

 Dipole moment (field-independent basis, Debye):
    X=             -3.7444    Y=             -0.1370    Z=              9.8420  Tot=             10.5311
 Quadrupole moment (field-independent basis, Debye-Ang):
   XX=           -136.0437   YY=           -117.7637   ZZ=           -126.9116
   XY=            -11.6538   XZ=              6.7273   YZ=              5.7628

  Exact polarizability: 279.089   5.827 157.514  -8.415 -23.803 164.685
 Approx polarizability: 404.689  43.479 256.626  -4.412 -39.476 282.499

                      1                      2                      3
                      A                      A                      A
 Frequencies --     29.2515                42.3391                62.0090
 Red. masses --      6.4468                 3.9778                 4.3186
 Frc consts  --      0.0033                 0.0042                 0.0098
 IR Inten    --      2.1996                 0.1543                 1.4804

                      4                      5                      6
                      A                      A                      A
 Frequencies --     76.6280               116.1367               119.2122
 Red. masses --      1.1770                 7.8393                 4.4143
 Frc consts  --      0.0041                 0.0623                 0.0370
 IR Inten    --      0.2586                 7.4910                 5.8490

                      7                      8                      9
                      A                      A                      A
 Frequencies --    149.5286               188.2452               244.8333
 Red. masses --      6.0598                 5.7015                 4.9011
 Frc consts  --      0.0798                 0.1190                 0.1731
 IR Inten    --      4.5189                 3.6563                 3.7935

                     10                     11                     12
                      A                      A                      A
 Frequencies --    257.6026               319.4733               345.4529
 Red. masses --      5.3977                 5.5870                 3.9700
 Frc consts  --      0.2110                 0.3360                 0.2791
 IR Inten    --      0.1119                 0.4809                 3.9924

                     13                     14                     15
                      A                      A                      A
 Frequencies --    357.0836               405.1125               414.7389
 Red. masses --      5.8946                 7.3087                 2.9150
 Frc consts  --      0.4428                 0.7067                 0.2954
 IR Inten    --      1.8836                 7.2648                 0.2393

                     16                     17                     18
                      A                      A                      A
 Frequencies --    428.6872               458.8460               471.0939
 Red. masses --      4.4592                 5.4722                 9.5654
 Frc consts  --      0.4828                 0.6788                 1.2507
 IR Inten    --      6.1992                 2.9068                 2.7130

                     19                     20                     21
                      A                      A                      A
 Frequencies --    521.5689               584.3773               596.1636
 Red. masses --      4.8223                 3.6634                 4.1060
 Frc consts  --      0.7729                 0.7371                 0.8598
 IR Inten    --      1.5643                17.4809                 1.6379

                     22                     23                     24
                      A                      A                      A
 Frequencies --    632.2000               636.1637               682.7802
 Red. masses --      6.2793                 3.7753                 6.3118
 Frc consts  --      1.4787                 0.9002                 1.7337
 IR Inten    --      0.1850                 3.2488                17.9867

                     25                     26                     27
                      A                      A                      A
 Frequencies --    699.3985               711.2270               748.3631
 Red. masses --      2.3599                 2.0879                 6.7896
 Frc consts  --      0.6801                 0.6223                 2.2404
 IR Inten    --     15.6282                51.4491                10.4348

                     28                     29                     30
                      A                      A                      A
 Frequencies --    773.4236               794.7056               828.2555
 Red. masses --      3.8978                 3.4774                 2.2562
 Frc consts  --      1.3737                 1.2939                 0.9119
 IR Inten    --     12.5056                11.0459                36.8463

                     31                     32                     33
                      A                      A                      A
 Frequencies --    845.3840               851.9630               937.4585
 Red. masses --      3.5373                 1.2554                 1.4836
 Frc consts  --      1.4895                 0.5369                 0.7682
 IR Inten    --     57.9409                 0.5423                 1.8121

                     34                     35                     36
                      A                      A                      A
 Frequencies --    945.9123               959.0835               986.2430
 Red. masses --      2.6264                 1.2830                 1.3541
 Frc consts  --      1.3846                 0.6953                 0.7760
 IR Inten    --     47.8721                 1.0642                 0.8132

                     37                     38                     39
                      A                      A                      A
 Frequencies --    989.7231              1016.2992              1019.5986
 Red. masses --      1.3073                 6.0719                 4.0190
 Frc consts  --      0.7545                 3.6950                 2.4616
 IR Inten    --      0.2143                 1.7841                27.7887

                     40                     41                     42
                      A                      A                      A
 Frequencies --   1043.1424              1046.1532              1086.5627
 Red. masses --      1.5507                 2.1875                 2.2611
 Frc consts  --      0.9942                 1.4106                 1.5728
 IR Inten    --      1.6050                 6.0298                18.3705

                     43                     44                     45
                      A                      A                      A
 Frequencies --   1098.0539              1131.2126              1164.0521
 Red. masses --      1.6329                 1.7608                 2.3806
 Frc consts  --      1.1600                 1.3276                 1.9005
 IR Inten    --      3.3573                19.1022                18.2840

                     46                     47                     48
                      A                      A                      A
 Frequencies --   1174.0714              1191.2737              1209.6107
 Red. masses --      1.1113                 1.1850                 3.1151
 Frc consts  --      0.9026                 0.9908                 2.6854
 IR Inten    --      1.2474                38.6677                72.5741

                     49                     50                     51
                      A                      A                      A
 Frequencies --   1252.3089              1331.9129              1344.8787
 Red. masses --      5.0555                 2.4904                 2.4504
 Frc consts  --      4.6713                 2.6030                 2.6112
 IR Inten    --    103.4856                 4.3626                14.5714

                     52                     53                     54
                      A                      A                      A
 Frequencies --   1346.8612              1403.6271              1421.7177
 Red. masses --      1.9044                 1.2742                 4.7368
 Frc consts  --      2.0355                 1.4790                 5.6411
 IR Inten    --     13.4796                21.4748                70.3766

                     55                     56                     57
                      A                      A                      A
 Frequencies --   1461.3731              1468.9250              1472.8497
 Red. masses --      1.3369                 1.7413                 2.2228
 Frc consts  --      1.6822                 2.2138                 2.8410
 IR Inten    --     50.0666                89.8899                17.7846

                     58                     59                     60
                      A                      A                      A
 Frequencies --   1494.9769              1508.8376              1515.2770
 Red. masses --      3.7432                 2.0029                 2.1974
 Frc consts  --      4.9290                 2.6865                 2.9726
 IR Inten    --     28.5053                39.7095                 2.2484

                     61                     62                     63
                      A                      A                      A
 Frequencies --   1535.4868              1615.4579              1630.0487
 Red. masses --      6.6487                 5.8275                 6.8256
 Frc consts  --      9.2359                 8.9603                10.6854
 IR Inten    --    440.0622                16.4396                20.4993

                     64                     65                     66
                      A                      A                      A
 Frequencies --   1634.0253              1686.7427              3017.8411
 Red. masses --      5.6963                11.7082                 1.0474
 Frc consts  --      8.9611                19.6263                 5.6204
 IR Inten    --      7.2565               243.9776                42.5462

                     67                     68                     69
                      A                      A                      A
 Frequencies --   3074.3018              3118.0133              3136.0873
 Red. masses --      1.0846                 1.1027                 1.0851
 Frc consts  --      6.0399                 6.3164                 6.2878
 IR Inten    --     26.3353                12.5668                17.0367

                     70                     71                     72
                      A                      A                      A
 Frequencies --   3142.6595              3156.3429              3158.4186
 Red. masses --      1.0844                 1.0893                 1.0952
 Frc consts  --      6.3101                 6.3937                 6.4372
 IR Inten    --      1.8187                29.4824                44.0339

                     73                     74                     75
                      A                      A                      A
 Frequencies --   3169.4649              3190.2718              3193.2514
 Red. masses --      1.0945                 1.0921                 1.0932
 Frc consts  --      6.4781                 6.5487                 6.5678
 IR Inten    --     49.9338                14.0224                 5.2198

 - Thermochemistry -
 -------------------
 Temperature   298.150 Kelvin.  Pressure   1.00000 Atm.
 Atom     1 has atomic number  6 and mass  12.00000

 Molecular mass:   226.06299 amu.
 Principal axes and moments of inertia in atomic units:
                           1         2         3
     Eigenvalues --  1850.437005923.036936599.60473
           X            0.98758  -0.06774   0.14175
           Y           -0.05280   0.70667   0.70557
           Z           -0.14797  -0.70429   0.69432
 This molecule is an asymmetric top.
 Rotational symmetry number  1.
 Warning -- assumption of classical behavior for rotation
           may cause significant error
 Rotational temperatures (Kelvin)      0.04681     0.01462     0.01312
 Rotational constants (GHZ):           0.97531     0.30470     0.27346
 Zero-point vibrational energy     525595.2 (Joules/Mol)
                                  125.62027 (Kcal/Mol)
 Warning -- explicit consideration of  21 degrees of freedom as
           vibrations may cause significant error
 Vibrational temperatures:     42.09    60.92    89.22   110.25   167.09
          (Kelvin)            171.52   215.14   270.84   352.26   370.63
                              459.65   497.03   513.76   582.87   596.72
                              616.79   660.18   677.80   750.42   840.79
                              857.75   909.59   915.30   982.37  1006.28
                             1023.30  1076.73  1112.78  1143.40  1191.67
                             1216.32  1225.78  1348.79  1360.96  1379.91
                             1418.98  1423.99  1462.23  1466.98  1500.85
                             1505.18  1563.32  1579.85  1627.56  1674.81
                             1689.23  1713.98  1740.36  1801.79  1916.33
                             1934.98  1937.83  2019.51  2045.53  2102.59
                             2113.46  2119.10  2150.94  2170.88  2180.15
                             2209.22  2324.28  2345.28  2351.00  2426.85
                             4342.00  4423.23  4486.13  4512.13  4521.59
                             4541.27  4544.26  4560.15  4590.09  4594.38

 Zero-point correction=                           0.200189 (Hartree/Particle)
 Thermal correction to Energy=                    0.214656
 Thermal correction to Enthalpy=                  0.215601
 Thermal correction to Gibbs Free Energy=         0.156671
 Sum of electronic and zero-point Energies=           -765.244877
 Sum of electronic and thermal Energies=              -765.230409
 Sum of electronic and thermal Enthalpies=            -765.229465
 Sum of electronic and thermal Free Energies=         -765.288395

                     E (Thermal)             CV                S
                      KCal/Mol        Cal/Mol-Kelvin    Cal/Mol-Kelvin
 Total                  134.699             54.978            124.029
 Electronic               0.000              0.000              1.377
 Translational            0.889              2.981             42.149
 Rotational               0.889              2.981             32.647
 Vibrational            132.922             49.016             47.855
 Vibration     1          0.593              1.984              5.880
 Vibration     2          0.595              1.980              5.147
 Vibration     3          0.597              1.972              4.392
 Vibration     4          0.599              1.965              3.975
 Vibration     5          0.608              1.936              3.164
 Vibration     6          0.609              1.933              3.113
 Vibration     7          0.618              1.903              2.678
 Vibration     8          0.633              1.856              2.245
 Vibration     9          0.660              1.771              1.767
 Vibration    10          0.667              1.750              1.678
 Vibration    11          0.705              1.636              1.313
 Vibration    12          0.724              1.585              1.187
 Vibration    13          0.732              1.561              1.135
 Vibration    14          0.770              1.459              0.944
 Vibration    15          0.778              1.438              0.910
 Vibration    16          0.790              1.408              0.863
 Vibration    17          0.817              1.341              0.769
 Vibration    18          0.828              1.314              0.734
 Vibration    19          0.877              1.202              0.606
 Vibration    20          0.941              1.065              0.477
 Vibration    21          0.954              1.040              0.456

                           ! Non-Optimized Parameters !
 Normal termination of Gaussian 16 at Wed Jan 10 05:57:11 2024.
