 Gaussian 16, Revision A.03,
 Gaussian 16:  ES64L-G16RevA.03 25-Dec-2016

 ----------------------------------------------------------------
 #P UB3LYP/6-311++G(d,p) SCRF=(PCM,Solvent=n,n-DiMethylFormamide)
 ----------------------------------------------------------------

 ------------------
 Radical PCM in DMF
 ------------------
 Symbolic Z-matrix:
 Charge = -1 Multiplicity = 2

                         Standard orientation:
 ---------------------------------------------------------------------
 Center     Atomic      Atomic             Coordinates (Angstroms)
 Number     Number       Type             X           Y           Z
 ---------------------------------------------------------------------
      1          6           0       -0.888272   -1.293418   -0.766098
      2          6           0       -2.121935   -1.993618   -0.474002
      3          6           0       -3.187988   -1.369462    0.102105
      4          6           0       -3.169834    0.032917    0.462675
      5          6           0       -1.936402    0.764765    0.186202
      6          8           0        0.074306   -1.858889   -1.351563
      7          8           0       -4.172686    0.589649    0.994921
      8          1           0       -2.157966   -3.042510   -0.754518
      9          6           0       -0.845526    0.115639   -0.378407
     10          6           0        0.417597    0.854456   -0.672261
     11          6           0        1.722823    0.325530   -0.128189
     12          6           0        2.921365    0.805602   -0.668306
     13          6           0        1.774184   -0.560795    0.952409
     14          6           0        4.146715    0.396974   -0.151044
     15          6           0        4.189158   -0.484683    0.930437
     16          6           0        2.999144   -0.958186    1.482740
     17          8           0        0.427820    1.910298   -1.294739
     18          6           0       -1.932355    2.220806    0.574267
     19          1           0        2.867676    1.500887   -1.497492
     20          1           0        0.850061   -0.937692    1.372860
     21          1           0        5.069676    0.765669   -0.587492
     22          1           0        5.143694   -0.801972    1.338413
     23          1           0        3.025337   -1.644115    2.323105
     24          1           0       -4.110864   -1.903990    0.310163
     25          1           0       -2.366275    2.833327   -0.224557
     26          1           0       -0.927893    2.601977    0.759662
     27          1           0       -2.561029    2.360790    1.455742
 ---------------------------------------------------------------------

 SCF Done:  E(UB3LYP) =  -765.524291022     A.U. after   20 cycles

 The electronic state is 2-A.
 Alpha  occ. eigenvalues --  -19.11537 -19.08096 -19.08071 -10.26553 -10.22796
 Alpha  occ. eigenvalues --  -10.22173 -10.18700 -10.18511 -10.18439 -10.18329
 Alpha  occ. eigenvalues --  -10.18158 -10.18103 -10.18090 -10.17372 -10.16829
 Alpha  occ. eigenvalues --  -10.16675 -10.15650  -1.04744  -1.00521  -1.00178
 Alpha  occ. eigenvalues --   -0.86656  -0.83227  -0.77646  -0.76471  -0.75514
 Alpha  occ. eigenvalues --   -0.71622  -0.66718  -0.64558  -0.61643  -0.60135
 Alpha  occ. eigenvalues --   -0.56412  -0.55160  -0.51399  -0.48941  -0.47942
 Alpha  occ. eigenvalues --   -0.46371  -0.45915  -0.44594  -0.43906  -0.43050
 Alpha  occ. eigenvalues --   -0.42343  -0.41724  -0.40945  -0.40289  -0.39342
 Alpha  occ. eigenvalues --   -0.39160  -0.37465  -0.36858  -0.36647  -0.36345
 Alpha  occ. eigenvalues --   -0.35633  -0.34942  -0.28551  -0.27388  -0.26497
 Alpha  occ. eigenvalues --   -0.26219  -0.25569  -0.24605  -0.23573  -0.16655
 Alpha virt. eigenvalues --   -0.06831  -0.01978  -0.01835  -0.00362   0.00577
 Alpha virt. eigenvalues --    0.01125   0.01580   0.01910   0.02421   0.03154
 Alpha virt. eigenvalues --    0.03553   0.03815   0.04156   0.04715   0.04823

  Beta  occ. eigenvalues --  -19.11507 -19.07426 -19.07363 -10.26554 -10.22686
  Beta  occ. eigenvalues --  -10.22033 -10.18700 -10.18438 -10.18326 -10.18318
  Beta  occ. eigenvalues --  -10.18158 -10.18102 -10.18090 -10.17304 -10.16755
  Beta  occ. eigenvalues --  -10.16554 -10.15663  -1.04685  -0.99398  -0.98894
  Beta  occ. eigenvalues --   -0.86648  -0.82632  -0.77463  -0.76330  -0.75504
  Beta  occ. eigenvalues --   -0.71233  -0.65969  -0.64406  -0.61601  -0.59954
  Beta  occ. eigenvalues --   -0.56026  -0.55053  -0.51259  -0.48728  -0.47757
  Beta  occ. eigenvalues --   -0.46271  -0.45702  -0.44436  -0.43720  -0.42962
  Beta  occ. eigenvalues --   -0.41718  -0.41381  -0.40594  -0.39879  -0.39124
  Beta  occ. eigenvalues --   -0.37860  -0.36834  -0.36659  -0.36182  -0.35487
  Beta  occ. eigenvalues --   -0.34979  -0.34409  -0.27367  -0.26610  -0.26078
  Beta  occ. eigenvalues --   -0.25309  -0.24599  -0.23980  -0.23031
  Beta virt. eigenvalues --   -0.09584  -0.06451  -0.01953  -0.00842  -0.00295
  Beta virt. eigenvalues --    0.00597   0.01141   0.01716   0.02452   0.02923
  Beta virt. eigenvalues --    0.03193   0.03643   0.03974   0.04734   0.04821

 Mulliken charges and spin densities:
               1          2
     1  C   -0.735391   0.105124
     2  C   -0.131200   0.080070
     3  C   -0.011173   0.063220
     4  C   -0.428739   0.094088
     5  C    0.710920   0.109073
     6  O   -0.445490   0.231870
     7  O   -0.484747   0.262581
     8  H    0.196760  -0.008375
     9  C    0.912445   0.024761
    10  C   -1.125723   0.028034
    11  C    1.182356  -0.000426
    12  C    0.710364  -0.009932
    13  C   -0.953298   0.005757
    14  C   -0.547445   0.003054
    15  C   -0.236165   0.000993
    16  C   -0.508155  -0.001700
    17  O   -0.263072   0.008091
    18  C   -0.522539  -0.003991
    19  H    0.213171  -0.000525
    20  H    0.176053   0.002088
    21  H    0.195493   0.000091
    22  H    0.184614  -0.000049
    23  H    0.203363  -0.000118
    24  H    0.192590  -0.005481
    25  H    0.189796   0.009003
    26  H    0.163073   0.001371
    27  H    0.162137   0.001327
 Sum of Mulliken charges =  -1.00000   1.00000

 Dipole moment (field-independent basis, Debye):
    X=              9.0847    Y=             -0.4617    Z=              3.2381  Tot=              9.6556
 Quadrupole moment (field-independent basis, Debye-Ang):
   XX=           -133.3985   YY=           -115.0358   ZZ=           -110.6561
   XY=              7.1993   XZ=             12.5591   YZ=             -6.4480

 Normal termination of Gaussian 16 at Wed Jan 24 22:53:19 2024.
