 Gaussian 16, Revision A.03,
 Gaussian 16:  ES64L-G16RevA.03 25-Dec-2016

 ----------------------------------------------------------------
 #P UB3LYP/6-311++G(d,p) SCRF=(PCM,Solvent=n,n-DiMethylFormamide)
 ----------------------------------------------------------------

 ------------------
 Quinone PCM in DMF
 ------------------
 Symbolic Z-matrix:
 Charge =  0 Multiplicity = 1

                         Standard orientation:
 ---------------------------------------------------------------------
 Center     Atomic      Atomic             Coordinates (Angstroms)
 Number     Number       Type             X           Y           Z
 ---------------------------------------------------------------------
      1          6           0        2.181891   -0.767155   -0.000150
      2          6           0        0.723293   -1.066629   -0.000066
      3          6           0       -0.195471   -0.091963   -0.000095
      4          6           0        0.212179    1.350990    0.000018
      5          6           0        1.669709    1.633618   -0.000284
      6          6           0        2.585920    0.657251   -0.000245
      7          8           0        2.999981   -1.669286    0.000398
      8          8           0       -0.602992    2.251849    0.000451
      9          6           0       -1.676960   -0.406553   -0.000056
     10          9           0       -1.896455   -1.740316   -0.000647
     11          9           0       -2.286047    0.095185    1.089307
     12          9           0       -2.286378    0.096205   -1.088743
     13          1           0        0.454146   -2.116087   -0.000083
     14          1           0        1.934259    2.685190   -0.000388
     15          1           0        3.652236    0.853368   -0.000301
 ---------------------------------------------------------------------

 SCF Done:  E(UB3LYP) =  -718.713172537     A.U. after   15 cycles

 The electronic state is 1-A.
 Alpha  occ. eigenvalues --  -24.73409 -24.73408 -24.73405 -19.15972 -19.15925
 Alpha  occ. eigenvalues --  -10.45667 -10.30906 -10.30400 -10.24973 -10.23915
 Alpha  occ. eigenvalues --  -10.22560 -10.22420  -1.34274  -1.25439  -1.25302
 Alpha  occ. eigenvalues --   -1.09342  -1.08891  -0.89092  -0.82894  -0.75492
 Alpha  occ. eigenvalues --   -0.71760  -0.66708  -0.64541  -0.62155  -0.61628
 Alpha  occ. eigenvalues --   -0.58057  -0.54053  -0.52288  -0.49952  -0.49863
 Alpha  occ. eigenvalues --   -0.49390  -0.47273  -0.47023  -0.45722  -0.45474
 Alpha  occ. eigenvalues --   -0.44893  -0.43829  -0.43566  -0.43420  -0.41907
 Alpha  occ. eigenvalues --   -0.33551  -0.32077  -0.30896  -0.29741
 Alpha virt. eigenvalues --   -0.15355  -0.05529  -0.02148  -0.00208   0.01109
 Alpha virt. eigenvalues --    0.01775   0.03694   0.04124   0.04368   0.05366
 Alpha virt. eigenvalues --    0.06291   0.07243   0.07453   0.07609   0.08966

  Beta  occ. eigenvalues --  -24.73409 -24.73408 -24.73405 -19.15972 -19.15925
  Beta  occ. eigenvalues --  -10.45667 -10.30906 -10.30400 -10.24973 -10.23915
  Beta  occ. eigenvalues --  -10.22560 -10.22420  -1.34274  -1.25439  -1.25302
  Beta  occ. eigenvalues --   -1.09342  -1.08891  -0.89092  -0.82894  -0.75492
  Beta  occ. eigenvalues --   -0.71760  -0.66708  -0.64541  -0.62155  -0.61628
  Beta  occ. eigenvalues --   -0.58057  -0.54053  -0.52288  -0.49952  -0.49863
  Beta  occ. eigenvalues --   -0.49390  -0.47273  -0.47023  -0.45722  -0.45474
  Beta  occ. eigenvalues --   -0.44893  -0.43829  -0.43566  -0.43420  -0.41907
  Beta  occ. eigenvalues --   -0.33551  -0.32077  -0.30896  -0.29741
  Beta virt. eigenvalues --   -0.15355  -0.05529  -0.02148  -0.00208   0.01109
  Beta virt. eigenvalues --    0.01775   0.03694   0.04124   0.04368   0.05366
  Beta virt. eigenvalues --    0.06291   0.07243   0.07453   0.07609   0.08966

 Mulliken charges and spin densities:
               1          2
     1  C   -0.505076   0.000000
     2  C   -0.428593  -0.000000
     3  C    0.438334   0.000000
     4  C   -0.399545  -0.000000
     5  C    0.046254   0.000000
     6  C    0.286091  -0.000000
     7  O   -0.260292  -0.000000
     8  O   -0.254559  -0.000000
     9  C    0.635850  -0.000000
    10  F   -0.160618   0.000000
    11  F   -0.073814  -0.000000
    12  F   -0.073844  -0.000000
    13  H    0.242786   0.000000
    14  H    0.252444  -0.000000
    15  H    0.254582  -0.000000
 Sum of Mulliken charges =  -0.00000  -0.00000

 Dipole moment (field-independent basis, Debye):
    X=              3.0968    Y=              0.5551    Z=             -0.0024  Tot=              3.1461
 Quadrupole moment (field-independent basis, Debye-Ang):
   XX=            -73.3429   YY=            -71.9646   ZZ=            -66.2215
   XY=             13.4159   XZ=             -0.0031   YZ=             -0.0011

 Normal termination of Gaussian 16 at Wed Jan 24 22:48:52 2024.
