 Gaussian 16, Revision A.03,
 Gaussian 16:  ES64L-G16RevA.03 25-Dec-2016

 --------------------------------------
 #P UB3LYP/6-311++G(d,p) nosym opt freq
 --------------------------------------

 --------
 Oxidized
 --------
 Symbolic Z-matrix:
 Charge =  0 Multiplicity = 1

 SCF Done:  E(UB3LYP) =  -767.582225040     A.U. after   15 cycles
 SCF Done:  E(UB3LYP) =  -767.602820823     A.U. after   14 cycles
 SCF Done:  E(UB3LYP) =  -767.605147857     A.U. after   13 cycles
 SCF Done:  E(UB3LYP) =  -767.605849832     A.U. after   12 cycles
 SCF Done:  E(UB3LYP) =  -767.606531190     A.U. after   12 cycles
 SCF Done:  E(UB3LYP) =  -767.606596170     A.U. after   11 cycles
 SCF Done:  E(UB3LYP) =  -767.606730430     A.U. after   12 cycles
 SCF Done:  E(UB3LYP) =  -767.606756534     A.U. after   10 cycles
 SCF Done:  E(UB3LYP) =  -767.606771482     A.U. after    9 cycles
 SCF Done:  E(UB3LYP) =  -767.606773525     A.U. after    9 cycles
 SCF Done:  E(UB3LYP) =  -767.606774615     A.U. after    8 cycles
 SCF Done:  E(UB3LYP) =  -767.606775340     A.U. after    9 cycles
 SCF Done:  E(UB3LYP) =  -767.606776291     A.U. after   10 cycles
 SCF Done:  E(UB3LYP) =  -767.606776393     A.U. after    8 cycles
 SCF Done:  E(UB3LYP) =  -767.606776429     A.U. after    8 cycles
 Optimization completed.
    -- Stationary point found.
 Normal termination of Gaussian 16 at Thu Dec 21 07:18:00 2023.

 ----------------------------------------------------------------------
 #P Geom=AllCheck Guess=TCheck SCRF=Check GenChk UB3LYP/6-311++G(d,p) F
 req
 ----------------------------------------------------------------------

 Structure from the checkpoint file:  "125.chk"
 --------
 Oxidized
 --------
 Charge =  0 Multiplicity = 1

                          Input orientation:
 ---------------------------------------------------------------------
 Center     Atomic      Atomic             Coordinates (Angstroms)
 Number     Number       Type             X           Y           Z
 ---------------------------------------------------------------------
      1          6           0       -4.698938   -0.368488   -0.552440
      2          6           0       -3.994056   -0.428600    0.814913
      3          6           0       -2.569279    0.072395    0.758918
      4          6           0       -2.276252    1.432017    0.948145
      5          6           0       -0.974070    1.905206    0.863218
      6          6           0        0.078884    1.028182    0.585909
      7          6           0        1.467544    1.558809    0.502216
      8          8           0        1.707640    2.744570    0.667041
      9          6           0        2.558952    0.582874    0.207597
     10          6           0        3.876132    1.043692    0.120131
     11          6           0        4.910538    0.156408   -0.152721
     12          6           0        4.638220   -1.201560   -0.341004
     13          6           0        3.332132   -1.668831   -0.255887
     14          6           0        2.284882   -0.783522    0.018124
     15          6           0        0.891979   -1.313637    0.103829
     16          8           0        0.655440   -2.499871   -0.059724
     17          6           0       -0.198201   -0.337147    0.395972
     18          6           0       -1.513713   -0.798051    0.484919
     19          1           0       -4.175080   -0.981191   -1.290709
     20          1           0       -5.725585   -0.735797   -0.473544
     21          1           0       -4.733564    0.655831   -0.933096
     22          1           0       -4.558735    0.165914    1.539927
     23          1           0       -4.000419   -1.459844    1.180050
     24          1           0       -3.082501    2.124119    1.170064
     25          1           0       -0.747460    2.953761    1.012656
     26          1           0        4.063926    2.099740    0.269608
     27          1           0        5.930048    0.519007   -0.219478
     28          1           0        5.446480   -1.892064   -0.553676
     29          1           0        3.098121   -2.716620   -0.398057
     30          1           0       -1.693063   -1.857304    0.338800
 ---------------------------------------------------------------------

 SCF Done:  E(UB3LYP) =  -767.606776429     A.U. after    1 cycles

 Alpha  occ. eigenvalues --  -19.12505 -19.12351 -10.27723 -10.27602 -10.20758
 Alpha  occ. eigenvalues --  -10.20706 -10.20685 -10.20635 -10.20421 -10.20125
 Alpha  occ. eigenvalues --  -10.20072 -10.19771 -10.19748 -10.19746 -10.19640
 Alpha  occ. eigenvalues --  -10.19402 -10.18899 -10.17457  -1.05933  -1.05688
 Alpha  occ. eigenvalues --   -0.89410  -0.88361  -0.82383  -0.79350  -0.77831
 Alpha  occ. eigenvalues --   -0.77428  -0.74992  -0.68796  -0.67185  -0.65031
 Alpha  occ. eigenvalues --   -0.62431  -0.61158  -0.58478  -0.56014  -0.54651
 Alpha  occ. eigenvalues --   -0.50294  -0.49568  -0.48761  -0.47892  -0.45719
 Alpha  occ. eigenvalues --   -0.45259  -0.45126  -0.44932  -0.44668  -0.44166
 Alpha  occ. eigenvalues --   -0.43090  -0.42267  -0.41254  -0.40116  -0.38810
 Alpha  occ. eigenvalues --   -0.38389  -0.37693  -0.36791  -0.35946  -0.35885
 Alpha  occ. eigenvalues --   -0.35398  -0.28599  -0.28074  -0.27944  -0.27568
 Alpha  occ. eigenvalues --   -0.26917  -0.26865
 Alpha virt. eigenvalues --   -0.11379  -0.07239  -0.03693  -0.02695  -0.01126
 Alpha virt. eigenvalues --   -0.00662   0.00705   0.01156   0.01283   0.01518
 Alpha virt. eigenvalues --    0.02933   0.03405   0.03613   0.03830   0.03905

  Beta  occ. eigenvalues --  -19.12505 -19.12351 -10.27723 -10.27602 -10.20758
  Beta  occ. eigenvalues --  -10.20706 -10.20685 -10.20635 -10.20421 -10.20125
  Beta  occ. eigenvalues --  -10.20072 -10.19771 -10.19748 -10.19746 -10.19640
  Beta  occ. eigenvalues --  -10.19402 -10.18899 -10.17457  -1.05933  -1.05688
  Beta  occ. eigenvalues --   -0.89410  -0.88361  -0.82383  -0.79350  -0.77831
  Beta  occ. eigenvalues --   -0.77428  -0.74992  -0.68796  -0.67185  -0.65031
  Beta  occ. eigenvalues --   -0.62431  -0.61158  -0.58478  -0.56014  -0.54651
  Beta  occ. eigenvalues --   -0.50294  -0.49568  -0.48761  -0.47892  -0.45719
  Beta  occ. eigenvalues --   -0.45259  -0.45126  -0.44932  -0.44668  -0.44166
  Beta  occ. eigenvalues --   -0.43090  -0.42267  -0.41254  -0.40116  -0.38810
  Beta  occ. eigenvalues --   -0.38389  -0.37693  -0.36791  -0.35946  -0.35885
  Beta  occ. eigenvalues --   -0.35398  -0.28599  -0.28074  -0.27944  -0.27568
  Beta  occ. eigenvalues --   -0.26917  -0.26865
  Beta virt. eigenvalues --   -0.11379  -0.07239  -0.03693  -0.02695  -0.01126
  Beta virt. eigenvalues --   -0.00662   0.00705   0.01156   0.01283   0.01518
  Beta virt. eigenvalues --    0.02933   0.03405   0.03613   0.03830   0.03905

 Mulliken charges and spin densities:
               1          2
     1  C   -0.635429   0.000000
     2  C   -0.128137   0.000000
     3  C    0.740102   0.000000
     4  C   -0.546633  -0.000000
     5  C    0.092333   0.000000
     6  C    0.177114   0.000000
     7  C   -0.833236  -0.000000
     8  O   -0.213289   0.000000
     9  C    0.133536   0.000000
    10  C    0.174315  -0.000000
    11  C   -0.369459  -0.000000
    12  C   -0.362966   0.000000
    13  C    0.130846   0.000000
    14  C    0.363346  -0.000000
    15  C   -0.756505   0.000000
    16  O   -0.208030  -0.000000
    17  C    0.345837  -0.000000
    18  C   -0.120725  -0.000000
    19  H    0.147734   0.000000
    20  H    0.141534  -0.000000
    21  H    0.142945   0.000000
    22  H    0.158194   0.000000
    23  H    0.163571  -0.000000
    24  H    0.173055  -0.000000
    25  H    0.189779   0.000000
    26  H    0.184550   0.000000
    27  H    0.176546  -0.000000
    28  H    0.177021   0.000000
    29  H    0.181920   0.000000
    30  H    0.180130   0.000000
 Sum of Mulliken charges =  -0.00000  -0.00000

 Dipole moment (field-independent basis, Debye):
    X=             -0.8044    Y=             -0.2101    Z=             -0.0634  Tot=              0.8338
 Quadrupole moment (field-independent basis, Debye-Ang):
   XX=            -79.2168   YY=           -114.7334   ZZ=           -107.2695
   XY=             -5.6655   XZ=             -4.3215   YZ=             -0.4673

  Exact polarizability: 290.428  -1.515 199.294 -16.641  17.723 106.399
 Approx polarizability: 397.371  10.637 387.130 -25.576  36.577 169.554

                      1                      2                      3
                      A                      A                      A
 Frequencies --     29.6861                35.7031                75.9479
 Red. masses --      2.6673                 5.7058                 4.8868
 Frc consts  --      0.0014                 0.0043                 0.0166
 IR Inten    --      0.3976                 4.1691                 1.4370

                      4                      5                      6
                      A                      A                      A
 Frequencies --    114.7599               133.0066               167.9887
 Red. masses --      4.5643                 4.9436                 5.7267
 Frc consts  --      0.0354                 0.0515                 0.0952
 IR Inten    --      0.0357                 0.1211                 1.3261

                      7                      8                      9
                      A                      A                      A
 Frequencies --    171.6031               223.3051               232.5556
 Red. masses --      2.2434                 4.3929                 1.4783
 Frc consts  --      0.0389                 0.1291                 0.0471
 IR Inten    --      0.5965                 0.2064                 0.3587

                     10                     11                     12
                      A                      A                      A
 Frequencies --    281.2944               311.0970               364.0634
 Red. masses --      3.8844                 5.7562                 4.0882
 Frc consts  --      0.1811                 0.3282                 0.3193
 IR Inten    --      0.2540                 0.5753                 0.1626

                     13                     14                     15
                      A                      A                      A
 Frequencies --    376.9882               393.1756               414.8547
 Red. masses --      4.0652                 8.5487                 3.4892
 Frc consts  --      0.3404                 0.7786                 0.3538
 IR Inten    --      2.5884                23.8543                 0.5407

                     16                     17                     18
                      A                      A                      A
 Frequencies --    427.6103               444.9069               461.1476
 Red. masses --      5.3416                 3.5252                 4.2956
 Frc consts  --      0.5755                 0.4111                 0.5382
 IR Inten    --      0.2507                 0.0439                 0.5703

                     19                     20                     21
                      A                      A                      A
 Frequencies --    476.7422               556.2341               596.6574
 Red. masses --     10.5968                 4.9794                 4.5396
 Frc consts  --      1.4190                 0.9077                 0.9522
 IR Inten    --      0.0538                 6.5087                 4.7352

                     22                     23                     24
                      A                      A                      A
 Frequencies --    647.5601               670.7574               684.6104
 Red. masses --      6.6955                 5.9333                 3.7595
 Frc consts  --      1.6542                 1.5728                 1.0382
 IR Inten    --      8.8149                 1.2041                11.2161

                     25                     26                     27
                      A                      A                      A
 Frequencies --    700.8337               729.1363               737.4845
 Red. masses --      6.5293                 2.7666                 3.9358
 Frc consts  --      1.8895                 0.8666                 1.2612
 IR Inten    --      0.1421                52.3485                15.0947

                     28                     29                     30
                      A                      A                      A
 Frequencies --    746.6021               795.5889               805.6628
 Red. masses --      3.6977                 1.1806                 4.4078
 Frc consts  --      1.2144                 0.4403                 1.6857
 IR Inten    --      6.0849                 0.9906                 0.0236

                     31                     32                     33
                      A                      A                      A
 Frequencies --    809.5316               844.5753               873.6214
 Red. masses --      1.8775                 5.3013                 1.5208
 Frc consts  --      0.7249                 2.2280                 0.6839
 IR Inten    --      7.1258                 6.8510                19.0867

                     34                     35                     36
                      A                      A                      A
 Frequencies --    916.7551               944.3715               946.9930
 Red. masses --      1.3852                 6.6371                 1.4483
 Frc consts  --      0.6859                 3.4875                 0.7652
 IR Inten    --      0.2630                57.2805                 6.2695

                     37                     38                     39
                      A                      A                      A
 Frequencies --    957.7452              1002.3261              1002.9137
 Red. masses --      2.9208                 1.4295                 2.6823
 Frc consts  --      1.5785                 0.8461                 1.5896
 IR Inten    --     15.2462                 1.7540                15.6683

                     40                     41                     42
                      A                      A                      A
 Frequencies --   1007.0160              1018.3669              1057.1355
 Red. masses --      1.3740                 1.3249                 1.9615
 Frc consts  --      0.8209                 0.8096                 1.2915
 IR Inten    --      2.0504                 0.0015                 0.5174

                     43                     44                     45
                      A                      A                      A
 Frequencies --   1076.7531              1080.8880              1111.1526
 Red. masses --      1.8137                 1.6107                 2.6087
 Frc consts  --      1.2389                 1.1087                 1.8976
 IR Inten    --     12.1018                 6.1741                 0.5839

                     46                     47                     48
                      A                      A                      A
 Frequencies --   1123.9026              1164.4055              1180.2261
 Red. masses --      2.1878                 1.4782                 1.2721
 Frc consts  --      1.6282                 1.1808                 1.0440
 IR Inten    --      1.9541                11.1836                15.7869

                     49                     50                     51
                      A                      A                      A
 Frequencies --   1194.2244              1225.6747              1239.8298
 Red. masses --      1.9891                 2.7339                 1.7208
 Frc consts  --      1.6714                 2.4198                 1.5585
 IR Inten    --      4.4053                15.3577                 1.4611

                     52                     53                     54
                      A                      A                      A
 Frequencies --   1267.8996              1291.8283              1307.0806
 Red. masses --      1.3574                 1.5695                 5.2574
 Frc consts  --      1.2856                 1.5431                 5.2921
 IR Inten    --      0.4745                10.6209               688.7510

                     55                     56                     57
                      A                      A                      A
 Frequencies --   1321.3616              1350.8850              1354.3861
 Red. masses --      2.0173                 1.6200                 5.2491
 Frc consts  --      2.0752                 1.7418                 5.6731
 IR Inten    --      8.3598                 0.1955                52.9746

                     58                     59                     60
                      A                      A                      A
 Frequencies --   1366.1126              1410.2041              1449.0533
 Red. masses --      5.8709                 1.2117                 3.3296
 Frc consts  --      6.4555                 1.4197                 4.1192
 IR Inten    --      0.2096                 2.8884                 5.3712

                     61                     62                     63
                      A                      A                      A
 Frequencies --   1481.4998              1490.7999              1496.9520
 Red. masses --      2.4248                 1.0748                 1.0396
 Frc consts  --      3.1357                 1.4074                 1.3726
 IR Inten    --      0.5252                 3.7774                10.4156

                     64                     65                     66
                      A                      A                      A
 Frequencies --   1503.3399              1509.3030              1519.3029
 Red. masses --      2.5807                 1.1043                 2.6952
 Frc consts  --      3.4363                 1.4821                 3.6654
 IR Inten    --      5.7170                 4.7688                 0.2884

                     67                     68                     69
                      A                      A                      A
 Frequencies --   1599.5640              1614.8211              1627.6779
 Red. masses --      6.8663                 7.1024                 5.9389
 Frc consts  --     10.3508                10.9120                 9.2702
 IR Inten    --      5.1421                 7.0766               131.6311

                     70                     71                     72
                      A                      A                      A
 Frequencies --   1635.8448              1716.7055              1727.5854
 Red. masses --      5.9570                12.5724                11.9697
 Frc consts  --      9.3921                21.8303                21.0481
 IR Inten    --     39.2275                 7.5734               321.2729

                     73                     74                     75
                      A                      A                      A
 Frequencies --   3026.0274              3031.0583              3063.3759
 Red. masses --      1.0348                 1.0593                 1.1032
 Frc consts  --      5.5828                 5.7338                 6.0996
 IR Inten    --     32.9831                27.3411                 3.8166

                     76                     77                     78
                      A                      A                      A
 Frequencies --   3093.5936              3097.5312              3161.1334
 Red. masses --      1.1020                 1.1034                 1.0895
 Frc consts  --      6.2140                 6.2378                 6.4143
 IR Inten    --     44.0460                30.4958                12.3185

                     79                     80                     81
                      A                      A                      A
 Frequencies --   3169.6535              3182.8184              3184.0869
 Red. masses --      1.0870                 1.0903                 1.0918
 Frc consts  --      6.4341                 6.5077                 6.5217
 IR Inten    --      3.3812                 3.4971                11.1443

                     82                     83                     84
                      A                      A                      A
 Frequencies --   3198.2566              3199.7424              3202.3011
 Red. masses --      1.0926                 1.0925                 1.0949
 Frc consts  --      6.5846                 6.5901                 6.6153
 IR Inten    --      4.3674                 0.3944                11.8117

 - Thermochemistry -
 -------------------
 Temperature   298.150 Kelvin.  Pressure   1.00000 Atm.
 Atom     1 has atomic number  6 and mass  12.00000

 Molecular mass:   236.08373 amu.
 Principal axes and moments of inertia in atomic units:
                           1         2         3
     Eigenvalues --  1854.218236844.027918505.14652
           X            0.99752   0.03926   0.05835
           Y           -0.02719   0.98045  -0.19487
           Z           -0.06486   0.19280   0.97909
 This molecule is an asymmetric top.
 Rotational symmetry number  1.
 Warning -- assumption of classical behavior for rotation
           may cause significant error
 Rotational temperatures (Kelvin)      0.04671     0.01266     0.01018
 Rotational constants (GHZ):           0.97332     0.26370     0.21219
 Zero-point vibrational energy     617498.9 (Joules/Mol)
                                  147.58578 (Kcal/Mol)
 Warning -- explicit consideration of  21 degrees of freedom as
           vibrations may cause significant error
 Vibrational temperatures:     42.71    51.37   109.27   165.11   191.37
          (Kelvin)            241.70   246.90   321.29   334.60   404.72
                              447.60   523.81   542.40   565.69   596.88
                              615.24   640.12   663.49   685.93   800.30
                              858.46   931.69   965.07   985.00  1008.34
                             1049.06  1061.08  1074.19  1144.68  1159.17
                             1164.74  1215.16  1256.95  1319.01  1358.74
                             1362.51  1377.98  1442.12  1442.97  1448.87
                             1465.20  1520.98  1549.21  1555.16  1598.70
                             1617.05  1675.32  1698.08  1718.22  1763.47
                             1783.84  1824.22  1858.65  1880.60  1901.14
                             1943.62  1948.66  1965.53  2028.97  2084.86
                             2131.55  2144.93  2153.78  2162.97  2171.55
                             2185.94  2301.42  2323.37  2341.87  2353.62
                             2469.96  2485.61  4353.78  4361.02  4407.51
                             4450.99  4456.66  4548.17  4560.42  4579.37
                             4581.19  4601.58  4603.72  4607.40

 Zero-point correction=                           0.235193 (Hartree/Particle)
 Thermal correction to Energy=                    0.249540
 Thermal correction to Enthalpy=                  0.250485
 Thermal correction to Gibbs Free Energy=         0.192871
 Sum of electronic and zero-point Energies=           -767.371584
 Sum of electronic and thermal Energies=              -767.357236
 Sum of electronic and thermal Enthalpies=            -767.356292
 Sum of electronic and thermal Free Energies=         -767.413906

                     E (Thermal)             CV                S
                      KCal/Mol        Cal/Mol-Kelvin    Cal/Mol-Kelvin
 Total                  156.589             56.479            121.259
 Electronic               0.000              0.000              0.000
 Translational            0.889              2.981             42.279
 Rotational               0.889              2.981             33.045
 Vibrational            154.811             50.518             45.935
 Vibration     1          0.593              1.984              5.850
 Vibration     2          0.594              1.982              5.484
 Vibration     3          0.599              1.965              3.993
 Vibration     4          0.608              1.937              3.187
 Vibration     5          0.613              1.920              2.902
 Vibration     6          0.625              1.882              2.458
 Vibration     7          0.626              1.877              2.418
 Vibration     8          0.649              1.806              1.932
 Vibration     9          0.653              1.791              1.859
 Vibration    10          0.681              1.708              1.526
 Vibration    11          0.700              1.653              1.356
 Vibration    12          0.738              1.546              1.105
 Vibration    13          0.748              1.519              1.051
 Vibration    14          0.760              1.485              0.988
 Vibration    15          0.778              1.438              0.910
 Vibration    16          0.789              1.410              0.866
 Vibration    17          0.804              1.372              0.811
 Vibration    18          0.819              1.336              0.763
 Vibration    19          0.833              1.302              0.719
 Vibration    20          0.912              1.126              0.531
 Vibration    21          0.954              1.039              0.455

 Optimization completed.
    -- Stationary point found.
 Normal termination of Gaussian 16 at Thu Dec 21 08:54:22 2023.
