 Q-Chem 5.4, Q-Chem, Inc., Pleasanton, CA (2021)
 Q-Chem 5.4.0 for Intel X86 EM64T Linux

User input:
--------------------------------------------------------------
$molecule
0 1
O                 -1.3295580000     -2.3931260000      1.1733910000
C                 -1.1989660000     -1.3348140000      0.5923270000
C                 -2.4009190000     -0.6263000000      0.0290160000
O                 -2.2626680000     -0.1876570000     -1.3254660000
C                 -2.3031410000      0.8145980000     -0.3057950000
C                 -1.0040000000      1.5380000000     -0.0753530000
O                 -0.9805710000      2.7510080000     -0.0225550000
C                  0.2176830000      0.6943990000      0.0741950000
C                  1.4745640000      1.2916720000     -0.0536450000
C                  2.6278320000      0.5335100000      0.1123890000
C                  2.5356610000     -0.8247660000      0.4277790000
C                  1.2902740000     -1.4240780000      0.5770130000
C                  0.1247130000     -0.6756300000      0.3923940000
H                 -3.3614900000     -1.0607440000      0.2891020000
H                 -3.1918630000      1.4383450000     -0.2914230000
H                  1.5260990000      2.3496280000     -0.2802650000
H                  3.6004560000      0.9990370000      0.0019590000
H                  3.4368380000     -1.4120040000      0.5617140000
H                  1.1990570000     -2.4710770000      0.8392160000
$end

$rem
BASIS  =  6-311++G(d,p)
GUI  =  2
JOB_TYPE  =  SP
METHOD  =  B3LYP
SCF_CONVERGENCE  = 8
SOLVENT_METHOD = sm12
$end

$smx
solvent dimethylformamide
charges CM5
$end

--------------------------------------------------------------

             Standard Nuclear Orientation (Angstroms)
    I     Atom           X                Y                Z
 ----------------------------------------------------------------
    1      O      -1.3295580000    -2.3931260000     1.1733910000
    2      C      -1.1989660000    -1.3348140000     0.5923270000
    3      C      -2.4009190000    -0.6263000000     0.0290160000
    4      O      -2.2626680000    -0.1876570000    -1.3254660000
    5      C      -2.3031410000     0.8145980000    -0.3057950000
    6      C      -1.0040000000     1.5380000000    -0.0753530000
    7      O      -0.9805710000     2.7510080000    -0.0225550000
    8      C       0.2176830000     0.6943990000     0.0741950000
    9      C       1.4745640000     1.2916720000    -0.0536450000
   10      C       2.6278320000     0.5335100000     0.1123890000
   11      C       2.5356610000    -0.8247660000     0.4277790000
   12      C       1.2902740000    -1.4240780000     0.5770130000
   13      C       0.1247130000    -0.6756300000     0.3923940000
   14      H      -3.3614900000    -1.0607440000     0.2891020000
   15      H      -3.1918630000     1.4383450000    -0.2914230000
   16      H       1.5260990000     2.3496280000    -0.2802650000
   17      H       3.6004560000     0.9990370000     0.0019590000
   18      H       3.4368380000    -1.4120040000     0.5617140000
   19      H       1.1990570000    -2.4710770000     0.8392160000
 ----------------------------------------------------------------

   14    -610.4678943469      5.47e-09  Convergence criterion met
 Total energy in the final basis set =     -610.4888287001

                    Orbital Energies (a.u.)
 --------------------------------------------------------------

 Alpha MOs
 -- Occupied --
-19.1769 -19.1403 -19.1403 -10.2882 -10.2882 -10.2600 -10.2596 -10.2143
-10.2138 -10.2010 -10.2009 -10.2003 -10.1998  -1.1214  -1.0735  -1.0721
 -0.8908  -0.8050  -0.7828  -0.7353  -0.7230  -0.6555  -0.6496  -0.5987
 -0.5541  -0.5486  -0.5321  -0.4990  -0.4815  -0.4709  -0.4565  -0.4516
 -0.4516  -0.4440  -0.4410  -0.4064  -0.3856  -0.3822  -0.3749  -0.3506
 -0.3278  -0.2882  -0.2848  -0.2787  -0.2785

          Ground-State Mulliken Net Atomic Charges

     Atom                 Charge (a.u.)
  ----------------------------------------
      1 O                    -0.303564
      2 C                    -0.476689
      3 C                     0.070385
      4 O                    -0.132258
      5 C                     0.067124
      6 C                    -0.473463
      7 O                    -0.303937
      8 C                    -0.604747
      9 C                     0.170289
     10 C                     0.346628
     11 C                     0.345341
     12 C                     0.168699
     13 C                    -0.604872
     14 H                     0.346015
     15 H                     0.345938
     16 H                     0.196935
     17 H                     0.322516
     18 H                     0.322446
     19 H                     0.197214
  ----------------------------------------
  Sum of atomic charges =     0.000000

                    Cartesian Multipole Moments
 -----------------------------------------------------------------
    Charge (ESU x 10^10)
                 0.0000
    Dipole Moment (Debye)
         X       2.4321      Y      -0.0985      Z       0.2933
       Tot       2.4517
    Quadrupole Moments (Debye-Ang)
        XX     -57.4748     XY      -2.2375     YY     -85.8958
        XZ      -0.8264     YZ       1.6336     ZZ     -79.6279

 Total job time:  212.55s(wall), 1643.38s(cpu)
        *  Thank you very much for using Q-Chem.  Have a nice day.  *
