 Gaussian 16, Revision A.03,
 Gaussian 16:  ES64L-G16RevA.03 25-Dec-2016

 ----------------------------------------------------------------------
 #P UB3LYP/6-311++G(d,p) nosym opt freq SCRF=(PCM,Solvent=n,n-DiMethylF
 ormamide)
 ----------------------------------------------------------------------

 -------
 Reduced
 -------
 Symbolic Z-matrix:
 Charge = -2 Multiplicity = 1

 SCF Done:  E(UB3LYP) =  -950.450633332     A.U. after   15 cycles
 SCF Done:  E(UB3LYP) =  -950.451244413     A.U. after   13 cycles
 SCF Done:  E(UB3LYP) =  -950.451571618     A.U. after   13 cycles
 SCF Done:  E(UB3LYP) =  -950.452151048     A.U. after   12 cycles
 SCF Done:  E(UB3LYP) =  -950.452214089     A.U. after   13 cycles
 SCF Done:  E(UB3LYP) =  -950.452379949     A.U. after   12 cycles
 SCF Done:  E(UB3LYP) =  -950.452480080     A.U. after   12 cycles
 SCF Done:  E(UB3LYP) =  -950.452542605     A.U. after   11 cycles
 SCF Done:  E(UB3LYP) =  -950.452560620     A.U. after   11 cycles
 SCF Done:  E(UB3LYP) =  -950.452568386     A.U. after   11 cycles
 SCF Done:  E(UB3LYP) =  -950.452437242     A.U. after   13 cycles
 SCF Done:  E(UB3LYP) =  -950.452686010     A.U. after   10 cycles
 SCF Done:  E(UB3LYP) =  -950.452053626     A.U. after   14 cycles
 SCF Done:  E(UB3LYP) =  -950.452623470     A.U. after   12 cycles
 SCF Done:  E(UB3LYP) =  -950.452704414     A.U. after    9 cycles
 SCF Done:  E(UB3LYP) =  -950.452707253     A.U. after   12 cycles
 SCF Done:  E(UB3LYP) =  -950.452722618     A.U. after   11 cycles
 SCF Done:  E(UB3LYP) =  -950.452723323     A.U. after   10 cycles
 SCF Done:  E(UB3LYP) =  -950.452723813     A.U. after    9 cycles
 Optimization completed.
    -- Stationary point found.
 Normal termination of Gaussian 16 at Sun Feb 11 04:05:31 2024.

 ----------------------------------------------------------------------
 #P Geom=AllCheck Guess=TCheck SCRF=Check GenChk UB3LYP/6-311++G(d,p) F
 req
 ----------------------------------------------------------------------

 Structure from the checkpoint file:  "198-an.chk"
 -------
 Reduced
 -------
 Charge = -2 Multiplicity = 1

                          Input orientation:
 ---------------------------------------------------------------------
 Center     Atomic      Atomic             Coordinates (Angstroms)
 Number     Number       Type             X           Y           Z
 ---------------------------------------------------------------------
      1          7           0        3.122848   -1.176899    1.357856
      2          6           0        2.657963   -0.504679    0.217371
      3          6           0        3.571121   -0.085247   -0.729852
      4          6           0        3.156389    0.661574   -1.857134
      5          6           0        1.847379    1.026087   -2.026603
      6          8           0        1.484821    1.749941   -3.156754
      7          6           0        0.836711    0.640808   -1.069635
      8          6           0       -0.514947    1.030973   -1.171443
      9          8           0       -0.908281    1.917305   -2.139558
     10          6           0       -1.497839    0.531705   -0.276592
     11          6           0       -2.888940    0.967440   -0.428379
     12          8           0       -3.227628    1.822414   -1.385895
     13          6           0       -3.824581    0.451242    0.460569
     14          6           0       -3.467758   -0.492437    1.449702
     15          6           0       -2.169419   -0.932054    1.615220
     16          7           0       -1.901741   -1.956220    2.564645
     17          6           0       -1.126439   -0.395996    0.768557
     18          6           0        0.266465   -0.730237    0.970068
     19          8           0        0.623206   -1.499172    1.971689
     20          6           0        1.247480   -0.200988    0.055093
     21          1           0        3.952587   -1.732671    1.201080
     22          1           0        2.353902   -1.641779    1.846823
     23          1           0        4.622750   -0.320721   -0.599377
     24          1           0        3.891929    0.956126   -2.601890
     25          1           0        2.286832    1.885407   -3.674892
     26          1           0       -1.926668    2.012021   -1.978671
     27          1           0       -4.858237    0.771642    0.365413
     28          1           0       -4.242376   -0.904145    2.093025
     29          1           0       -0.899412   -1.983963    2.760166
     30          1           0       -2.468114   -1.867478    3.399395
 ---------------------------------------------------------------------

 SCF Done:  E(UB3LYP) =  -950.452723813     A.U. after    1 cycles

 Alpha  occ. eigenvalues --  -19.12989 -19.08017 -19.04080 -19.03533 -14.28000
 Alpha  occ. eigenvalues --  -14.27362 -10.20747 -10.19492 -10.19116 -10.18886
 Alpha  occ. eigenvalues --  -10.18662 -10.17358 -10.15733 -10.15110 -10.14781
 Alpha  occ. eigenvalues --  -10.14725 -10.14665 -10.13773 -10.13374 -10.12552
 Alpha  occ. eigenvalues --   -1.03771  -1.00214  -0.95565  -0.94103  -0.88559
 Alpha  occ. eigenvalues --   -0.87287  -0.81999  -0.79323  -0.75545  -0.71434
 Alpha  occ. eigenvalues --   -0.70726  -0.68271  -0.64395  -0.61353  -0.60671
 Alpha  occ. eigenvalues --   -0.56169  -0.54394  -0.53379  -0.50791  -0.49163
 Alpha  occ. eigenvalues --   -0.48198  -0.47042  -0.46420  -0.43940  -0.43389
 Alpha  occ. eigenvalues --   -0.42284  -0.41883  -0.40592  -0.40276  -0.38709
 Alpha  occ. eigenvalues --   -0.38137  -0.37697  -0.36310  -0.36008  -0.35580
 Alpha  occ. eigenvalues --   -0.34928  -0.34486  -0.33633  -0.32931  -0.32384
 Alpha  occ. eigenvalues --   -0.31061  -0.30200  -0.27262  -0.25129  -0.23478
 Alpha  occ. eigenvalues --   -0.22042  -0.21883  -0.20757  -0.18909  -0.16330
 Alpha  occ. eigenvalues --   -0.11248
 Alpha virt. eigenvalues --   -0.01095  -0.00270   0.00092   0.00629   0.01047
 Alpha virt. eigenvalues --    0.02104   0.02288   0.03733   0.03978   0.04527
 Alpha virt. eigenvalues --    0.04579   0.04955   0.06130   0.06463   0.06793

  Beta  occ. eigenvalues --  -19.12989 -19.08017 -19.04080 -19.03533 -14.28000
  Beta  occ. eigenvalues --  -14.27362 -10.20747 -10.19492 -10.19116 -10.18886
  Beta  occ. eigenvalues --  -10.18662 -10.17358 -10.15733 -10.15110 -10.14781
  Beta  occ. eigenvalues --  -10.14725 -10.14665 -10.13773 -10.13374 -10.12552
  Beta  occ. eigenvalues --   -1.03771  -1.00214  -0.95565  -0.94103  -0.88559
  Beta  occ. eigenvalues --   -0.87287  -0.81999  -0.79323  -0.75545  -0.71434
  Beta  occ. eigenvalues --   -0.70726  -0.68271  -0.64395  -0.61353  -0.60671
  Beta  occ. eigenvalues --   -0.56169  -0.54394  -0.53379  -0.50791  -0.49163
  Beta  occ. eigenvalues --   -0.48198  -0.47042  -0.46420  -0.43940  -0.43389
  Beta  occ. eigenvalues --   -0.42284  -0.41883  -0.40592  -0.40276  -0.38709
  Beta  occ. eigenvalues --   -0.38137  -0.37697  -0.36310  -0.36008  -0.35580
  Beta  occ. eigenvalues --   -0.34928  -0.34486  -0.33633  -0.32931  -0.32384
  Beta  occ. eigenvalues --   -0.31061  -0.30200  -0.27262  -0.25129  -0.23478
  Beta  occ. eigenvalues --   -0.22042  -0.21883  -0.20757  -0.18909  -0.16330
  Beta  occ. eigenvalues --   -0.11248
  Beta virt. eigenvalues --   -0.01095  -0.00270   0.00092   0.00629   0.01047
  Beta virt. eigenvalues --    0.02104   0.02288   0.03733   0.03978   0.04527
  Beta virt. eigenvalues --    0.04579   0.04955   0.06130   0.06463   0.06793

 Mulliken charges and spin densities:
               1          2
     1  N   -0.456676   0.000000
     2  C   -0.104818   0.000000
     3  C   -0.345481   0.000000
     4  C   -0.165714  -0.000000
     5  C   -0.470216   0.000000
     6  O   -0.309947   0.000000
     7  C    0.396143   0.000000
     8  C   -0.251675  -0.000000
     9  O   -0.573895   0.000000
    10  C    0.422229   0.000000
    11  C   -0.539755  -0.000000
    12  O   -0.694743   0.000000
    13  C   -0.221372   0.000000
    14  C   -0.308936   0.000000
    15  C   -0.181980  -0.000000
    16  N   -0.468504   0.000000
    17  C    0.409196  -0.000000
    18  C   -0.467231   0.000000
    19  O   -0.594302  -0.000000
    20  C    0.487527  -0.000000
    21  H    0.249042  -0.000000
    22  H    0.310280   0.000000
    23  H    0.148934   0.000000
    24  H    0.139398  -0.000000
    25  H    0.284827  -0.000000
    26  H    0.479385  -0.000000
    27  H    0.142363   0.000000
    28  H    0.141597  -0.000000
    29  H    0.302393   0.000000
    30  H    0.241932   0.000000
 Sum of Mulliken charges =  -2.00000  -0.00000

 Dipole moment (field-independent basis, Debye):
    X=             10.2461    Y=             -3.9561    Z=              1.7955  Tot=             11.1292
 Quadrupole moment (field-independent basis, Debye-Ang):
   XX=           -166.6523   YY=           -151.2345   ZZ=           -145.9556
   XY=             14.0370   XZ=            -20.9695   YZ=             19.5067

  Exact polarizability: 568.291 -26.918 259.161 -66.379-114.149 339.831
 Approx polarizability: 625.091 -36.635 304.922 -65.061-147.252 404.773

                      1                      2                      3
                      A                      A                      A
 Frequencies --     43.2081                52.9692                93.3004
 Red. masses --      7.2379                 6.1546                 5.8662
 Frc consts  --      0.0080                 0.0102                 0.0301
 IR Inten    --      7.2326                11.2822                 1.5051

                      4                      5                      6
                      A                      A                      A
 Frequencies --    107.1993               110.4343               182.9926
 Red. masses --      6.4152                 6.0894                 7.2631
 Frc consts  --      0.0434                 0.0438                 0.1433
 IR Inten    --      1.8682                 2.4504                 2.6183

                      7                      8                      9
                      A                      A                      A
 Frequencies --    218.8686               267.7185               302.6026
 Red. masses --      6.5955                 3.9173                 4.7529
 Frc consts  --      0.1862                 0.1654                 0.2564
 IR Inten    --     22.9923                20.4079                14.9682

                     10                     11                     12
                      A                      A                      A
 Frequencies --    309.7544               320.1119               339.1852
 Red. masses --      1.5641                 5.0671                 2.9149
 Frc consts  --      0.0884                 0.3059                 0.1976
 IR Inten    --     67.7336                45.9970                51.7773

                     13                     14                     15
                      A                      A                      A
 Frequencies --    358.4183               371.0987               386.4209
 Red. masses --      3.0233                 3.6533                 6.1633
 Frc consts  --      0.2288                 0.2964                 0.5422
 IR Inten    --     94.9388                54.4365                 5.7664

                     16                     17                     18
                      A                      A                      A
 Frequencies --    411.3777               417.4536               431.6830
 Red. masses --      2.0433                 3.6267                 4.3465
 Frc consts  --      0.2037                 0.3724                 0.4772
 IR Inten    --    145.1262                59.0541                45.0328

                     19                     20                     21
                      A                      A                      A
 Frequencies --    434.3657               456.7789               469.6416
 Red. masses --      1.4358                 7.0012                 7.5122
 Frc consts  --      0.1596                 0.8607                 0.9762
 IR Inten    --    229.2250                 2.9397                 7.5769

                     22                     23                     24
                      A                      A                      A
 Frequencies --    473.2110               489.0822               493.9707
 Red. masses --      7.1130                 6.0986                 4.6302
 Frc consts  --      0.9385                 0.8595                 0.6657
 IR Inten    --     25.1529                12.9440                 5.6414

                     25                     26                     27
                      A                      A                      A
 Frequencies --    510.5966               542.9955               551.0733
 Red. masses --      5.9159                 5.4542                 4.1240
 Frc consts  --      0.9087                 0.9475                 0.7379
 IR Inten    --     17.2108                26.1514                27.4404

                     28                     29                     30
                      A                      A                      A
 Frequencies --    603.5508               612.9020               644.5505
 Red. masses --      4.3321                 4.1909                 3.0240
 Frc consts  --      0.9298                 0.9276                 0.7402
 IR Inten    --     79.1096                18.6031                10.3928

                     31                     32                     33
                      A                      A                      A
 Frequencies --    717.9307               731.6246               734.2300
 Red. masses --      5.4092                 4.1799                 4.4921
 Frc consts  --      1.6427                 1.3182                 1.4268
 IR Inten    --     30.6985               284.9569                84.4715

                     34                     35                     36
                      A                      A                      A
 Frequencies --    738.4629               762.4904               775.5938
 Red. masses --      5.2951                 1.4633                 2.3664
 Frc consts  --      1.7013                 0.5013                 0.8387
 IR Inten    --    102.8444                64.3673                88.6528

                     37                     38                     39
                      A                      A                      A
 Frequencies --    790.8631               796.0536               800.1538
 Red. masses --      6.7357                 1.9866                 4.1812
 Frc consts  --      2.4822                 0.7417                 1.5772
 IR Inten    --     75.5237                50.0606               162.3550

                     40                     41                     42
                      A                      A                      A
 Frequencies --    828.6137               839.9543               856.0515
 Red. masses --      2.6269                 1.4126                 1.5025
 Frc consts  --      1.0627                 0.5872                 0.6487
 IR Inten    --    174.5575                27.0576                86.1907

                     43                     44                     45
                      A                      A                      A
 Frequencies --    871.1563               923.9502               955.8041
 Red. masses --      1.8691                 6.2055                 5.0193
 Frc consts  --      0.8357                 3.1212                 2.7017
 IR Inten    --    336.1817               522.2450                10.7012

                     46                     47                     48
                      A                      A                      A
 Frequencies --    993.7282              1048.3040              1078.5037
 Red. masses --      4.5134                 1.0496                 1.7086
 Frc consts  --      2.6260                 0.6796                 1.1709
 IR Inten    --    101.9530               128.4897               193.0360

                     49                     50                     51
                      A                      A                      A
 Frequencies --   1121.3787              1150.6420              1165.5929
 Red. masses --      2.1054                 2.4843                 1.5708
 Frc consts  --      1.5599                 1.9380                 1.2574
 IR Inten    --    121.7461               938.8310                44.5554

                     52                     53                     54
                      A                      A                      A
 Frequencies --   1187.5330              1201.4406              1224.1652
 Red. masses --      1.6137                 2.6584                 2.9766
 Frc consts  --      1.3408                 2.2609                 2.6282
 IR Inten    --    159.4059               318.6186                12.9423

                     55                     56                     57
                      A                      A                      A
 Frequencies --   1230.4754              1250.2508              1259.1142
 Red. masses --      2.9105                 1.8615                 4.6219
 Frc consts  --      2.5964                 1.7144                 4.3172
 IR Inten    --     86.8761                78.1091                68.6505

                     58                     59                     60
                      A                      A                      A
 Frequencies --   1273.9939              1276.7796              1330.5546
 Red. masses --      3.5755                 4.2352                 8.3358
 Frc consts  --      3.4192                 4.0678                 8.6949
 IR Inten    --    135.1158               252.1525               116.8452

                     61                     62                     63
                      A                      A                      A
 Frequencies --   1344.2120              1376.7795              1403.1633
 Red. masses --      4.3525                 4.3507                 2.3987
 Frc consts  --      4.6337                 4.8589                 2.7826
 IR Inten    --     13.8958              1643.1527               127.3055

                     64                     65                     66
                      A                      A                      A
 Frequencies --   1433.8991              1453.3962              1469.5114
 Red. masses --      3.5008                 2.7747                 3.0399
 Frc consts  --      4.2409                 3.4534                 3.8677
 IR Inten    --     86.5630               818.4214                53.0546

                     67                     68                     69
                      A                      A                      A
 Frequencies --   1501.6088              1541.0827              1561.3621
 Red. masses --      3.9037                 2.7598                 1.3839
 Frc consts  --      5.1861                 3.8618                 1.9878
 IR Inten    --    161.7317               162.9060               349.9845

                     70                     71                     72
                      A                      A                      A
 Frequencies --   1589.9289              1594.0036              1613.9726
 Red. masses --      3.2098                 1.9832                 2.8983
 Frc consts  --      4.7806                 2.9689                 4.4482
 IR Inten    --    210.0656               162.4932                42.7962

                     73                     74                     75
                      A                      A                      A
 Frequencies --   1622.8235              1685.5550              2415.2405
 Red. masses --      5.1228                 1.4668                 1.0906
 Frc consts  --      7.9487                 2.4554                 3.7484
 IR Inten    --    264.2954               179.9544              1909.7857

                     76                     77                     78
                      A                      A                      A
 Frequencies --   3120.9523              3129.2346              3148.2979
 Red. masses --      1.0861                 1.0873                 1.0915
 Frc consts  --      6.2330                 6.2730                 6.3740
 IR Inten    --     84.1730                73.3462               103.7340

                     79                     80                     81
                      A                      A                      A
 Frequencies --   3154.6333              3328.0768              3366.1978
 Red. masses --      1.0922                 1.0640                 1.0616
 Frc consts  --      6.4039                 6.9436                 7.0872
 IR Inten    --     49.0166               495.7171               197.2509

                     82                     83                     84
                      A                      A                      A
 Frequencies --   3572.5025              3599.4937              3803.9868
 Red. masses --      1.0849                 1.0846                 1.0659
 Frc consts  --      8.1578                 8.2795                 9.0873
 IR Inten    --     37.5647                36.4892                69.4590

 - Thermochemistry -
 -------------------
 Temperature   298.150 Kelvin.  Pressure   1.00000 Atm.
 Atom     1 has atomic number  7 and mass  14.00307

 Molecular mass:   270.06406 amu.
 Principal axes and moments of inertia in atomic units:
                           1         2         3
     Eigenvalues --  3521.969805539.511779020.28451
           X            0.94823   0.28242   0.14525
           Y            0.05758  -0.60267   0.79591
           Z           -0.31232   0.74634   0.58774
 This molecule is an asymmetric top.
 Rotational symmetry number  1.
 Warning -- assumption of classical behavior for rotation
           may cause significant error
 Rotational temperatures (Kelvin)      0.02459     0.01564     0.00960
 Rotational constants (GHZ):           0.51242     0.32579     0.20008
 Zero-point vibrational energy     566747.7 (Joules/Mol)
                                  135.45596 (Kcal/Mol)
 Warning -- explicit consideration of  29 degrees of freedom as
           vibrations may cause significant error
 Vibrational temperatures:     62.17    76.21   134.24   154.24   158.89
          (Kelvin)            263.29   314.90   385.19   435.38   445.67
                              460.57   488.01   515.68   533.93   555.97
                              591.88   600.62   621.10   624.96   657.20
                              675.71   680.85   703.68   710.71   734.63
                              781.25   792.87   868.38   881.83   927.36
                             1032.94  1052.64  1056.39  1062.48  1097.05
                             1115.91  1137.88  1145.34  1151.24  1192.19
                             1208.51  1231.67  1253.40  1329.36  1375.19
                             1429.75  1508.28  1551.73  1613.41  1655.52
                             1677.03  1708.60  1728.61  1761.30  1770.38
                             1798.83  1811.58  1832.99  1837.00  1914.37
                             1934.02  1980.88  2018.84  2063.06  2091.11
                             2114.30  2160.48  2217.27  2246.45  2287.55
                             2293.42  2322.15  2334.88  2425.14  3474.99
                             4490.35  4502.27  4529.70  4538.81  4788.36
                             4843.21  5140.03  5178.87  5473.09

 Zero-point correction=                           0.215863 (Hartree/Particle)
 Thermal correction to Energy=                    0.231681
 Thermal correction to Enthalpy=                  0.232625
 Thermal correction to Gibbs Free Energy=         0.173390
 Sum of electronic and zero-point Energies=           -950.236861
 Sum of electronic and thermal Energies=              -950.221043
 Sum of electronic and thermal Enthalpies=            -950.220099
 Sum of electronic and thermal Free Energies=         -950.279333

                     E (Thermal)             CV                S
                      KCal/Mol        Cal/Mol-Kelvin    Cal/Mol-Kelvin
 Total                  145.382             65.031            124.670
 Electronic               0.000              0.000              0.000
 Translational            0.889              2.981             42.679
 Rotational               0.889              2.981             33.531
 Vibrational            143.605             59.070             48.460
 Vibration     1          0.595              1.980              5.106
 Vibration     2          0.596              1.976              4.703
 Vibration     3          0.602              1.954              3.590
 Vibration     4          0.606              1.943              3.319
 Vibration     5          0.606              1.941              3.261
 Vibration     6          0.630              1.863              2.298
 Vibration     7          0.647              1.812              1.968
 Vibration     8          0.673              1.732              1.611
 Vibration     9          0.694              1.669              1.402
 Vibration    10          0.699              1.655              1.364
 Vibration    11          0.706              1.635              1.310
 Vibration    12          0.719              1.597              1.216
 Vibration    13          0.733              1.558              1.129
 Vibration    14          0.743              1.532              1.075
 Vibration    15          0.755              1.499              1.014
 Vibration    16          0.775              1.446              0.922
 Vibration    17          0.780              1.432              0.901
 Vibration    18          0.793              1.401              0.853
 Vibration    19          0.795              1.395              0.845
 Vibration    20          0.815              1.346              0.776
 Vibration    21          0.827              1.317              0.739
 Vibration    22          0.830              1.309              0.729
 Vibration    23          0.845              1.274              0.686
 Vibration    24          0.850              1.263              0.673
 Vibration    25          0.866              1.227              0.632
 Vibration    26          0.898              1.155              0.559
 Vibration    27          0.906              1.137              0.542
 Vibration    28          0.962              1.024              0.444
 Vibration    29          0.972              1.005              0.428

                           ! Non-Optimized Parameters !
 Normal termination of Gaussian 16 at Sun Feb 11 05:36:51 2024.
