 Gaussian 16, Revision A.03,
 Gaussian 16:  ES64L-G16RevA.03 25-Dec-2016

 ----------------------------------------------------------------------
 #P UB3LYP/6-311++G(d,p) nosym opt freq SCRF=(PCM,Solvent=n,n-DiMethylF
 ormamide)
 ----------------------------------------------------------------------

 --------
 Oxidized
 --------
 Symbolic Z-matrix:
 Charge =  0 Multiplicity = 1

 SCF Done:  E(UB3LYP) =  -473.833279234     A.U. after   15 cycles
 SCF Done:  E(UB3LYP) =  -473.833369518     A.U. after   12 cycles
 SCF Done:  E(UB3LYP) =  -473.833389159     A.U. after   11 cycles
 SCF Done:  E(UB3LYP) =  -473.833387274     A.U. after   10 cycles
 SCF Done:  E(UB3LYP) =  -473.833389791     A.U. after   10 cycles
 SCF Done:  E(UB3LYP) =  -473.833390665     A.U. after    9 cycles
 Optimization completed.
    -- Stationary point found.
 Normal termination of Gaussian 16 at Sat Feb 10 10:06:42 2024.

 ----------------------------------------------------------------------
 #P Geom=AllCheck Guess=TCheck SCRF=Check GenChk UB3LYP/6-311++G(d,p) F
 req
 ----------------------------------------------------------------------

 Structure from the checkpoint file:  "000.chk"
 --------
 Oxidized
 --------
 Charge =  0 Multiplicity = 1

                          Input orientation:
 ---------------------------------------------------------------------
 Center     Atomic      Atomic             Coordinates (Angstroms)
 Number     Number       Type             X           Y           Z
 ---------------------------------------------------------------------
      1          6           0       -0.295949    1.138513   -0.269507
      2          6           0       -1.401336    0.287536   -0.757962
      3          6           0       -1.354633   -1.048885   -0.675440
      4          6           0       -0.188152   -1.741429   -0.086945
      5          6           0        0.936033   -0.906555    0.412600
      6          6           0        0.890357    0.436132    0.330434
      7          8           0       -0.332951    2.353160   -0.343515
      8          8           0       -0.133519   -2.958691   -0.005440
      9          6           0        1.959874    1.256620    0.805111
     10          7           0        2.821014    1.923576    1.187597
     11          1           0       -2.247005    0.813007   -1.185656
     12          1           0       -2.161062   -1.678733   -1.032087
     13          1           0        1.780447   -1.433582    0.839850
 ---------------------------------------------------------------------

 SCF Done:  E(UB3LYP) =  -473.833390665     A.U. after    1 cycles

 Alpha  occ. eigenvalues --  -19.16300 -19.16114 -14.34837 -10.31228 -10.30648
 Alpha  occ. eigenvalues --  -10.26567 -10.24647 -10.24634 -10.22843 -10.22740
 Alpha  occ. eigenvalues --   -1.09467  -1.08914  -0.94725  -0.89171  -0.82794
 Alpha  occ. eigenvalues --   -0.74218  -0.68720  -0.64393  -0.56886  -0.54810
 Alpha  occ. eigenvalues --   -0.52353  -0.49520  -0.47487  -0.47268  -0.45445
 Alpha  occ. eigenvalues --   -0.44017  -0.43292  -0.40523  -0.40184  -0.37414
 Alpha  occ. eigenvalues --   -0.32882  -0.31810  -0.31158  -0.30190
 Alpha virt. eigenvalues --   -0.15932  -0.07538  -0.02573  -0.00883  -0.00198
 Alpha virt. eigenvalues --    0.00988   0.01588   0.03729   0.03944   0.03965
 Alpha virt. eigenvalues --    0.04466   0.05581   0.07035   0.07603   0.08033

  Beta  occ. eigenvalues --  -19.16300 -19.16114 -14.34837 -10.31228 -10.30648
  Beta  occ. eigenvalues --  -10.26567 -10.24647 -10.24634 -10.22843 -10.22740
  Beta  occ. eigenvalues --   -1.09467  -1.08914  -0.94725  -0.89171  -0.82794
  Beta  occ. eigenvalues --   -0.74218  -0.68720  -0.64393  -0.56886  -0.54810
  Beta  occ. eigenvalues --   -0.52353  -0.49520  -0.47487  -0.47268  -0.45445
  Beta  occ. eigenvalues --   -0.44017  -0.43292  -0.40523  -0.40184  -0.37414
  Beta  occ. eigenvalues --   -0.32882  -0.31810  -0.31158  -0.30190
  Beta virt. eigenvalues --   -0.15932  -0.07538  -0.02573  -0.00883  -0.00198
  Beta virt. eigenvalues --    0.00988   0.01588   0.03729   0.03944   0.03965
  Beta virt. eigenvalues --    0.04466   0.05581   0.07035   0.07603   0.08033

 Mulliken charges and spin densities:
               1          2
     1  C   -1.107222   0.000000
     2  C    0.229764   0.000000
     3  C    0.123265  -0.000000
     4  C   -0.306488   0.000000
     5  C   -0.498747  -0.000000
     6  C    2.275792   0.000000
     7  O   -0.246635   0.000000
     8  O   -0.263662   0.000000
     9  C   -0.737545  -0.000000
    10  N   -0.246688   0.000000
    11  H    0.258693   0.000000
    12  H    0.257422  -0.000000
    13  H    0.262050  -0.000000
 Sum of Mulliken charges =  -0.00000  -0.00000

 Dipole moment (field-independent basis, Debye):
    X=             -3.7207    Y=             -3.0720    Z=             -1.6389  Tot=              5.0958
 Quadrupole moment (field-independent basis, Debye-Ang):
   XX=            -59.5395   YY=            -80.2242   ZZ=            -55.5717
   XY=             -8.2719   XZ=             -1.4795   YZ=             -2.5771

  Exact polarizability: 106.833  19.237 197.078  23.005   2.847  67.791
 Approx polarizability: 117.800  23.225 280.070  23.152   1.464  78.233

                      1                      2                      3
                      A                      A                      A
 Frequencies --     79.6859               128.5959               146.3111
 Red. masses --      7.9441                 7.1389                12.1512
 Frc consts  --      0.0297                 0.0696                 0.1533
 IR Inten    --     13.1949                18.1626                 6.7834

                      4                      5                      6
                      A                      A                      A
 Frequencies --    237.9165               334.0970               362.6717
 Red. masses --      5.7501                 4.3818                12.6416
 Frc consts  --      0.1918                 0.2882                 0.9797
 IR Inten    --      0.7922                 0.3414                13.0102

                      7                      8                      9
                      A                      A                      A
 Frequencies --    429.8360               442.6821               483.9324
 Red. masses --      7.8079                11.7126                 3.6303
 Frc consts  --      0.8499                 1.3523                 0.5009
 IR Inten    --     22.9181                 0.3520                 5.4724

                     10                     11                     12
                      A                      A                      A
 Frequencies --    495.1823               611.1634               631.5821
 Red. masses --     11.0524                 5.4926                 3.0645
 Frc consts  --      1.5967                 1.2088                 0.7202
 IR Inten    --      5.2552                 6.3375                 0.3476

                     13                     14                     15
                      A                      A                      A
 Frequencies --    669.1909               785.4298               802.5923
 Red. masses --      7.4984                 4.1333                 5.6260
 Frc consts  --      1.9784                 1.5023                 2.1352
 IR Inten    --      4.3423                 0.5075                 3.1471

                     16                     17                     18
                      A                      A                      A
 Frequencies --    848.8913               874.3547               948.7712
 Red. masses --      2.1106                 4.1822                 1.5394
 Frc consts  --      0.8961                 1.8838                 0.8164
 IR Inten    --     40.4817                15.9470                56.8604

                     19                     20                     21
                      A                      A                      A
 Frequencies --   1014.0001              1081.4883              1139.2258
 Red. masses --      1.2570                 3.3533                 1.7480
 Frc consts  --      0.7615                 2.3109                 1.3366
 IR Inten    --      0.0712                94.2282                36.9602

                     22                     23                     24
                      A                      A                      A
 Frequencies --   1230.5699              1289.8670              1349.6045
 Red. masses --      1.6785                 3.0621                 2.2495
 Frc consts  --      1.4976                 3.0016                 2.4140
 IR Inten    --      5.3089               163.8374                45.0272

                     25                     26                     27
                      A                      A                      A
 Frequencies --   1394.0518              1639.8708              1672.5908
 Red. masses --      1.8792                 8.2314                 9.0689
 Frc consts  --      2.1517                13.0420                14.9480
 IR Inten    --      2.3964                33.0862                12.4504

                     28                     29                     30
                      A                      A                      A
 Frequencies --   1707.9530              1721.0621              2338.7695
 Red. masses --     10.4727                10.3270                12.6826
 Frc consts  --     17.9995                18.0226                40.8726
 IR Inten    --    959.2201               110.4720                24.5176

                     31                     32                     33
                      A                      A                      A
 Frequencies --   3190.6949              3204.8760              3206.2942
 Red. masses --      1.0882                 1.0977                 1.0964
 Frc consts  --      6.5274                 6.6427                 6.6406
 IR Inten    --      0.8751                 0.0758                 0.6274

 - Thermochemistry -
 -------------------
 Temperature   298.150 Kelvin.  Pressure   1.00000 Atm.
 Atom     1 has atomic number  6 and mass  12.00000

 Molecular mass:   133.01638 amu.
 Principal axes and moments of inertia in atomic units:
                           1         2         3
     Eigenvalues --   756.478541606.284322362.76228
           X            0.49162   0.75652  -0.43126
           Y            0.84831  -0.52791   0.04099
           Z            0.19666   0.38599   0.90130
 This molecule is an asymmetric top.
 Rotational symmetry number  1.
 Warning -- assumption of classical behavior for rotation
           may cause significant error
 Rotational temperatures (Kelvin)      0.11450     0.05392     0.03666
 Rotational constants (GHZ):           2.38571     1.12355     0.76383
 Zero-point vibrational energy     218281.4 (Joules/Mol)
                                   52.17051 (Kcal/Mol)
 Warning -- explicit consideration of  11 degrees of freedom as
           vibrations may cause significant error
 Vibrational temperatures:    114.65   185.02   210.51   342.31   480.69
          (Kelvin)            521.80   618.44   636.92   696.27   712.46
                              879.33   908.71   962.82  1130.06  1154.75
                             1221.37  1258.00  1365.07  1458.92  1556.02
                             1639.09  1770.52  1855.83  1941.78  2005.73
                             2359.41  2406.49  2457.36  2476.22  3364.97
                             4590.70  4611.10  4613.14

 Zero-point correction=                           0.083139 (Hartree/Particle)
 Thermal correction to Energy=                    0.091211
 Thermal correction to Enthalpy=                  0.092156
 Thermal correction to Gibbs Free Energy=         0.049780
 Sum of electronic and zero-point Energies=           -473.750252
 Sum of electronic and thermal Energies=              -473.742179
 Sum of electronic and thermal Enthalpies=            -473.741235
 Sum of electronic and thermal Free Energies=         -473.783611

                     E (Thermal)             CV                S
                      KCal/Mol        Cal/Mol-Kelvin    Cal/Mol-Kelvin
 Total                   57.236             29.392             89.187
 Electronic               0.000              0.000              0.000
 Translational            0.889              2.981             40.568
 Rotational               0.889              2.981             29.442
 Vibrational             55.459             23.431             19.177
 Vibration     1          0.600              1.963              3.899
 Vibration     2          0.611              1.925              2.967
 Vibration     3          0.617              1.907              2.720
 Vibration     4          0.656              1.783              1.818
 Vibration     5          0.716              1.607              1.240
 Vibration     6          0.737              1.549              1.111
 Vibration     7          0.791              1.405              0.859
 Vibration     8          0.802              1.377              0.818
 Vibration     9          0.840              1.286              0.700
 Vibration    10          0.851              1.261              0.670
 Vibration    11          0.970              1.008              0.431

 Optimization completed.
    -- Stationary point found.
 Normal termination of Gaussian 16 at Sat Feb 10 10:12:42 2024.
