 Q-Chem 5.4, Q-Chem, Inc., Pleasanton, CA (2021)
 Q-Chem 5.4.0 for Intel X86 EM64T Linux

User input:
--------------------------------------------------------------
$molecule
-2 1
C                 -2.3182210000     -2.3047810000      5.0470880000
C                 -1.3621410000     -3.2331690000      4.5136980000
C                 -1.3290430000     -3.5024040000      3.1389410000
C                 -2.2075660000     -2.8976640000      2.1748980000
C                 -3.1669520000     -1.9807900000      2.7255930000
C                 -3.2270780000     -1.7023690000      4.0856570000
O                 -2.4094130000     -1.9638320000      6.3023200000
O                 -2.1358370000     -3.1610050000      0.9160540000
N                 -4.1505670000     -0.8339950000      4.6792470000
C                 -4.8544100000      0.2196600000      3.9819680000
C                 -6.1795920000     -0.2817030000      3.3711670000
C                 -5.1204480000      1.3835460000      4.9462150000
H                 -3.8474230000     -1.5056420000      2.0244230000
H                 -3.8587710000     -0.6608910000      5.6380880000
H                 -4.2299790000      0.5941100000      3.1519970000
H                 -6.6587220000      0.5029610000      2.7689710000
H                 -6.8718880000     -0.5747130000      4.1684900000
H                 -6.0058290000     -1.1527260000      2.7353880000
H                 -5.7307460000      2.1612520000      4.4801200000
H                 -4.1832830000      1.8399640000      5.2828700000
H                 -5.6629670000      1.0268980000      5.8307960000
C                 -0.3820570000     -3.9135670000      5.4923630000
C                 -1.1790160000     -4.7084020000      6.5559360000
C                  0.5828040000     -4.8952050000      4.7993650000
C                  0.4738910000     -2.8365400000      6.2044060000
H                 -0.6116820000     -4.2035330000      2.7247880000
H                 -1.8802550000     -4.0385890000      7.0571920000
H                 -0.5019010000     -5.1565680000      7.2999660000
H                 -1.7429910000     -5.5167960000      6.0766870000
H                  1.2479210000     -5.3447770000      5.5491980000
H                  1.2041910000     -4.3915520000      4.0526000000
H                  0.0437590000     -5.7029320000      4.2949550000
H                 -0.1857970000     -2.1239480000      6.7028240000
H                  1.0873410000     -2.2989850000      5.4723880000
H                  1.1471450000     -3.2969450000      6.9447270000
$end
$rem
MAX_SCF_CYCLES=200
BASIS  =  6-311++G(d,p)
GUI  =  2
JOB_TYPE  =  SP
METHOD  =  B3LYP
SOLVENT_METHOD = COSMO
$end
$solvent
dielectric 37.219
opticaldielectric 1.43
$end

--------------------------------------------------------------

             Standard Nuclear Orientation (Angstroms)
    I     Atom           X                Y                Z
 ----------------------------------------------------------------
    1      C      -0.2631054377    -0.6300603408     0.0784901876
    2      C      -1.4631901820     0.1536950413     0.0008870667
    3      C      -1.3908208298     1.5495402111    -0.0987056575
    4      C      -0.1622028402     2.2952181049    -0.1355071427
    5      C       1.0295979498     1.4979812900    -0.0440262724
    6      C       0.9860803122     0.1133102609     0.0641394780
    7      O      -0.2230447358    -1.9318066359     0.1419038988
    8      O      -0.1374889887     3.5786364659    -0.2423167136
    9      N       2.1117925078    -0.7111665615     0.1748844423
   10      C       3.4450980540    -0.3436586410    -0.2482184772
   11      C       4.2301160423     0.3627533703     0.8766276816
   12      C       4.1980001738    -1.5965357953    -0.7157827503
   13      H       1.9766334855     2.0299355797    -0.0684004496
   14      H       1.8176900008    -1.6760455997     0.0445076013
   15      H       3.3822391411     0.3590181315    -1.0974963161
   16      H       5.2057688990     0.7167654625     0.5151306359
   17      H       4.4018877467    -0.3321260709     1.7063804289
   18      H       3.6687114739     1.2175392923     1.2603665534
   19      H       5.2401537707    -1.3732637863    -0.9578577611
   20      H       3.7265688712    -2.0327872599    -1.6031211320
   21      H       4.2006105200    -2.3554141618     0.0767480175
   22      C      -2.8185665124    -0.5835730258     0.0270034958
   23      C      -2.9416819711    -1.3966581380     1.3391883286
   24      C      -4.0279751436     0.3684072163    -0.0496810640
   25      C      -2.9064909165    -1.5536839128    -1.1774854155
   26      H      -2.2914383605     2.1522582190    -0.1564157336
   27      H      -2.0901128311    -2.0741392501     1.4257476154
   28      H      -3.8773675635    -1.9773166465     1.3548821535
   29      H      -2.9448738280    -0.7203926160     2.2016864560
   30      H      -4.9567690096    -0.2176118062    -0.0238200052
   31      H      -4.0222960506     0.9552875009    -0.9732531472
   32      H      -4.0443633126     1.0690242985     0.7907289541
   33      H      -2.0579433127    -2.2396900340    -1.1499411881
   34      H      -2.8761309437    -0.9904849452    -2.1171778268
   35      H      -3.8463986479    -2.1274428642    -1.1511601854
 ----------------------------------------------------------------

   14    -712.1875299045      6.04e-06  Convergence criterion met
 Total energy in the final basis set =     -712.1875299045
    5    -712.4700533967      8.81e-06  Convergence criterion met
 Total energy in the final basis set =     -712.4700533967

                    Orbital Energies (a.u.)
 --------------------------------------------------------------

 Alpha MOs
 -- Occupied --
-19.0160 -19.0105 -14.2789 -10.1894 -10.1636 -10.1583 -10.1551 -10.1545
-10.1489 -10.1431 -10.1358 -10.1293 -10.1293 -10.1221 -10.1089 -10.1027
 -0.9341  -0.9300  -0.8878  -0.7961  -0.7684  -0.7379  -0.6803  -0.6710
 -0.6622  -0.6580  -0.6296  -0.5876  -0.5515  -0.5327  -0.4950  -0.4659
 -0.4553  -0.4351  -0.4252  -0.4203  -0.4146  -0.4132  -0.3931  -0.3867
 -0.3773  -0.3729  -0.3682  -0.3591  -0.3546  -0.3479  -0.3433  -0.3350
 -0.3334  -0.3252  -0.3185  -0.3099  -0.3043  -0.3013  -0.2916  -0.2556
 -0.2158  -0.1977  -0.1897  -0.1740  -0.1062

          Ground-State Mulliken Net Atomic Charges

     Atom                 Charge (a.u.)
  ----------------------------------------
      1 C                    -1.579785
      2 C                     0.923306
      3 C                    -0.474029
      4 C                    -0.447678
      5 C                     0.867847
      6 C                    -0.346577
      7 O                    -0.704598
      8 O                    -0.786098
      9 N                    -0.099499
     10 C                     0.022271
     11 C                    -0.442932
     12 C                    -0.683287
     13 H                     0.152334
     14 H                     0.341094
     15 H                     0.135366
     16 H                     0.135451
     17 H                     0.141687
     18 H                     0.142182
     19 H                     0.158581
     20 H                     0.158829
     21 H                     0.145624
     22 C                     0.698298
     23 C                    -0.688116
     24 C                    -0.507200
     25 C                    -0.686103
     26 H                     0.127497
     27 H                     0.176250
     28 H                     0.132244
     29 H                     0.126220
     30 H                     0.164513
     31 H                     0.129448
     32 H                     0.130286
     33 H                     0.180264
     34 H                     0.123430
     35 H                     0.132881
  ----------------------------------------
  Sum of atomic charges =    -2.000000

                    Cartesian Multipole Moments
 -----------------------------------------------------------------
    Charge (ESU x 10^10)
                -9.6064
    Dipole Moment (Debye)
         X       3.1823      Y      -9.5979      Z      -0.4226
       Tot      10.1205
    Quadrupole Moments (Debye-Ang)
        XX    -113.8780     XY      -0.6677     YY    -180.0720
        XZ      -2.6729     YZ       5.4558     ZZ    -113.1895

 Total job time:  177.07s(wall), 749.57s(cpu)
        *  Thank you very much for using Q-Chem.  Have a nice day.  *
