 Q-Chem 5.4, Q-Chem, Inc., Pleasanton, CA (2021)
 Q-Chem 5.4.0 for Intel X86 EM64T Linux

User input:
--------------------------------------------------------------
$molecule
0 1
C                 -3.4246530000      3.6025260000      0.0655600000
C                 -4.6081810000      2.8557760000      0.0258220000
C                 -4.6130620000      1.4641980000      0.0532920000
C                 -2.1966980000      2.8948040000      0.1222210000
C                 -2.2106460000      1.4842090000      0.1367920000
C                 -3.4117480000      0.7744990000      0.1103670000
C                 -0.8888630000      3.6208450000      0.1932920000
C                  0.3853670000      2.8436630000      0.0706730000
C                  0.3438940000      1.4335910000      0.0853630000
C                 -0.9472530000      0.6954460000      0.1734170000
C                  1.6372580000      3.5021220000     -0.0355280000
C                  2.7876130000      2.7089880000     -0.1225010000
C                  2.7383090000      1.3182920000     -0.0946960000
C                  1.5138220000      0.6767850000      0.0109870000
O                 -0.8617470000      4.8327540000      0.3563980000
O                 -0.9697970000     -0.5232680000      0.2522750000
C                 -3.5462810000      5.1069920000      0.0364060000
H                 -5.5519200000      3.3880390000     -0.0262640000
H                 -5.5534640000      0.9252580000      0.0268840000
H                 -3.3737980000     -0.3070080000      0.1308110000
C                  1.8175490000      5.0005710000     -0.0702370000
H                  1.4337900000     -0.4023830000      0.0335310000
H                  3.7488980000      3.2034230000     -0.2126750000
H                  3.6547340000      0.7424660000     -0.1587190000
H                 -4.5921090000      5.3878490000     -0.1052790000
H                 -2.9506330000      5.5486340000     -0.7641880000
H                 -3.1825400000      5.5563980000      0.9621750000
H                  1.2089730000      5.4664020000     -0.8470620000
H                  2.8673700000      5.2395830000     -0.2531800000
H                  1.5087270000      5.4632350000      0.8688310000
$end
$rem
MAX_SCF_CYCLES=200
BASIS  =  6-311++G(d,p)
GUI  =  2
JOB_TYPE  =  SP
METHOD  =  B3LYP
SOLVENT_METHOD = PCM
$end
$pcm
theory = CPCM
$end
$solvent
dielectric 37.219
opticaldielectric 1.43
$end

--------------------------------------------------------------

             Standard Nuclear Orientation (Angstroms)
    I     Atom           X                Y                Z
 ----------------------------------------------------------------
    1      C      -3.4246530000     3.6025260000     0.0655600000
    2      C      -4.6081810000     2.8557760000     0.0258220000
    3      C      -4.6130620000     1.4641980000     0.0532920000
    4      C      -2.1966980000     2.8948040000     0.1222210000
    5      C      -2.2106460000     1.4842090000     0.1367920000
    6      C      -3.4117480000     0.7744990000     0.1103670000
    7      C      -0.8888630000     3.6208450000     0.1932920000
    8      C       0.3853670000     2.8436630000     0.0706730000
    9      C       0.3438940000     1.4335910000     0.0853630000
   10      C      -0.9472530000     0.6954460000     0.1734170000
   11      C       1.6372580000     3.5021220000    -0.0355280000
   12      C       2.7876130000     2.7089880000    -0.1225010000
   13      C       2.7383090000     1.3182920000    -0.0946960000
   14      C       1.5138220000     0.6767850000     0.0109870000
   15      O      -0.8617470000     4.8327540000     0.3563980000
   16      O      -0.9697970000    -0.5232680000     0.2522750000
   17      C      -3.5462810000     5.1069920000     0.0364060000
   18      H      -5.5519200000     3.3880390000    -0.0262640000
   19      H      -5.5534640000     0.9252580000     0.0268840000
   20      H      -3.3737980000    -0.3070080000     0.1308110000
   21      C       1.8175490000     5.0005710000    -0.0702370000
   22      H       1.4337900000    -0.4023830000     0.0335310000
   23      H       3.7488980000     3.2034230000    -0.2126750000
   24      H       3.6547340000     0.7424660000    -0.1587190000
   25      H      -4.5921090000     5.3878490000    -0.1052790000
   26      H      -2.9506330000     5.5486340000    -0.7641880000
   27      H      -3.1825400000     5.5563980000     0.9621750000
   28      H       1.2089730000     5.4664020000    -0.8470620000
   29      H       2.8673700000     5.2395830000    -0.2531800000
   30      H       1.5087270000     5.4632350000     0.8688310000
 ----------------------------------------------------------------

    8    -767.6113100023      9.70e-06  Convergence criterion met
 Total energy in the final basis set =     -767.6113100023

                    Orbital Energies (a.u.)
 --------------------------------------------------------------

 Alpha MOs
 -- Occupied --
-19.1275 -19.1228 -10.2794 -10.2792 -10.2083 -10.2083 -10.2064 -10.2064
-10.2036 -10.2036 -10.1924 -10.1924 -10.1904 -10.1903 -10.1897 -10.1897
-10.1651 -10.1650  -1.0637  -1.0602  -0.8903  -0.8799  -0.8102  -0.7927
 -0.7902  -0.7652  -0.7129  -0.6978  -0.6771  -0.6485  -0.6402  -0.5911
 -0.5688  -0.5519  -0.5466  -0.4993  -0.4889  -0.4831  -0.4830  -0.4578
 -0.4567  -0.4452  -0.4391  -0.4277  -0.4248  -0.4239  -0.4227  -0.3984
 -0.3930  -0.3916  -0.3748  -0.3735  -0.3708  -0.3670  -0.3615  -0.3589
 -0.2857  -0.2823  -0.2722  -0.2660  -0.2655  -0.2638

          Ground-State Mulliken Net Atomic Charges

     Atom                 Charge (a.u.)
  ----------------------------------------
      1 C                     0.603783
      2 C                    -0.563896
      3 C                    -0.355144
      4 C                     0.330217
      5 C                     0.409185
      6 C                     0.081711
      7 C                    -0.986728
      8 C                     0.327658
      9 C                     0.408096
     10 C                    -0.758175
     11 C                     0.604590
     12 C                    -0.563951
     13 C                    -0.355774
     14 C                     0.083663
     15 O                    -0.236391
     16 O                    -0.286313
     17 C                    -0.493720
     18 H                     0.166955
     19 H                     0.235395
     20 H                     0.189949
     21 C                    -0.492807
     22 H                     0.189785
     23 H                     0.166955
     24 H                     0.235488
     25 H                     0.171542
     26 H                     0.171181
     27 H                     0.186845
     28 H                     0.171291
     29 H                     0.171623
     30 H                     0.186987
  ----------------------------------------
  Sum of atomic charges =     0.000000

                    Cartesian Multipole Moments
 -----------------------------------------------------------------
    Charge (ESU x 10^10)
                 0.0000
    Dipole Moment (Debye)
         X       0.0147      Y       1.6277      Z      -0.9228
       Tot       1.8711
    Quadrupole Moments (Debye-Ang)
        XX     -73.4478     XY      -2.2889     YY    -107.4038
        XZ       0.1505     YZ      -2.6608     ZZ    -107.5935

 Total job time:  52.83s(wall), 363.10s(cpu)
        *  Thank you very much for using Q-Chem.  Have a nice day.  *
