 Q-Chem 5.4, Q-Chem, Inc., Pleasanton, CA (2021)
 Q-Chem 5.4.0 for Intel X86 EM64T Linux

User input:
--------------------------------------------------------------
$molecule
0 1
O                  2.5771110000      2.5232570000     -0.2079950000
C                  2.4608900000      1.2095770000      0.0174560000
C                  3.6349230000      0.4787910000      0.2615810000
C                  3.5702760000     -0.8827620000      0.5008650000
C                  2.3429290000     -1.5550980000      0.5045720000
C                  1.1719050000     -0.8500230000      0.2652700000
C                 -0.1263700000     -1.5891110000      0.2738510000
O                 -0.1729930000     -2.7893890000      0.4870560000
C                 -1.3679170000     -0.8032680000      0.0136720000
C                 -2.6024080000     -1.4584020000      0.0136570000
C                 -3.7714340000     -0.7455220000     -0.2265470000
C                 -3.7176040000      0.6298110000     -0.4691890000
C                 -2.4948700000      1.2904630000     -0.4713600000
C                 -1.3142220000      0.5802850000     -0.2304940000
C                 -0.0174350000      1.3041050000     -0.2370640000
O                  0.0142180000      2.5242490000     -0.4540680000
C                  1.2095400000      0.5444270000      0.0175140000
H                  1.6663920000      2.8755090000     -0.3583320000
H                  4.5783200000      1.0110010000      0.2560040000
H                  4.4846610000     -1.4344980000      0.6878980000
H                  2.2831260000     -2.6193660000      0.6907030000
H                 -2.6208410000     -2.5243330000      0.2038600000
H                 -4.7265650000     -1.2582580000     -0.2255210000
H                 -4.6306350000      1.1833650000     -0.6562190000
H                 -2.4309990000      2.3551890000     -0.6571730000
$end
$rem
MAX_SCF_CYCLES=200
BASIS  =  6-311++G(d,p)
GUI  =  2
JOB_TYPE  =  SP
METHOD  =  B3LYP
SOLVENT_METHOD = COSMO
$end
$solvent
dielectric 37.219
opticaldielectric 1.43
$end

--------------------------------------------------------------

             Standard Nuclear Orientation (Angstroms)
    I     Atom           X                Y                Z
 ----------------------------------------------------------------
    1      O       2.7224889386    -2.2004323822    -0.0003138503
    2      C       2.4716444139    -0.8862149128    -0.0000239481
    3      C       3.5677879964    -0.0084518897    -0.0000044281
    4      C       3.3634962296     1.3603167219     0.0000264133
    5      C       2.0700958011     1.8946812294     0.0000692156
    6      C       0.9743065259     1.0432475741     0.0001486529
    7      C      -0.3967309505     1.6366266709     0.0005569756
    8      O      -0.5663891149     2.8447293053    -0.0006618895
    9      C      -1.5545465795     0.6952743810     0.0002085434
   10      C      -2.8533027095     1.2114149644     0.0001891062
   11      C      -3.9462742418     0.3523859648    -0.0000391947
   12      C      -3.7513463269    -1.0315637243    -0.0002288309
   13      C      -2.4637569074    -1.5546867431    -0.0001450340
   14      C      -1.3589114723    -0.6970064711     0.0000472422
   15      C       0.0090296520    -1.2752383703     0.0002263681
   16      O       0.1658838215    -2.5049703728     0.0002538442
   17      C       1.1550330351    -0.3619670553     0.0000734938
   18      H       1.8501772342    -2.6642900702    -0.0006568888
   19      H       4.5635440444    -0.4347691101    -0.0000891652
   20      H       4.2190104710     2.0263416966     0.0000011630
   21      H       1.9011595109     2.9634880650     0.0001126191
   22      H      -2.9811541663     2.2867659800     0.0004164237
   23      H      -4.9517300758     0.7576427368    -0.0000363051
   24      H      -4.6053083258    -1.6992288602    -0.0004007186
   25      H      -2.2907146504    -2.6234728794    -0.0001994133
 ----------------------------------------------------------------

    9    -764.2130127954      3.54e-06  Convergence criterion met
 Total energy in the final basis set =     -764.2130127954
    5    -764.2271614678      2.71e-06  Convergence criterion met
 Total energy in the final basis set =     -764.2271614678

                    Orbital Energies (a.u.)
 --------------------------------------------------------------

 Alpha MOs
 -- Occupied --
-19.1657 -19.1418 -19.1333 -10.2912 -10.2858 -10.2686 -10.2118 -10.2107
-10.2096 -10.2093 -10.2014 -10.1981 -10.1978 -10.1973 -10.1970 -10.1947
-10.1934  -1.0948  -1.0688  -1.0645  -0.8953  -0.8804  -0.8152  -0.7806
 -0.7739  -0.7706  -0.6956  -0.6697  -0.6565  -0.6204  -0.6001  -0.5653
 -0.5607  -0.5407  -0.5099  -0.4962  -0.4869  -0.4773  -0.4657  -0.4656
 -0.4522  -0.4507  -0.4454  -0.4320  -0.4185  -0.4147  -0.3951  -0.3861
 -0.3813  -0.3777  -0.3683  -0.3585  -0.2972  -0.2939  -0.2800  -0.2798
 -0.2781  -0.2524

          Ground-State Mulliken Net Atomic Charges

     Atom                 Charge (a.u.)
  ----------------------------------------
      1 O                    -0.324460
      2 C                    -0.097799
      3 C                    -0.176690
      4 C                    -0.363471
      5 C                    -0.031724
      6 C                     0.472247
      7 C                    -0.420758
      8 O                    -0.298100
      9 C                    -0.062508
     10 C                     0.134023
     11 C                    -0.419189
     12 C                    -0.426085
     13 C                     0.169909
     14 C                     0.173897
     15 C                    -0.334174
     16 O                    -0.338468
     17 C                     0.456250
     18 H                     0.359630
     19 H                     0.234999
     20 H                     0.239344
     21 H                     0.193242
     22 H                     0.198815
     23 H                     0.228118
     24 H                     0.226688
     25 H                     0.206260
  ----------------------------------------
  Sum of atomic charges =     0.000000

                    Cartesian Multipole Moments
 -----------------------------------------------------------------
    Charge (ESU x 10^10)
                 0.0000
    Dipole Moment (Debye)
         X      -1.7396      Y       0.1655      Z       0.0010
       Tot       1.7474
    Quadrupole Moments (Debye-Ang)
        XX     -70.8019     XY      11.6962     YY    -109.4469
        XZ      -0.0017     YZ       0.0105     ZZ     -99.8173

 Total job time:  64.36s(wall), 384.66s(cpu)
        *  Thank you very much for using Q-Chem.  Have a nice day.  *
