 Q-Chem 5.4, Q-Chem, Inc., Pleasanton, CA (2021)
 Q-Chem 5.4.0 for Intel X86 EM64T Linux

User input:
--------------------------------------------------------------
$molecule
-1 2
Cl                 2.6393510000      3.1908290000     -0.5199480000
C                  2.4858320000      1.4525520000     -0.2082550000
C                  3.6866010000      0.7867280000     -0.0609760000
C                  3.6977400000     -0.5960380000      0.1899350000
C                  2.5066150000     -1.2792790000      0.2874560000
C                  1.2702030000     -0.6186640000      0.1403260000
C                  0.0652420000     -1.4600940000      0.2661560000
O                  0.1833100000     -2.6845040000      0.4907220000
C                 -1.2289630000     -0.7907270000      0.1161030000
C                 -2.4857380000     -1.4525140000      0.2082480000
Cl                -2.6388810000     -3.1908500000      0.5199580000
C                 -3.6865770000     -0.7867960000      0.0609940000
C                 -3.6978000000      0.5959610000     -0.1899160000
C                 -2.5067130000      1.2792940000     -0.2874610000
C                 -1.2702500000      0.6187470000     -0.1403500000
C                 -0.0653040000      1.4601830000     -0.2661890000
O                 -0.1835380000      2.6845720000     -0.4907380000
C                  1.2289640000      0.7908420000     -0.1161330000
H                  4.6120450000      1.3433740000     -0.1413930000
H                  4.6450960000     -1.1129550000      0.3045900000
H                  2.4729780000     -2.3441410000      0.4797310000
H                 -4.6119620000     -1.3435350000      0.1414340000
H                 -4.6451690000      1.1128580000     -0.3045610000
H                 -2.4730810000      2.3441550000     -0.4797340000
$end
$rem
MAX_SCF_CYCLES=200
BASIS  =  6-311++G(d,p)
GUI  =  2
JOB_TYPE  =  SP
METHOD  =  B3LYP
SOLVENT_METHOD = COSMO
$end
$solvent
dielectric 37.219
opticaldielectric 1.43
$end

--------------------------------------------------------------

             Standard Nuclear Orientation (Angstroms)
    I     Atom           X                Y                Z
 ----------------------------------------------------------------
    1      Cl      3.9678397703    -1.2937962365    -0.0000171766
    2      C       2.8845238503     0.1093267643     0.0000015485
    3      C       3.5270653329     1.3316194203     0.0000206915
    4      C       2.7771877758     2.5202345252     0.0000225087
    5      C       1.4020151991     2.4569276758    -0.0000256982
    6      C       0.7266895393     1.2197093031    -0.0000391959
    7      C      -0.7469506453     1.2841550299    -0.0000275737
    8      O      -1.3201061498     2.3954797154    -0.0000188233
    9      C      -1.4659873372     0.0080198884     0.0000142660
   10      C      -2.8844950099    -0.1093347770    -0.0000018652
   11      Cl     -3.9675274905     1.2940427905     0.0000188513
   12      C      -3.5271540373    -1.3315736545    -0.0000282239
   13      C      -2.7773520414    -2.5202265356    -0.0000312503
   14      C      -1.4021603465    -2.4570200748     0.0000233318
   15      C      -0.7267539213    -1.2198333887     0.0000445052
   16      C       0.7468775579    -1.2842936281     0.0000403397
   17      O       1.3198808433    -2.3956878830     0.0000149936
   18      C       1.4659809232    -0.0081454467    -0.0000077148
   19      H       4.6096698396     1.3587439879     0.0000293316
   20      H       3.2887341594     3.4773931540     0.0000582490
   21      H       0.7890967694     3.3493195183    -0.0000092168
   22      H      -4.6097604517    -1.3585858266    -0.0000416195
   23      H      -3.2889208425    -3.4773740513    -0.0000735446
   24      H      -0.7892468147    -3.3494134687     0.0000049523
 ----------------------------------------------------------------

    9   -1608.2492151934      8.61e-06  Convergence criterion met
 Total energy in the final basis set =    -1608.2492151934
    5   -1608.3265480954      3.70e-06  Convergence criterion met
 Total energy in the final basis set =    -1608.3265480954

                    Orbital Energies (a.u.)
 --------------------------------------------------------------

 Alpha MOs
 -- Occupied --
********-101.5484 -19.0814 -19.0813 -10.2401 -10.2401 -10.2363 -10.2363
-10.1930 -10.1930 -10.1843 -10.1843 -10.1822 -10.1822 -10.1792 -10.1792
-10.1732 -10.1731  -9.4633  -9.4633  -7.2278  -7.2278  -7.2186  -7.2186
 -7.2173  -7.2173  -1.0156  -1.0131  -0.8902  -0.8880  -0.8436  -0.8320
 -0.7929  -0.7519  -0.7438  -0.7370  -0.6736  -0.6453  -0.6315  -0.5841
 -0.5544  -0.5495  -0.5294  -0.4835  -0.4769  -0.4694  -0.4689  -0.4360
 -0.4348  -0.4331  -0.4263  -0.4220  -0.4157  -0.4004  -0.3876  -0.3856
 -0.3687  -0.3633  -0.3598  -0.3512  -0.3325  -0.3306  -0.3191  -0.3152
 -0.2775  -0.2597  -0.2549  -0.2525  -0.2479  -0.2362  -0.1480

 Beta MOs
 -- Occupied --
********-101.5484 -19.0757 -19.0757 -10.2399 -10.2399 -10.2347 -10.2347
-10.1924 -10.1923 -10.1834 -10.1833 -10.1818 -10.1818 -10.1785 -10.1785
-10.1732 -10.1732  -9.4633  -9.4633  -7.2278  -7.2278  -7.2185  -7.2185
 -7.2173  -7.2173  -1.0060  -1.0033  -0.8886  -0.8872  -0.8418  -0.8312
 -0.7893  -0.7499  -0.7409  -0.7358  -0.6668  -0.6433  -0.6289  -0.5832
 -0.5520  -0.5470  -0.5281  -0.4810  -0.4756  -0.4688  -0.4672  -0.4341
 -0.4328  -0.4248  -0.4246  -0.4168  -0.4128  -0.3950  -0.3842  -0.3685
 -0.3630  -0.3600  -0.3585  -0.3497  -0.3262  -0.3258  -0.3183  -0.3147
 -0.2583  -0.2542  -0.2478  -0.2463  -0.2430  -0.2314

          Ground-State Mulliken Net Atomic Charges

     Atom                 Charge (a.u.)    Spin (a.u.)
  --------------------------------------------------------
      1 Cl                    0.349139       0.000561
      2 C                     0.878466       0.035082
      3 C                    -0.133629       0.032974
      4 C                    -0.659267       0.048534
      5 C                     0.479662       0.027958
      6 C                     0.219943       0.054307
      7 C                    -1.739325       0.077468
      8 O                    -0.353518       0.206008
      9 C                    -0.165790       0.024702
     10 C                     0.878216       0.035142
     11 Cl                    0.349212       0.000568
     12 C                    -0.134132       0.032897
     13 C                    -0.658684       0.048585
     14 C                     0.479423       0.027893
     15 C                     0.219748       0.054402
     16 C                    -1.739655       0.077238
     17 O                    -0.353024       0.206121
     18 C                    -0.166087       0.024849
     19 H                     0.224531      -0.002586
     20 H                     0.210458      -0.003790
     21 H                     0.189697      -0.001268
     22 H                     0.224491      -0.002583
     23 H                     0.210492      -0.003793
     24 H                     0.189632      -0.001268
  --------------------------------------------------------
  Sum of atomic charges =    -1.000000

                    Cartesian Multipole Moments
 -----------------------------------------------------------------
    Charge (ESU x 10^10)
                -4.8032
    Dipole Moment (Debye)
         X       0.0023      Y      -0.0028      Z       0.0001
       Tot       0.0036
    Quadrupole Moments (Debye-Ang)
        XX    -136.9028     XY      29.4820     YY    -139.2771
        XZ       0.0012     YZ       0.0005     ZZ    -123.0990

 Total job time:  95.83s(wall), 621.77s(cpu)
        *  Thank you very much for using Q-Chem.  Have a nice day.  *
