 Q-Chem 5.4, Q-Chem, Inc., Pleasanton, CA (2021)
 Q-Chem 5.4.0 for Intel X86 EM64T Linux

User input:
--------------------------------------------------------------
$molecule
0 1
C                 -4.8495050000     -0.3363170000     -3.9313510000
C                 -4.2356070000     -1.3701810000     -4.6370780000
C                 -3.0913440000     -1.9897820000     -4.1205850000
C                 -4.3139600000      0.0724450000     -2.7103720000
C                 -3.1684220000     -0.5408290000     -2.1832940000
C                 -2.5665920000     -1.5747720000     -2.9049810000
C                 -4.9585990000      1.1659850000     -1.9563230000
C                 -4.3610040000      1.5688340000     -0.6536650000
C                 -3.2489980000      0.9967030000     -0.1314630000
C                 -2.5915420000     -0.1040030000     -0.8751720000
O                 -5.9590570000      1.7619910000     -2.3405370000
O                 -1.5894730000     -0.6464960000     -0.4284450000
O                 -5.0196890000      2.5641840000     -0.0338570000
O                 -4.7015070000     -1.8221520000     -5.8337340000
C                 -2.6725900000      1.4140880000      1.1915470000
C                 -3.2077090000      0.5707920000      2.3692260000
C                 -2.6113250000      0.9966750000      3.7146690000
C                 -3.1305930000      0.1711360000      4.8972220000
C                 -2.5394130000      0.5948190000      6.2466660000
C                 -3.0542930000     -0.2330130000      7.4295850000
C                 -2.4635150000      0.1897850000      8.7794070000
C                 -2.9765590000     -0.6395210000      9.9621590000
C                 -2.3863870000     -0.2169540000     11.3121050000
C                 -2.8981090000     -1.0462920000     12.4954450000
C                 -2.3033270000     -0.6162400000     13.8396330000
H                 -5.7368350000      0.1600890000     -4.3102330000
H                 -2.6316720000     -2.7908960000     -4.6865530000
H                 -1.6818910000     -2.0455490000     -2.4945250000
H                 -5.7623010000      2.8039970000     -0.6190540000
H                 -5.4867460000     -1.3280210000     -6.0938990000
H                 -2.9048660000      2.4675510000      1.3673740000
H                 -1.5861140000      1.3064860000      1.1452100000
H                 -2.9793920000     -0.4841180000      2.1842440000
H                 -4.2994250000      0.6588050000      2.4070870000
H                 -2.8311740000      2.0578850000      3.8890250000
H                 -1.5181040000      0.9142150000      3.6670310000
H                 -2.9088840000     -0.8894390000      4.7221330000
H                 -4.2246020000      0.2499420000      4.9409930000
H                 -2.7629440000      1.6551020000      6.4225560000
H                 -1.4452660000      0.5190150000      6.2014790000
H                 -2.8303930000     -1.2931230000      7.2532070000
H                 -4.1486100000     -0.1579030000      7.4744590000
H                 -2.6884200000      1.2496140000      8.9564500000
H                 -1.3691810000      0.1159360000      8.7339570000
H                 -2.7511960000     -1.6992780000      9.7851560000
H                 -4.0709980000     -0.5661290000     10.0074210000
H                 -2.6120410000      0.8426590000     11.4905130000
H                 -1.2917490000     -0.2898160000     11.2677960000
H                 -2.6717680000     -2.1048510000     12.3182210000
H                 -3.9916810000     -0.9735820000     12.5403370000
H                 -1.2127590000     -0.7111660000     13.8381210000
H                 -2.6881310000     -1.2266660000     14.6614500000
H                 -2.5426970000      0.4285770000     14.0619490000
$end
$rem
MAX_SCF_CYCLES=200
SCF_Guess=core
BASIS  =  6-311++G(d,p)
GUI  =  2
JOB_TYPE  =  SP
METHOD  =  B3LYP
THRESH = 14
SCF_CONVERGENCE = 8
SOLVENT_METHOD = COSMO
$end
$solvent
dielectric 37.219
opticaldielectric 1.43
$end

--------------------------------------------------------------

             Standard Nuclear Orientation (Angstroms)
    I     Atom           X                Y                Z
 ----------------------------------------------------------------
    1      C       6.4219962408    -0.0631642735     0.8854516053
    2      C       7.0581116787     1.1747552280     0.8035456771
    3      C       6.4229982611     2.2496782230     0.1701581709
    4      C       5.1514495615    -0.2187637113     0.3321122079
    5      C       4.5056797069     0.8507326472    -0.3045449689
    6      C       5.1589428728     2.0836159390    -0.3774533151
    7      C       4.4705759394    -1.5262251361     0.4153876521
    8      C       3.1122371236    -1.6504225919    -0.1811151722
    9      C       2.4748917504    -0.6329295567    -0.8096730077
   10      C       3.1441221401     0.6865265696    -0.8995138856
   11      O       4.9589160610    -2.5167579802     0.9484245832
   12      O       2.5934840157     1.6280711135    -1.4547593052
   13      O       2.5662741626    -2.8724289911    -0.0493035107
   14      O       8.2970720966     1.4009300940     1.3204094791
   15      C       1.0985673368    -0.7812775327    -1.3932275187
   16      C      -0.0163905396    -0.3754286612    -0.4050049010
   17      C      -1.4171310133    -0.5224941619    -1.0079683618
   18      C      -2.5386020229    -0.1245051807    -0.0417939265
   19      C      -3.9427715604    -0.2724391697    -0.6388061801
   20      C      -5.0650724722     0.1296854789     0.3247502663
   21      C      -6.4695758996    -0.0176983679    -0.2714412718
   22      C      -7.5919060431     0.3866205004     0.6912456881
   23      C      -8.9964687740     0.2391317901     0.0957033493
   24      C     -10.1195235738     0.6440992224     1.0573185397
   25      C     -11.5188438483     0.4926902581     0.4535554864
   26      H       6.8929953921    -0.9117044167     1.3706983884
   27      H       6.9366146099     3.2020225359     0.1187741126
   28      H       4.6568418384     2.9069302974    -0.8702504231
   29      H       3.2269456368    -3.4158485047     0.4193614250
   30      H       8.6392130272     0.5984150177     1.7295068948
   31      H       0.9489908106    -1.8198925883    -1.6990987262
   32      H       1.0295667579    -0.1495644331    -2.2822342040
   33      H       0.1427076989     0.6629761191    -0.0958360739
   34      H       0.0615805393    -0.9922669284     0.4974665008
   35      H      -1.5665552922    -1.5616292872    -1.3285472723
   36      H      -1.4855357770     0.0907833653    -1.9153892391
   37      H      -2.3886453446     0.9150347649     0.2767968227
   38      H      -2.4662709147    -0.7347933421     0.8677656093
   39      H      -4.0933320586    -1.3126666335    -0.9556054860
   40      H      -4.0137073084     0.3353855132    -1.5501036307
   41      H      -4.9140656653     1.1699705993     0.6411004416
   42      H      -4.9938079323    -0.4776038286     1.2365100739
   43      H      -6.6211377666    -1.0582704181    -0.5867233691
   44      H      -6.5402686672     0.5885349460    -1.1838940008
   45      H      -7.4404323865     1.4273537839     1.0061002684
   46      H      -7.5210155099    -0.2192578038     1.6039985418
   47      H      -9.1493088251    -0.8016945189    -0.2186998397
   48      H      -9.0683276780     0.8445974658    -0.8173969316
   49      H      -9.9679329168     1.6842863208     1.3707141747
   50      H     -10.0483573324     0.0392603206     1.9696271629
   51      H     -11.6328426074     1.1130363391    -0.4411661558
   52      H     -12.2957014233     0.7893489869     1.1638815441
   53      H     -11.7139027828    -0.5443826399     0.1623566188
 ----------------------------------------------------------------

   45   -1118.3419693074      3.67e-09  Convergence criterion met
 Total energy in the final basis set =    -1118.3419693074
   11   -1118.3624956156      3.77e-09  Convergence criterion met
 Total energy in the final basis set =    -1118.3624956156

                    Orbital Energies (a.u.)
 --------------------------------------------------------------

 Alpha MOs
 -- Occupied --
-19.1771 -19.1735 -19.1509 -19.1280 -10.2950 -10.2800 -10.2659 -10.2640
-10.2143 -10.2034 -10.2034 -10.2013 -10.1997 -10.1959 -10.1748 -10.1659
-10.1597 -10.1586 -10.1578 -10.1569 -10.1566 -10.1565 -10.1563 -10.1562
-10.1521  -1.1075  -1.0859  -1.0678  -1.0619  -0.8922  -0.8429  -0.8113
 -0.8014  -0.7886  -0.7800  -0.7688  -0.7458  -0.7186  -0.6953  -0.6745
 -0.6641  -0.6404  -0.6214  -0.6112  -0.5903  -0.5834  -0.5769  -0.5711
 -0.5692  -0.5552  -0.5295  -0.5166  -0.5061  -0.4839  -0.4736  -0.4726
 -0.4701  -0.4593  -0.4554  -0.4482  -0.4462  -0.4362  -0.4299  -0.4289
 -0.4257  -0.4189  -0.4185  -0.4130  -0.4065  -0.3996  -0.3975  -0.3924
 -0.3803  -0.3766  -0.3745  -0.3695  -0.3565  -0.3537  -0.3474  -0.3390
 -0.3347  -0.3312  -0.3254  -0.3218  -0.3202  -0.3175  -0.3167  -0.3052
 -0.2972  -0.2874  -0.2789  -0.2673  -0.2478

          Ground-State Mulliken Net Atomic Charges

     Atom                 Charge (a.u.)
  ----------------------------------------
      1 C                     0.370400
      2 C                    -0.702012
      3 C                    -0.112153
      4 C                     0.832112
      5 C                    -0.498298
      6 C                     0.074355
      7 C                    -0.793147
      8 C                    -0.611388
      9 C                     1.933490
     10 C                    -0.680891
     11 O                    -0.327047
     12 O                    -0.305355
     13 O                    -0.242312
     14 O                    -0.271500
     15 C                    -0.300758
     16 C                    -0.895591
     17 C                    -0.350569
     18 C                    -0.022555
     19 C                     0.018926
     20 C                     0.041536
     21 C                    -0.055290
     22 C                    -0.312228
     23 C                    -0.503182
     24 C                    -0.299336
     25 C                    -0.709422
     26 H                     0.198400
     27 H                     0.249534
     28 H                     0.210885
     29 H                     0.324650
     30 H                     0.330119
     31 H                     0.239965
     32 H                     0.226335
     33 H                     0.186326
     34 H                     0.183668
     35 H                     0.125748
     36 H                     0.127053
     37 H                     0.133154
     38 H                     0.133324
     39 H                     0.138056
     40 H                     0.138357
     41 H                     0.134537
     42 H                     0.134892
     43 H                     0.133755
     44 H                     0.133607
     45 H                     0.132121
     46 H                     0.131946
     47 H                     0.129065
     48 H                     0.129029
     49 H                     0.136309
     50 H                     0.136077
     51 H                     0.145338
     52 H                     0.154619
     53 H                     0.145347
  ----------------------------------------
  Sum of atomic charges =     0.000000

                    Cartesian Multipole Moments
 -----------------------------------------------------------------
    Charge (ESU x 10^10)
                -0.0000
    Dipole Moment (Debye)
         X       2.9936      Y      -1.1513      Z       2.0391
       Tot       3.8006
    Quadrupole Moments (Debye-Ang)
        XX    -122.9169     XY      -2.6334     YY    -157.3530
        XZ       9.7827     YZ       1.6022     ZZ    -155.9809

 Total job time:  1053.17s(wall), 8228.37s(cpu)
        *  Thank you very much for using Q-Chem.  Have a nice day.  *
