 Gaussian 16, Revision A.03,
 Gaussian 16:  ES64L-G16RevA.03 25-Dec-2016

 ----------------------------------------------------------------
 #P UB3LYP/6-311++G(d,p) SCRF=(PCM,Solvent=n,n-DiMethylFormamide)
 ----------------------------------------------------------------

 ------------------
 Quinone PCM in DMF
 ------------------
 Symbolic Z-matrix:
 Charge =  0 Multiplicity = 1

                         Standard orientation:
 ---------------------------------------------------------------------
 Center     Atomic      Atomic             Coordinates (Angstroms)
 Number     Number       Type             X           Y           Z
 ---------------------------------------------------------------------
      1          6           0        4.536815    0.239594    0.146624
      2          6           0        5.192346   -0.984653    0.065234
      3          6           0        4.458520   -2.158756   -0.114382
      4          6           0        3.143529    0.287744    0.052680
      5          6           0        2.402876   -0.892167   -0.127073
      6          6           0        3.069695   -2.113073   -0.216466
      7          6           0        2.439624    1.579023    0.141020
      8          6           0        0.954860    1.585797    0.048680
      9          6           0        0.218686    0.446395   -0.088857
     10          6           0        0.904439   -0.867318   -0.251196
     11          8           0        3.000536    2.659430    0.292283
     12          8           0        0.291237   -1.884730   -0.510025
     13          8           0        0.398918    2.793254    0.164249
     14          1           0        5.084503    1.164312    0.280578
     15          1           0        6.272732   -1.025759    0.140825
     16          1           0        4.970751   -3.112190   -0.175748
     17          1           0        2.485931   -3.013374   -0.362119
     18          1           0        1.142270    3.420680    0.257002
     19          7           0       -1.171639    0.561142   -0.224856
     20          7           0       -1.844042   -0.307303    0.378491
     21          6           0       -3.245198   -0.233486    0.170317
     22          6           0       -3.881241    0.711888   -0.649192
     23          6           0       -3.997962   -1.195204    0.851929
     24          6           0       -5.383328   -1.217573    0.718456
     25          6           0       -6.016232   -0.279105   -0.094396
     26          6           0       -5.262579    0.683405   -0.775585
     27          1           0       -3.282370    1.449941   -1.166809
     28          1           0       -3.475689   -1.913044    1.473037
     29          1           0       -5.966680   -1.963970    1.245035
     30          1           0       -7.095223   -0.293730   -0.200447
     31          1           0       -5.761074    1.411561   -1.405626
 ---------------------------------------------------------------------

 SCF Done:  E(UB3LYP) =  -951.117038027     A.U. after   17 cycles

 The electronic state is 1-A.
 Alpha  occ. eigenvalues --  -19.19054 -19.15505 -19.13905 -14.38410 -14.38030
 Alpha  occ. eigenvalues --  -10.30007 -10.29414 -10.28202 -10.23885 -10.21995
 Alpha  occ. eigenvalues --  -10.21733 -10.21666 -10.20609 -10.20430 -10.20297
 Alpha  occ. eigenvalues --  -10.20268 -10.19391 -10.19386 -10.19244 -10.19129
 Alpha  occ. eigenvalues --  -10.19036  -1.12079  -1.07971  -1.07476  -1.05610
 Alpha  occ. eigenvalues --   -0.89986  -0.88565  -0.85349  -0.80850  -0.78604
 Alpha  occ. eigenvalues --   -0.77341  -0.76636  -0.72315  -0.69215  -0.66499
 Alpha  occ. eigenvalues --   -0.64336  -0.62445  -0.61464  -0.59579  -0.58045
 Alpha  occ. eigenvalues --   -0.55948  -0.54017  -0.52333  -0.50508  -0.50402
 Alpha  occ. eigenvalues --   -0.48991  -0.47758  -0.47385  -0.47300  -0.45824
 Alpha  occ. eigenvalues --   -0.45553  -0.45314  -0.44374  -0.43914  -0.43161
 Alpha  occ. eigenvalues --   -0.42138  -0.41513  -0.41053  -0.38890  -0.38296
 Alpha  occ. eigenvalues --   -0.37890  -0.37724  -0.37288  -0.36228  -0.31242
 Alpha  occ. eigenvalues --   -0.30281  -0.29820  -0.28680  -0.28514  -0.27521
 Alpha  occ. eigenvalues --   -0.26047  -0.23971
 Alpha virt. eigenvalues --   -0.13581  -0.09833  -0.05899  -0.03038  -0.02671
 Alpha virt. eigenvalues --   -0.00930  -0.00161   0.00272   0.00354   0.01195
 Alpha virt. eigenvalues --    0.01555   0.01947   0.02585   0.02787   0.03447

  Beta  occ. eigenvalues --  -19.19054 -19.15505 -19.13905 -14.38410 -14.38030
  Beta  occ. eigenvalues --  -10.30007 -10.29414 -10.28202 -10.23885 -10.21995
  Beta  occ. eigenvalues --  -10.21733 -10.21666 -10.20609 -10.20430 -10.20297
  Beta  occ. eigenvalues --  -10.20268 -10.19391 -10.19386 -10.19244 -10.19129
  Beta  occ. eigenvalues --  -10.19036  -1.12079  -1.07971  -1.07476  -1.05610
  Beta  occ. eigenvalues --   -0.89986  -0.88565  -0.85349  -0.80850  -0.78604
  Beta  occ. eigenvalues --   -0.77341  -0.76636  -0.72315  -0.69215  -0.66499
  Beta  occ. eigenvalues --   -0.64336  -0.62445  -0.61464  -0.59579  -0.58045
  Beta  occ. eigenvalues --   -0.55948  -0.54017  -0.52333  -0.50508  -0.50402
  Beta  occ. eigenvalues --   -0.48991  -0.47758  -0.47385  -0.47300  -0.45824
  Beta  occ. eigenvalues --   -0.45553  -0.45314  -0.44374  -0.43914  -0.43161
  Beta  occ. eigenvalues --   -0.42138  -0.41513  -0.41053  -0.38890  -0.38296
  Beta  occ. eigenvalues --   -0.37890  -0.37724  -0.37288  -0.36228  -0.31242
  Beta  occ. eigenvalues --   -0.30281  -0.29820  -0.28680  -0.28514  -0.27521
  Beta  occ. eigenvalues --   -0.26047  -0.23971
  Beta virt. eigenvalues --   -0.13581  -0.09833  -0.05899  -0.03038  -0.02671
  Beta virt. eigenvalues --   -0.00930  -0.00161   0.00272   0.00354   0.01195
  Beta virt. eigenvalues --    0.01555   0.01947   0.02585   0.02787   0.03447

 Mulliken charges and spin densities:
               1          2
     1  C    0.167461   0.000000
     2  C   -0.323977  -0.000000
     3  C   -0.368156   0.000000
     4  C    0.736675  -0.000000
     5  C    0.292424  -0.000000
     6  C    0.234006   0.000000
     7  C   -0.661004   0.000000
     8  C   -0.098867   0.000000
     9  C    0.288283  -0.000000
    10  C   -0.744695   0.000000
    11  O   -0.302776   0.000000
    12  O   -0.233322  -0.000000
    13  O   -0.203212  -0.000000
    14  H    0.189058  -0.000000
    15  H    0.215298  -0.000000
    16  H    0.211334  -0.000000
    17  H    0.188992   0.000000
    18  H    0.312962   0.000000
    19  N    0.063208   0.000000
    20  N    0.067200  -0.000000
    21  C   -0.308060   0.000000
    22  C    0.051894  -0.000000
    23  C   -0.034860  -0.000000
    24  C   -0.129170  -0.000000
    25  C   -0.340798   0.000000
    26  C   -0.282175  -0.000000
    27  H    0.198166  -0.000000
    28  H    0.202453  -0.000000
    29  H    0.211052   0.000000
    30  H    0.186463  -0.000000
    31  H    0.214143  -0.000000
 Sum of Mulliken charges =  -0.00000  -0.00000

 Dipole moment (field-independent basis, Debye):
    X=              2.1195    Y=             -0.7203    Z=              0.2273  Tot=              2.2501
 Quadrupole moment (field-independent basis, Debye-Ang):
   XX=            -75.2474   YY=           -119.7116   ZZ=           -121.3626
   XY=             -9.3386   XZ=              0.1781   YZ=             -4.6556

 Normal termination of Gaussian 16 at Thu Jan 25 05:47:58 2024.
