 Q-Chem 5.4, Q-Chem, Inc., Pleasanton, CA (2021)
 Q-Chem 5.4.0 for Intel X86 EM64T Linux

User input:
--------------------------------------------------------------
$molecule
-1 2
C                 -0.2700010000      3.8131090000     -0.1798550000
C                 -1.4822090000      3.2161300000     -0.4722980000
C                 -1.5242070000      1.8680380000     -0.8821750000
C                  0.9372760000      3.0888630000     -0.2854930000
C                  0.8969250000      1.7264980000     -0.6999650000
C                 -0.3484570000      1.1432000000     -0.9915360000
C                  2.2060020000      3.7146330000      0.0211430000
C                  3.3860930000      2.8926940000     -0.1169900000
C                  3.3824630000      1.5703650000     -0.5079180000
C                  2.1299230000      0.9207270000     -0.8293780000
O                  2.3566060000      4.9229110000      0.3994750000
O                  2.0814490000     -0.2808010000     -1.2018190000
H                 -0.2120760000      4.8482490000      0.1374190000
H                 -2.4033110000      3.7855180000     -0.3866290000
H                 -2.4768100000      1.3998370000     -1.1117080000
H                 -0.3509240000      0.1054210000     -1.3053280000
O                  4.5438700000      3.5496540000      0.1852820000
C                  4.6594890000      0.7797950000     -0.6294760000
C                  5.2400530000      0.7781540000     -2.0569080000
C                  6.5192970000     -0.0559760000     -2.1852020000
C                  7.1088890000     -0.0671100000     -3.6003530000
C                  8.3874800000     -0.9029330000     -3.7325120000
H                  4.2115400000      4.4421420000      0.4286720000
H                  4.4488040000     -0.2553120000     -0.3418320000
H                  5.4075020000      1.1834300000      0.0607100000
H                  5.4447170000      1.8117800000     -2.3609290000
H                  4.4777300000      0.3889690000     -2.7402030000
H                  6.3079990000     -1.0879400000     -1.8745540000
H                  7.2739370000      0.3255070000     -1.4835110000
H                  7.3183890000      0.9647660000     -3.9120220000
H                  6.3543380000     -0.4476890000     -4.3010540000
H                  8.1776500000     -1.9348310000     -3.4209930000
H                  9.1419170000     -0.5226050000     -3.0308440000
C                  8.9764820000     -0.9142190000     -5.1476980000
H                  9.1870230000      0.1172630000     -5.4603390000
H                  8.2228700000     -1.2945290000     -5.8500330000
C                 10.2545130000     -1.7503530000     -5.2806440000
C                 10.8346310000     -1.7549170000     -6.6985400000
H                 10.0444620000     -2.7812250000     -4.9695260000
H                 11.0081990000     -1.3703970000     -4.5797180000
H                 10.1161160000     -2.1619030000     -7.4175600000
H                 11.7447450000     -2.3596270000     -6.7598080000
H                 11.0868220000     -0.7406560000     -7.0250710000
$end
$rem
MAX_SCF_CYCLES=200
BASIS  =  6-311++G(d,p)
GUI  =  2
JOB_TYPE  =  SP
METHOD  =  B3LYP
SCF_ALGORITHM = DIIS_GDM
THRESH = 14
SOLVENT_METHOD = PCM
$end
$pcm
theory = CPCM
$end
$solvent
dielectric 37.219
opticaldielectric 1.43
$end

--------------------------------------------------------------

             Standard Nuclear Orientation (Angstroms)
    I     Atom           X                Y                Z
 ----------------------------------------------------------------
    1      C      -0.2700010000     3.8131090000    -0.1798550000
    2      C      -1.4822090000     3.2161300000    -0.4722980000
    3      C      -1.5242070000     1.8680380000    -0.8821750000
    4      C       0.9372760000     3.0888630000    -0.2854930000
    5      C       0.8969250000     1.7264980000    -0.6999650000
    6      C      -0.3484570000     1.1432000000    -0.9915360000
    7      C       2.2060020000     3.7146330000     0.0211430000
    8      C       3.3860930000     2.8926940000    -0.1169900000
    9      C       3.3824630000     1.5703650000    -0.5079180000
   10      C       2.1299230000     0.9207270000    -0.8293780000
   11      O       2.3566060000     4.9229110000     0.3994750000
   12      O       2.0814490000    -0.2808010000    -1.2018190000
   13      H      -0.2120760000     4.8482490000     0.1374190000
   14      H      -2.4033110000     3.7855180000    -0.3866290000
   15      H      -2.4768100000     1.3998370000    -1.1117080000
   16      H      -0.3509240000     0.1054210000    -1.3053280000
   17      O       4.5438700000     3.5496540000     0.1852820000
   18      C       4.6594890000     0.7797950000    -0.6294760000
   19      C       5.2400530000     0.7781540000    -2.0569080000
   20      C       6.5192970000    -0.0559760000    -2.1852020000
   21      C       7.1088890000    -0.0671100000    -3.6003530000
   22      C       8.3874800000    -0.9029330000    -3.7325120000
   23      H       4.2115400000     4.4421420000     0.4286720000
   24      H       4.4488040000    -0.2553120000    -0.3418320000
   25      H       5.4075020000     1.1834300000     0.0607100000
   26      H       5.4447170000     1.8117800000    -2.3609290000
   27      H       4.4777300000     0.3889690000    -2.7402030000
   28      H       6.3079990000    -1.0879400000    -1.8745540000
   29      H       7.2739370000     0.3255070000    -1.4835110000
   30      H       7.3183890000     0.9647660000    -3.9120220000
   31      H       6.3543380000    -0.4476890000    -4.3010540000
   32      H       8.1776500000    -1.9348310000    -3.4209930000
   33      H       9.1419170000    -0.5226050000    -3.0308440000
   34      C       8.9764820000    -0.9142190000    -5.1476980000
   35      H       9.1870230000     0.1172630000    -5.4603390000
   36      H       8.2228700000    -1.2945290000    -5.8500330000
   37      C      10.2545130000    -1.7503530000    -5.2806440000
   38      C      10.8346310000    -1.7549170000    -6.6985400000
   39      H      10.0444620000    -2.7812250000    -4.9695260000
   40      H      11.0081990000    -1.3703970000    -4.5797180000
   41      H      10.1161160000    -2.1619030000    -7.4175600000
   42      H      11.7447450000    -2.3596270000    -6.7598080000
   43      H      11.0868220000    -0.7406560000    -7.0250710000
 ----------------------------------------------------------------

   17    -925.2722624550      3.71e-06  Convergence criterion met
 Total energy in the final basis set =     -925.2722624550

                    Orbital Energies (a.u.)
 --------------------------------------------------------------

 Alpha MOs
 -- Occupied --
-19.1435 -19.0871 -19.0757 -10.2241 -10.2219 -10.2214 -10.1747 -10.1726
-10.1718 -10.1708 -10.1705 -10.1690 -10.1625 -10.1571 -10.1567 -10.1545
-10.1544 -10.1542 -10.1539 -10.1536 -10.1509  -1.0635  -1.0013  -0.9970
 -0.8584  -0.8135  -0.8013  -0.7807  -0.7565  -0.7506  -0.7293  -0.6958
 -0.6699  -0.6424  -0.6177  -0.6030  -0.5797  -0.5700  -0.5697  -0.5656
 -0.5366  -0.5043  -0.4844  -0.4765  -0.4629  -0.4532  -0.4501  -0.4375
 -0.4289  -0.4261  -0.4225  -0.4178  -0.4129  -0.4063  -0.3985  -0.3900
 -0.3845  -0.3825  -0.3767  -0.3674  -0.3593  -0.3504  -0.3470  -0.3435
 -0.3423  -0.3361  -0.3261  -0.3255  -0.3178  -0.3156  -0.3139  -0.3015
 -0.2676  -0.2612  -0.2579  -0.2411  -0.2276  -0.1519

 Beta MOs
 -- Occupied --
-19.1430 -19.0809 -19.0705 -10.2227 -10.2205 -10.2188 -10.1746 -10.1718
-10.1715 -10.1700 -10.1699 -10.1692 -10.1617 -10.1571 -10.1568 -10.1544
-10.1544 -10.1542 -10.1539 -10.1536 -10.1509  -1.0613  -0.9922  -0.9865
 -0.8560  -0.8114  -0.8002  -0.7795  -0.7551  -0.7485  -0.7285  -0.6938
 -0.6631  -0.6408  -0.6160  -0.6013  -0.5786  -0.5699  -0.5683  -0.5644
 -0.5348  -0.5020  -0.4823  -0.4757  -0.4616  -0.4524  -0.4494  -0.4302
 -0.4256  -0.4250  -0.4220  -0.4132  -0.4096  -0.4044  -0.3967  -0.3837
 -0.3815  -0.3780  -0.3746  -0.3619  -0.3540  -0.3500  -0.3421  -0.3413
 -0.3349  -0.3292  -0.3257  -0.3243  -0.3178  -0.3153  -0.3138  -0.3008
 -0.2558  -0.2508  -0.2482  -0.2362  -0.2189

          Ground-State Mulliken Net Atomic Charges

     Atom                 Charge (a.u.)    Spin (a.u.)
  --------------------------------------------------------
      1 C                     0.028357       0.075220
      2 C                    -0.389129      -0.000965
      3 C                    -0.470524       0.071561
      4 C                     0.493913      -0.004908
      5 C                    -0.103083       0.058144
      6 C                     0.078765       0.004769
      7 C                    -0.887629       0.171235
      8 C                    -0.579716       0.059660
      9 C                     1.979441       0.050983
     10 C                    -0.661902       0.082041
     11 O                    -0.541072       0.226045
     12 O                    -0.480690       0.193730
     13 H                     0.173641      -0.004106
     14 H                     0.199337      -0.000651
     15 H                     0.194413      -0.005051
     16 H                     0.174310      -0.000367
     17 O                    -0.297305       0.016374
     18 C                    -0.426282       0.010937
     19 C                    -0.704771      -0.001244
     20 C                    -0.126325       0.001735
     21 C                     0.003619      -0.003474
     22 C                    -0.131587      -0.000550
     23 H                     0.302553      -0.003511
     24 H                     0.199480       0.002495
     25 H                     0.217667      -0.000556
     26 H                     0.170339       0.001936
     27 H                     0.177223      -0.001676
     28 H                     0.120086       0.000481
     29 H                     0.118182      -0.000337
     30 H                     0.129424      -0.000010
     31 H                     0.129456      -0.000034
     32 H                     0.133433      -0.000003
     33 H                     0.132873      -0.000008
     34 C                    -0.351550       0.000003
     35 H                     0.128781      -0.000005
     36 H                     0.128553       0.000002
     37 C                    -0.264100       0.000116
     38 C                    -0.707796      -0.000005
     39 H                     0.135081       0.000006
     40 H                     0.135026      -0.000009
     41 H                     0.144924       0.000002
     42 H                     0.149892      -0.000003
     43 H                     0.144693      -0.000001
  --------------------------------------------------------
  Sum of atomic charges =    -1.000000

                    Cartesian Multipole Moments
 -----------------------------------------------------------------
    Charge (ESU x 10^10)
                -4.8032
    Dipole Moment (Debye)
         X     -11.6439      Y     -10.4737      Z       2.0606
       Tot      15.7964
    Quadrupole Moments (Debye-Ang)
        XX    -161.5775     XY     -26.7811     YY    -183.6181
        XZ       5.5543     YZ      -3.6632     ZZ    -139.8543

 Total job time:  371.75s(wall), 2651.21s(cpu)
        *  Thank you very much for using Q-Chem.  Have a nice day.  *
