 Gaussian 16, Revision A.03,
 Gaussian 16:  ES64L-G16RevA.03 25-Dec-2016

 ----------------------------------------------------------------------
 #P UB3LYP/6-311++G(d,p) nosym opt freq SCRF=(PCM,Solvent=n,n-DiMethylF
 ormamide)
 ----------------------------------------------------------------------

 -------
 Reduced
 -------
 Symbolic Z-matrix:
 Charge = -2 Multiplicity = 1

 SCF Done:  E(UB3LYP) =  -686.047534349     A.U. after   15 cycles
 SCF Done:  E(UB3LYP) =  -686.047796979     A.U. after   11 cycles
 SCF Done:  E(UB3LYP) =  -686.047786187     A.U. after   11 cycles
 SCF Done:  E(UB3LYP) =  -686.047821151     A.U. after   11 cycles
 SCF Done:  E(UB3LYP) =  -686.047860414     A.U. after   11 cycles
 SCF Done:  E(UB3LYP) =  -686.047873736     A.U. after   11 cycles
 SCF Done:  E(UB3LYP) =  -686.047876671     A.U. after   10 cycles
 SCF Done:  E(UB3LYP) =  -686.047878956     A.U. after   10 cycles
 SCF Done:  E(UB3LYP) =  -686.047879591     A.U. after    9 cycles
 SCF Done:  E(UB3LYP) =  -686.047879659     A.U. after    9 cycles
 Optimization completed.
    -- Stationary point found.
 Normal termination of Gaussian 16 at Sun Feb 11 15:29:12 2024.

 ----------------------------------------------------------------------
 #P Geom=AllCheck Guess=TCheck SCRF=Check GenChk UB3LYP/6-311++G(d,p) F
 req
 ----------------------------------------------------------------------

 Structure from the checkpoint file:  "310-an.chk"
 -------
 Reduced
 -------
 Charge = -2 Multiplicity = 1

                          Input orientation:
 ---------------------------------------------------------------------
 Center     Atomic      Atomic             Coordinates (Angstroms)
 Number     Number       Type             X           Y           Z
 ---------------------------------------------------------------------
      1          8           0       -2.188868   -2.091497    0.208362
      2          6           0       -1.670968   -0.830545    0.100024
      3          6           0       -2.497856    0.273166    0.032415
      4          6           0       -1.954270    1.578073   -0.080111
      5          6           0       -0.587512    1.769889   -0.123607
      6          8           0       -0.056759    3.025405   -0.231976
      7          6           0        0.302779    0.647772   -0.055486
      8          6           0        1.733775    0.853619   -0.101188
      9          8           0        2.225270    2.090431   -0.205089
     10          6           0        2.532454   -0.289043   -0.031565
     11          6           0        1.989728   -1.591663    0.079327
     12          6           0        0.615201   -1.830428    0.127060
     13          8           0        0.082486   -3.049898    0.231072
     14          6           0       -0.246588   -0.670855    0.057219
     15          1           0       -1.336435   -2.692673    0.235396
     16          1           0       -3.573491    0.131932    0.066820
     17          1           0       -2.612257    2.439687   -0.132777
     18          1           0        0.971264    2.844738   -0.238948
     19          1           0        3.611936   -0.161649   -0.065622
     20          1           0        2.660113   -2.446459    0.128675
 ---------------------------------------------------------------------

 SCF Done:  E(UB3LYP) =  -686.047879659     A.U. after    1 cycles

 Alpha  occ. eigenvalues --  -19.09274 -19.09268 -19.03905 -19.03904 -10.19829
 Alpha  occ. eigenvalues --  -10.19826 -10.18239 -10.18237 -10.14810 -10.14768
 Alpha  occ. eigenvalues --  -10.14151 -10.14106 -10.12893 -10.12847  -1.01034
 Alpha  occ. eigenvalues --   -1.00864  -0.93903  -0.93645  -0.82140  -0.77105
 Alpha  occ. eigenvalues --   -0.71151  -0.70395  -0.65204  -0.60193  -0.58187
 Alpha  occ. eigenvalues --   -0.54685  -0.48724  -0.47679  -0.47353  -0.46369
 Alpha  occ. eigenvalues --   -0.43706  -0.40008  -0.39971  -0.39005  -0.37703
 Alpha  occ. eigenvalues --   -0.37240  -0.36313  -0.35371  -0.34989  -0.34337
 Alpha  occ. eigenvalues --   -0.32895  -0.31484  -0.31288  -0.27460  -0.23562
 Alpha  occ. eigenvalues --   -0.22193  -0.22176  -0.21347  -0.18543  -0.12574
 Alpha virt. eigenvalues --    0.00326   0.00510   0.01318   0.01402   0.01760
 Alpha virt. eigenvalues --    0.03024   0.03603   0.05167   0.05569   0.05682
 Alpha virt. eigenvalues --    0.07055   0.07691   0.08373   0.08807   0.09234

  Beta  occ. eigenvalues --  -19.09274 -19.09268 -19.03905 -19.03904 -10.19829
  Beta  occ. eigenvalues --  -10.19826 -10.18239 -10.18237 -10.14810 -10.14768
  Beta  occ. eigenvalues --  -10.14151 -10.14106 -10.12893 -10.12847  -1.01034
  Beta  occ. eigenvalues --   -1.00864  -0.93903  -0.93645  -0.82140  -0.77105
  Beta  occ. eigenvalues --   -0.71151  -0.70395  -0.65204  -0.60193  -0.58187
  Beta  occ. eigenvalues --   -0.54685  -0.48724  -0.47679  -0.47353  -0.46369
  Beta  occ. eigenvalues --   -0.43706  -0.40008  -0.39971  -0.39005  -0.37703
  Beta  occ. eigenvalues --   -0.37240  -0.36313  -0.35371  -0.34989  -0.34337
  Beta  occ. eigenvalues --   -0.32895  -0.31484  -0.31288  -0.27460  -0.23562
  Beta  occ. eigenvalues --   -0.22193  -0.22176  -0.21347  -0.18543  -0.12574
  Beta virt. eigenvalues --    0.00326   0.00510   0.01318   0.01402   0.01760
  Beta virt. eigenvalues --    0.03024   0.03603   0.05167   0.05569   0.05682
  Beta virt. eigenvalues --    0.07055   0.07691   0.08373   0.08807   0.09234

 Mulliken charges and spin densities:
               1          2
     1  O   -0.507579   0.000000
     2  C   -0.282372   0.000000
     3  C   -0.079306  -0.000000
     4  C   -0.079454  -0.000000
     5  C   -0.283230  -0.000000
     6  O   -0.507382   0.000000
     7  C    0.419570  -0.000000
     8  C   -0.338647   0.000000
     9  O   -0.710298  -0.000000
    10  C   -0.185739  -0.000000
    11  C   -0.186097  -0.000000
    12  C   -0.338437   0.000000
    13  O   -0.710279   0.000000
    14  C    0.418634   0.000000
    15  H    0.380184  -0.000000
    16  H    0.162434  -0.000000
    17  H    0.162470   0.000000
    18  H    0.379962  -0.000000
    19  H    0.142750  -0.000000
    20  H    0.142814  -0.000000
 Sum of Mulliken charges =  -2.00000  -0.00000

 Dipole moment (field-independent basis, Debye):
    X=             -3.2415    Y=              1.3461    Z=             -0.0407  Tot=              3.5101
 Quadrupole moment (field-independent basis, Debye-Ang):
   XX=           -116.4824   YY=           -148.4572   ZZ=            -91.4391
   XY=            -16.1581   XZ=              1.7571   YZ=              4.7315

  Exact polarizability: 306.726 -16.124 274.315  -2.798 -11.727 117.398
 Approx polarizability: 350.395 -12.622 324.848  -3.734 -14.821 129.066

                      1                      2                      3
                      A                      A                      A
 Frequencies --     97.2485               127.3531               138.2488
 Red. masses --     12.4899                 6.0869                 8.5667
 Frc consts  --      0.0696                 0.0582                 0.0965
 IR Inten    --      0.0237                 9.6816                 0.0105

                      4                      5                      6
                      A                      A                      A
 Frequencies --    203.6073               318.4211               364.5529
 Red. masses --      6.2366                 5.9159                 6.3579
 Frc consts  --      0.1523                 0.3534                 0.4978
 IR Inten    --      0.0399                 0.0320                 0.0116

                      7                      8                      9
                      A                      A                      A
 Frequencies --    374.1465               380.7866               408.3005
 Red. masses --      8.3923                 5.5395                11.1087
 Frc consts  --      0.6922                 0.4732                 1.0911
 IR Inten    --      0.2118               234.6402                 2.6819

                     10                     11                     12
                      A                      A                      A
 Frequencies --    430.4067               457.8056               463.7230
 Red. masses --     12.1298                 3.8290                 9.4959
 Frc consts  --      1.3239                 0.4728                 1.2031
 IR Inten    --     55.1849                 0.0231                 2.1065

                     13                     14                     15
                      A                      A                      A
 Frequencies --    488.4567               522.1535               534.8744
 Red. masses --     11.5718                 5.4334                 3.0417
 Frc consts  --      1.6267                 0.8728                 0.5127
 IR Inten    --      3.8169                 9.2988                 0.0194

                     16                     17                     18
                      A                      A                      A
 Frequencies --    630.5834               633.0412               654.2263
 Red. masses --      4.3083                 7.8791                 4.1901
 Frc consts  --      1.0093                 1.8603                 1.0567
 IR Inten    --      0.0637                24.0433                65.3625

                     19                     20                     21
                      A                      A                      A
 Frequencies --    688.1869               741.3299               749.6803
 Red. masses --      2.7027                 7.4551                 8.7383
 Frc consts  --      0.7541                 2.4140                 2.8935
 IR Inten    --     54.9937                 0.0838                 0.3176

                     22                     23                     24
                      A                      A                      A
 Frequencies --    753.6060               790.7366               807.9218
 Red. masses --      6.4612                 1.5639                 1.9381
 Frc consts  --      2.1620                 0.5761                 0.7453
 IR Inten    --    213.7545                10.2004               153.4406

                     25                     26                     27
                      A                      A                      A
 Frequencies --    860.1942               871.5280               924.6880
 Red. masses --      1.3451                 1.3265                 8.1934
 Frc consts  --      0.5864                 0.5936                 4.1277
 IR Inten    --      0.0138                 0.0223               431.4583

                     28                     29                     30
                      A                      A                      A
 Frequencies --    954.2166              1040.8791              1045.9952
 Red. masses --      4.9408                 1.0473                 1.0473
 Frc consts  --      2.6506                 0.6685                 0.6751
 IR Inten    --    105.6380               130.8421               133.6209

                     31                     32                     33
                      A                      A                      A
 Frequencies --   1084.2070              1137.8201              1150.0173
 Red. masses --      1.4263                 1.5213                 3.4075
 Frc consts  --      0.9878                 1.1604                 2.6552
 IR Inten    --      3.4335               130.3026                 6.4136

                     34                     35                     36
                      A                      A                      A
 Frequencies --   1201.1021              1212.7857              1247.5813
 Red. masses --      3.0097                 6.2644                 7.5546
 Frc consts  --      2.5582                 5.4287                 6.9279
 IR Inten    --    229.9467               326.1665                 8.6071

                     37                     38                     39
                      A                      A                      A
 Frequencies --   1263.0155              1287.3273              1331.4745
 Red. masses --      1.6976                 5.1890                 2.9872
 Frc consts  --      1.5955                 5.0666                 3.1202
 IR Inten    --    788.1401                 0.0919                81.1382

                     40                     41                     42
                      A                      A                      A
 Frequencies --   1369.3462              1386.6955              1409.4642
 Red. masses --      8.1015                 5.7291                 2.3604
 Frc consts  --      8.9504                 6.4908                 2.7628
 IR Inten    --     27.3225              1068.8917                 4.4165

                     43                     44                     45
                      A                      A                      A
 Frequencies --   1483.4016              1524.1414              1583.1393
 Red. masses --      4.0060                 2.2443                 4.6574
 Frc consts  --      5.1937                 3.0718                 6.8775
 IR Inten    --      1.5527               933.2311                 3.5646

                     46                     47                     48
                      A                      A                      A
 Frequencies --   1601.5958              1656.8873              1670.2512
 Red. masses --      2.8278                 2.0303                 2.0951
 Frc consts  --      4.2737                 3.2839                 3.4436
 IR Inten    --    285.1481               468.6324                57.4816

                     49                     50                     51
                      A                      A                      A
 Frequencies --   2321.4371              2340.7731              3122.7019
 Red. masses --      1.0887                 1.0869                 1.0850
 Frc consts  --      3.4569                 3.5089                 6.2335
 IR Inten    --    232.9680              2972.2209                80.3101

                     52                     53                     54
                      A                      A                      A
 Frequencies --   3142.6765              3150.2688              3166.8963
 Red. masses --      1.0919                 1.0864                 1.0931
 Frc consts  --      6.3535                 6.3526                 6.4592
 IR Inten    --     96.0328                49.4596                43.0389

 - Thermochemistry -
 -------------------
 Temperature   298.150 Kelvin.  Pressure   1.00000 Atm.
 Atom     1 has atomic number  8 and mass  15.99491

 Molecular mass:   190.02661 amu.
 Principal axes and moments of inertia in atomic units:
                           1         2         3
     Eigenvalues --  1790.355892345.305144135.65952
           X            0.38347   0.92331   0.02113
           Y            0.92020  -0.38393   0.07640
           Z           -0.07865   0.00985   0.99685
 This molecule is an asymmetric top.
 Rotational symmetry number  1.
 Warning -- assumption of classical behavior for rotation
           may cause significant error
 Rotational temperatures (Kelvin)      0.04838     0.03693     0.02094
 Rotational constants (GHZ):           1.00803     0.76951     0.43639
 Zero-point vibrational energy     354704.2 (Joules/Mol)
                                   84.77633 (Kcal/Mol)
 Warning -- explicit consideration of  15 degrees of freedom as
           vibrations may cause significant error
 Vibrational temperatures:    139.92   183.23   198.91   292.95   458.14
          (Kelvin)            524.51   538.31   547.87   587.45   619.26
                              658.68   667.19   702.78   751.26   769.56
                              907.27   910.81   941.29   990.15  1066.61
                             1078.62  1084.27  1137.69  1162.42  1237.63
                             1253.93  1330.42  1372.90  1497.59  1504.95
                             1559.93  1637.07  1654.62  1728.12  1744.93
                             1794.99  1817.20  1852.18  1915.69  1970.18
                             1995.15  2027.90  2134.28  2192.90  2277.78
                             2304.34  2383.89  2403.12  3340.03  3367.85
                             4492.87  4521.61  4532.53  4556.46

 Zero-point correction=                           0.135100 (Hartree/Particle)
 Thermal correction to Energy=                    0.145165
 Thermal correction to Enthalpy=                  0.146109
 Thermal correction to Gibbs Free Energy=         0.099621
 Sum of electronic and zero-point Energies=           -685.912780
 Sum of electronic and thermal Energies=              -685.902715
 Sum of electronic and thermal Enthalpies=            -685.901770
 Sum of electronic and thermal Free Energies=         -685.948259

                     E (Thermal)             CV                S
                      KCal/Mol        Cal/Mol-Kelvin    Cal/Mol-Kelvin
 Total                   91.092             41.363             97.843
 Electronic               0.000              0.000              0.000
 Translational            0.889              2.981             41.632
 Rotational               0.889              2.981             31.230
 Vibrational             89.315             35.402             24.982
 Vibration     1          0.603              1.951              3.509
 Vibration     2          0.611              1.926              2.986
 Vibration     3          0.614              1.915              2.828
 Vibration     4          0.639              1.835              2.100
 Vibration     5          0.705              1.638              1.318
 Vibration     6          0.738              1.545              1.103
 Vibration     7          0.745              1.525              1.063
 Vibration     8          0.751              1.511              1.036
 Vibration     9          0.773              1.452              0.933
 Vibration    10          0.792              1.404              0.857
 Vibration    11          0.816              1.344              0.773
 Vibration    12          0.821              1.331              0.755
 Vibration    13          0.844              1.276              0.688
 Vibration    14          0.877              1.201              0.605
 Vibration    15          0.890              1.173              0.576

 Optimization completed.
    -- Stationary point found.
 Normal termination of Gaussian 16 at Sun Feb 11 15:50:17 2024.
