 Gaussian 16, Revision A.03,
 Gaussian 16:  ES64L-G16RevA.03 25-Dec-2016

 ----------------------------------------------------------------
 #P UB3LYP/6-311++G(d,p) SCRF=(PCM,Solvent=n,n-DiMethylFormamide)
 ----------------------------------------------------------------

 -------
 Reduced
 -------
 Symbolic Z-matrix:
 Charge = -2 Multiplicity = 1

                         Standard orientation:
 ---------------------------------------------------------------------
 Center     Atomic      Atomic             Coordinates (Angstroms)
 Number     Number       Type             X           Y           Z
 ---------------------------------------------------------------------
      1          6           0        3.984570    0.758079    0.229357
      2         16           0        3.000525   -0.754044   -0.078841
      3          6           0        1.307253   -0.127581   -0.042931
      4          6           0        0.986470    1.241638   -0.071597
      5          6           0       -0.344739    1.742055   -0.057599
      6          8           0       -0.632797    2.998367   -0.069345
      7          6           0       -1.372949    0.704346   -0.012392
      8          6           0       -2.737290    1.067151    0.017398
      9          6           0       -3.750852    0.124943    0.060218
     10          6           0       -3.420046   -1.255189    0.071791
     11          6           0       -2.092814   -1.641958    0.040433
     12          6           0       -1.035443   -0.700759    0.001441
     13          6           0        0.339781   -1.175030   -0.030480
     14          8           0        0.655847   -2.423274   -0.057333
     15          1           0        3.886981    1.487464   -0.577451
     16          1           0        5.031583    0.446578    0.288277
     17          1           0        3.700679    1.234585    1.173526
     18          1           0        1.767537    1.994783   -0.078627
     19          1           0       -2.952815    2.131786    0.005712
     20          1           0       -4.793569    0.438320    0.082928
     21          1           0       -4.208797   -2.005737    0.102715
     22          1           0       -1.808049   -2.689977    0.043953
 ---------------------------------------------------------------------

 SCF Done:  E(UB3LYP) =  -973.054363811     A.U. after   18 cycles

 The electronic state is 1-A.
 Alpha  occ. eigenvalues --  -88.82739 -19.01792 -19.01618 -10.17894 -10.17198
 Alpha  occ. eigenvalues --  -10.17025 -10.15404 -10.15019 -10.14866 -10.14568
 Alpha  occ. eigenvalues --  -10.14525 -10.13850 -10.13636 -10.12136  -7.91255
 Alpha  occ. eigenvalues --   -5.87649  -5.87252  -5.86685  -0.93649  -0.93132
 Alpha  occ. eigenvalues --   -0.82465  -0.78840  -0.74745  -0.72213  -0.69992
 Alpha  occ. eigenvalues --   -0.65318  -0.61778  -0.58419  -0.55840  -0.52339
 Alpha  occ. eigenvalues --   -0.47456  -0.46411  -0.43599  -0.42365  -0.41394
 Alpha  occ. eigenvalues --   -0.40876  -0.39962  -0.37619  -0.37326  -0.36351
 Alpha  occ. eigenvalues --   -0.35469  -0.35143  -0.32428  -0.31753  -0.31594
 Alpha  occ. eigenvalues --   -0.30930  -0.29707  -0.25262  -0.22919  -0.22238
 Alpha  occ. eigenvalues --   -0.19974  -0.19472  -0.19164  -0.11011
 Alpha virt. eigenvalues --   -0.00606   0.00004   0.00563   0.01043   0.01716
 Alpha virt. eigenvalues --    0.02395   0.02817   0.03727   0.04474   0.05124
 Alpha virt. eigenvalues --    0.05592   0.05885   0.06686   0.06871   0.06986

  Beta  occ. eigenvalues --  -88.82739 -19.01792 -19.01618 -10.17894 -10.17198
  Beta  occ. eigenvalues --  -10.17025 -10.15404 -10.15019 -10.14866 -10.14568
  Beta  occ. eigenvalues --  -10.14525 -10.13850 -10.13636 -10.12136  -7.91255
  Beta  occ. eigenvalues --   -5.87649  -5.87252  -5.86685  -0.93649  -0.93132
  Beta  occ. eigenvalues --   -0.82465  -0.78840  -0.74745  -0.72213  -0.69992
  Beta  occ. eigenvalues --   -0.65318  -0.61778  -0.58419  -0.55840  -0.52339
  Beta  occ. eigenvalues --   -0.47456  -0.46411  -0.43599  -0.42365  -0.41394
  Beta  occ. eigenvalues --   -0.40876  -0.39962  -0.37619  -0.37326  -0.36351
  Beta  occ. eigenvalues --   -0.35469  -0.35143  -0.32428  -0.31753  -0.31594
  Beta  occ. eigenvalues --   -0.30930  -0.29707  -0.25262  -0.22919  -0.22238
  Beta  occ. eigenvalues --   -0.19974  -0.19472  -0.19164  -0.11011
  Beta virt. eigenvalues --   -0.00606   0.00004   0.00563   0.01043   0.01716
  Beta virt. eigenvalues --    0.02395   0.02817   0.03727   0.04474   0.05124
  Beta virt. eigenvalues --    0.05592   0.05885   0.06686   0.06871   0.06986

 Mulliken charges and spin densities:
               1          2
     1  C   -0.527993  -0.000000
     2  S   -0.636704   0.000000
     3  C    0.976355   0.000000
     4  C    0.324603  -0.000000
     5  C   -0.592016  -0.000000
     6  O   -0.694323   0.000000
     7  C    0.389900  -0.000000
     8  C    0.109278   0.000000
     9  C   -0.423320   0.000000
    10  C   -0.459909   0.000000
    11  C    0.192054  -0.000000
    12  C    0.139250  -0.000000
    13  C   -1.428978   0.000000
    14  O   -0.642182  -0.000000
    15  H    0.177513   0.000000
    16  H    0.173855   0.000000
    17  H    0.181337  -0.000000
    18  H    0.137712  -0.000000
    19  H    0.140502   0.000000
    20  H    0.158695  -0.000000
    21  H    0.155292   0.000000
    22  H    0.149079  -0.000000
 Sum of Mulliken charges =  -2.00000   0.00000

 Dipole moment (field-independent basis, Debye):
    X=              0.8542    Y=             -0.4067    Z=              0.7863  Tot=              1.2301
 Quadrupole moment (field-independent basis, Debye-Ang):
   XX=           -111.2203   YY=           -154.2706   ZZ=           -101.8834
   XY=             18.6015   XZ=              1.4126   YZ=              0.4259

 Normal termination of Gaussian 16 at Sun Jan 21 09:02:47 2024.
