 Gaussian 16, Revision A.03,
 Gaussian 16:  ES64L-G16RevA.03 25-Dec-2016

 --------------------------------------
 #P UB3LYP/6-311++G(d,p) nosym opt freq
 --------------------------------------

 --------
 Oxidized
 --------
 Symbolic Z-matrix:
 Charge =  0 Multiplicity = 1

 SCF Done:  E(UB3LYP) =  -805.891775431     A.U. after   16 cycles
 SCF Done:  E(UB3LYP) =  -805.904026198     A.U. after   14 cycles
 SCF Done:  E(UB3LYP) =  -805.904940817     A.U. after   14 cycles
 SCF Done:  E(UB3LYP) =  -805.905506016     A.U. after   15 cycles
 SCF Done:  E(UB3LYP) =  -805.906386042     A.U. after   16 cycles
 SCF Done:  E(UB3LYP) =  -805.907500305     A.U. after   13 cycles
 SCF Done:  E(UB3LYP) =  -805.908083897     A.U. after   15 cycles
 SCF Done:  E(UB3LYP) =  -805.908242939     A.U. after   15 cycles
 SCF Done:  E(UB3LYP) =  -805.908402725     A.U. after   14 cycles
 SCF Done:  E(UB3LYP) =  -805.908516338     A.U. after   14 cycles
 SCF Done:  E(UB3LYP) =  -805.908595765     A.U. after   14 cycles
 SCF Done:  E(UB3LYP) =  -805.908602393     A.U. after   14 cycles
 SCF Done:  E(UB3LYP) =  -805.908604258     A.U. after   12 cycles
 SCF Done:  E(UB3LYP) =  -805.908604543     A.U. after   10 cycles
 SCF Done:  E(UB3LYP) =  -805.908604643     A.U. after   10 cycles
 Optimization completed.
    -- Stationary point found.
 Normal termination of Gaussian 16 at Tue Dec 26 21:58:07 2023.

 ----------------------------------------------------------------------
 #P Geom=AllCheck Guess=TCheck SCRF=Check GenChk UB3LYP/6-311++G(d,p) F
 req
 ----------------------------------------------------------------------

 Structure from the checkpoint file:  "290.chk"
 --------
 Oxidized
 --------
 Charge =  0 Multiplicity = 1

                          Input orientation:
 ---------------------------------------------------------------------
 Center     Atomic      Atomic             Coordinates (Angstroms)
 Number     Number       Type             X           Y           Z
 ---------------------------------------------------------------------
      1          8           0       -0.422185    2.165767    0.251889
      2          6           0       -0.579154    0.957059    0.129605
      3          6           0        0.579179    0.049941   -0.004547
      4          6           0        0.383374   -1.290921   -0.130858
      5          8           0        1.366173   -2.193705   -0.259109
      6          6           0       -0.981496   -1.921220   -0.158283
      7          8           0       -1.101994   -3.123751   -0.282405
      8          6           0       -2.148786   -1.008677   -0.033266
      9          6           0       -3.441536   -1.537801   -0.054363
     10          6           0       -4.539222   -0.691663    0.064570
     11          6           0       -4.349390    0.684910    0.204578
     12          6           0       -3.062968    1.216415    0.225656
     13          6           0       -1.956907    0.373375    0.107196
     14          6           0        1.955861    0.686456   -0.038340
     15          1           0       -3.563723   -2.608427   -0.163418
     16          1           0       -5.542378   -1.102197    0.048744
     17          1           0       -5.206124    1.342847    0.296723
     18          1           0       -2.894060    2.280666    0.332693
     19          6           0        2.985389   -0.003843    0.824495
     20          6           0        4.216080   -0.421812    0.482295
     21          6           0        4.822174   -0.290768   -0.892446
     22          6           0        5.125604   -1.050676    1.509314
     23          1           0        2.222048   -1.770352   -0.064487
     24          1           0        1.831980    1.719633    0.298847
     25          1           0        2.290307    0.749790   -1.079076
     26          1           0        2.682267   -0.141084    1.861527
     27          1           0        4.136381    0.113422   -1.636284
     28          1           0        5.178995   -1.262912   -1.250171
     29          1           0        5.698393    0.366369   -0.853890
     30          1           0        4.645487   -1.129545    2.486151
     31          1           0        6.041787   -0.460329    1.624933
     32          1           0        5.437434   -2.053427    1.196101
 ---------------------------------------------------------------------

 SCF Done:  E(UB3LYP) =  -805.908604643     A.U. after    2 cycles

 Alpha  occ. eigenvalues --  -19.17456 -19.13059 -19.12153 -10.28034 -10.27467
 Alpha  occ. eigenvalues --  -10.26847 -10.20665 -10.20612 -10.20492 -10.20468
 Alpha  occ. eigenvalues --  -10.20021 -10.19946 -10.19809 -10.19644 -10.19388
 Alpha  occ. eigenvalues --  -10.18829 -10.18355 -10.18037  -1.09758  -1.05896
 Alpha  occ. eigenvalues --   -1.05476  -0.88962  -0.84885  -0.83024  -0.78825
 Alpha  occ. eigenvalues --   -0.77762  -0.74930  -0.71378  -0.69910  -0.66848
 Alpha  occ. eigenvalues --   -0.64878  -0.63097  -0.58866  -0.57884  -0.54805
 Alpha  occ. eigenvalues --   -0.53986  -0.51017  -0.49653  -0.48501  -0.46631
 Alpha  occ. eigenvalues --   -0.46212  -0.46019  -0.45340  -0.45056  -0.44959
 Alpha  occ. eigenvalues --   -0.44540  -0.42441  -0.41913  -0.41216  -0.40512
 Alpha  occ. eigenvalues --   -0.39873  -0.39680  -0.39162  -0.38655  -0.37472
 Alpha  occ. eigenvalues --   -0.37166  -0.36851  -0.35607  -0.28560  -0.28206
 Alpha  occ. eigenvalues --   -0.27892  -0.27753  -0.26296  -0.25468
 Alpha virt. eigenvalues --   -0.11648  -0.05379  -0.02694  -0.01808  -0.01216
 Alpha virt. eigenvalues --   -0.00663   0.00377   0.00812   0.01430   0.02131
 Alpha virt. eigenvalues --    0.02600   0.02922   0.03188   0.03217   0.03879

  Beta  occ. eigenvalues --  -19.17456 -19.13059 -19.12153 -10.28034 -10.27467
  Beta  occ. eigenvalues --  -10.26847 -10.20665 -10.20612 -10.20492 -10.20468
  Beta  occ. eigenvalues --  -10.20021 -10.19946 -10.19809 -10.19644 -10.19388
  Beta  occ. eigenvalues --  -10.18829 -10.18355 -10.18037  -1.09758  -1.05896
  Beta  occ. eigenvalues --   -1.05476  -0.88962  -0.84885  -0.83024  -0.78825
  Beta  occ. eigenvalues --   -0.77762  -0.74930  -0.71378  -0.69910  -0.66848
  Beta  occ. eigenvalues --   -0.64878  -0.63097  -0.58866  -0.57884  -0.54805
  Beta  occ. eigenvalues --   -0.53986  -0.51017  -0.49653  -0.48501  -0.46631
  Beta  occ. eigenvalues --   -0.46212  -0.46019  -0.45340  -0.45056  -0.44959
  Beta  occ. eigenvalues --   -0.44540  -0.42441  -0.41913  -0.41216  -0.40512
  Beta  occ. eigenvalues --   -0.39873  -0.39680  -0.39162  -0.38655  -0.37472
  Beta  occ. eigenvalues --   -0.37166  -0.36851  -0.35607  -0.28560  -0.28206
  Beta  occ. eigenvalues --   -0.27892  -0.27753  -0.26296  -0.25468
  Beta virt. eigenvalues --   -0.11648  -0.05379  -0.02694  -0.01808  -0.01216
  Beta virt. eigenvalues --   -0.00663   0.00377   0.00812   0.01430   0.02131
  Beta virt. eigenvalues --    0.02600   0.02922   0.03188   0.03217   0.03879

 Mulliken charges and spin densities:
               1          2
     1  O   -0.217661   0.000000
     2  C   -1.295492  -0.000000
     3  C    1.875991   0.000000
     4  C   -0.891594   0.000000
     5  O   -0.220560   0.000000
     6  C   -0.556678   0.000000
     7  O   -0.209846  -0.000000
     8  C    0.739090  -0.000000
     9  C    0.071637  -0.000000
    10  C   -0.303562  -0.000000
    11  C   -0.372865  -0.000000
    12  C    0.202419   0.000000
    13  C   -0.107282  -0.000000
    14  C   -0.353076   0.000000
    15  H    0.177177  -0.000000
    16  H    0.177768   0.000000
    17  H    0.175765  -0.000000
    18  H    0.184607   0.000000
    19  C   -0.373213   0.000000
    20  C    0.473746  -0.000000
    21  C   -0.514761  -0.000000
    22  C   -0.558503  -0.000000
    23  H    0.402636  -0.000000
    24  H    0.232864   0.000000
    25  H    0.157482   0.000000
    26  H    0.184315   0.000000
    27  H    0.149960   0.000000
    28  H    0.153948  -0.000000
    29  H    0.158905  -0.000000
    30  H    0.158617  -0.000000
    31  H    0.146016   0.000000
    32  H    0.152149   0.000000
 Sum of Mulliken charges =  -0.00000  -0.00000

 Dipole moment (field-independent basis, Debye):
    X=              1.2643    Y=              1.0413    Z=              0.2870  Tot=              1.6629
 Quadrupole moment (field-independent basis, Debye-Ang):
   XX=            -75.7732   YY=           -124.3663   ZZ=           -106.0205
   XY=             -3.0949   XZ=             -0.3840   YZ=             -2.5586

  Exact polarizability: 270.489  -8.954 195.712  -1.887   7.506 114.134
 Approx polarizability: 347.972 -10.979 397.163  -9.878  24.462 176.824

                      1                      2                      3
                      A                      A                      A
 Frequencies --     26.7710                43.2753                57.3872
 Red. masses --      4.4660                 3.0820                 4.3874
 Frc consts  --      0.0019                 0.0034                 0.0085
 IR Inten    --      1.5400                 0.1684                 3.2346

                      4                      5                      6
                      A                      A                      A
 Frequencies --     68.0681               114.0402               119.8198
 Red. masses --      5.8932                 3.3628                 4.1203
 Frc consts  --      0.0161                 0.0258                 0.0349
 IR Inten    --      2.5090                 0.2927                 0.1947

                      7                      8                      9
                      A                      A                      A
 Frequencies --    131.9721               170.5791               181.5810
 Red. masses --      1.1689                 6.0625                 1.5032
 Frc consts  --      0.0120                 0.1039                 0.0292
 IR Inten    --      0.1360                 0.8952                 1.9593

                     10                     11                     12
                      A                      A                      A
 Frequencies --    194.0001               258.8807               280.8906
 Red. masses --      2.5357                 3.9123                 3.0586
 Frc consts  --      0.0562                 0.1545                 0.1422
 IR Inten    --      1.2312                 0.2085                 2.6533

                     13                     14                     15
                      A                      A                      A
 Frequencies --    292.5323               300.0123               361.8653
 Red. masses --      3.3113                 3.6498                 6.8202
 Frc consts  --      0.1670                 0.1936                 0.5262
 IR Inten    --      2.2563                 1.1017                 3.1161

                     16                     17                     18
                      A                      A                      A
 Frequencies --    385.3994               405.6435               416.5303
 Red. masses --      8.8826                 2.7387                 5.4632
 Frc consts  --      0.7773                 0.2655                 0.5585
 IR Inten    --     14.2306                 0.8050                 9.6294

                     19                     20                     21
                      A                      A                      A
 Frequencies --    422.6138               445.8066               448.6323
 Red. masses --      4.5700                 4.4737                 3.1129
 Frc consts  --      0.4809                 0.5239                 0.3691
 IR Inten    --      1.0843                 0.3965                 6.4517

                     22                     23                     24
                      A                      A                      A
 Frequencies --    484.2767               504.8900               533.9782
 Red. masses --      4.2396                 3.3914                 4.7240
 Frc consts  --      0.5858                 0.5094                 0.7936
 IR Inten    --      3.1833                 3.5851                 8.5294

                     25                     26                     27
                      A                      A                      A
 Frequencies --    572.5662               638.3443               649.5248
 Red. masses --      3.5011                 1.3995                 3.8995
 Frc consts  --      0.6763                 0.3360                 0.9693
 IR Inten    --      1.3657                60.7447                21.9553

                     28                     29                     30
                      A                      A                      A
 Frequencies --    674.8237               697.8697               718.8298
 Red. masses --      5.9817                 4.5154                 5.8239
 Frc consts  --      1.6049                 1.2957                 1.7730
 IR Inten    --      2.4024                 7.2491                 0.2492

                     31                     32                     33
                      A                      A                      A
 Frequencies --    740.5418               779.5392               788.6109
 Red. masses --      2.3356                 2.6131                 4.2343
 Frc consts  --      0.7546                 0.9356                 1.5515
 IR Inten    --     47.2798                 0.9350                 5.3897

                     34                     35                     36
                      A                      A                      A
 Frequencies --    812.8334               864.6210               867.6005
 Red. masses --      2.4178                 3.9009                 1.5624
 Frc consts  --      0.9412                 1.7182                 0.6929
 IR Inten    --     11.9141                 0.1013                19.2007

                     37                     38                     39
                      A                      A                      A
 Frequencies --    913.7722               940.1959               956.5604
 Red. masses --      1.3484                 4.0304                 2.7538
 Frc consts  --      0.6634                 2.0991                 1.4846
 IR Inten    --      0.0371                42.0926                49.7074

                     40                     41                     42
                      A                      A                      A
 Frequencies --    960.4949               999.4763              1015.4786
 Red. masses --      1.4190                 1.3797                 1.3188
 Frc consts  --      0.7713                 0.8120                 0.8013
 IR Inten    --      0.4167                 1.8629                 0.0268

                     43                     44                     45
                      A                      A                      A
 Frequencies --   1016.1207              1028.3925              1046.2901
 Red. masses --      1.2522                 3.3140                 2.5202
 Frc consts  --      0.7618                 2.0650                 1.6255
 IR Inten    --      5.8300                28.6412                20.0877

                     46                     47                     48
                      A                      A                      A
 Frequencies --   1062.2117              1101.4213              1110.6421
 Red. masses --      2.2256                 1.6793                 2.2980
 Frc consts  --      1.4795                 1.2003                 1.6702
 IR Inten    --     18.9485                 0.7880                 3.2707

                     49                     50                     51
                      A                      A                      A
 Frequencies --   1124.6403              1160.4139              1183.1919
 Red. masses --      1.9689                 2.0443                 1.1572
 Frc consts  --      1.4673                 1.6219                 0.9545
 IR Inten    --     14.3452                 4.4056                10.8633

                     52                     53                     54
                      A                      A                      A
 Frequencies --   1198.1097              1221.6799              1259.7900
 Red. masses --      1.8644                 2.5772                 1.6609
 Frc consts  --      1.5768                 2.2663                 1.5530
 IR Inten    --     18.4462               107.8354                91.3313

                     55                     56                     57
                      A                      A                      A
 Frequencies --   1278.0995              1304.7506              1306.9587
 Red. masses --      2.0867                 1.9361                 2.2627
 Frc consts  --      2.0083                 1.9420                 2.2772
 IR Inten    --    186.2749                16.9284               130.4294

                     58                     59                     60
                      A                      A                      A
 Frequencies --   1339.1526              1361.8476              1382.2802
 Red. masses --      2.3966                 7.3204                 1.3601
 Frc consts  --      2.5323                 7.9991                 1.5311
 IR Inten    --     56.7719                30.0733                10.0278

                     61                     62                     63
                      A                      A                      A
 Frequencies --   1412.2125              1417.8984              1424.1688
 Red. masses --      1.3539                 1.9156                 1.3528
 Frc consts  --      1.5908                 2.2690                 1.6166
 IR Inten    --     12.5953                22.3874                15.1661

                     64                     65                     66
                      A                      A                      A
 Frequencies --   1471.0681              1474.4793              1483.0865
 Red. masses --      1.0549                 1.0794                 2.3530
 Frc consts  --      1.3450                 1.3827                 3.0493
 IR Inten    --      3.4574                 3.6547                 0.8666

                     67                     68                     69
                      A                      A                      A
 Frequencies --   1487.6127              1492.0792              1497.2302
 Red. masses --      1.0558                 1.0436                 1.0877
 Frc consts  --      1.3766                 1.3689                 1.4366
 IR Inten    --     11.1800                17.6714                 4.2050

                     70                     71                     72
                      A                      A                      A
 Frequencies --   1507.3184              1612.3897              1629.1204
 Red. masses --      2.6287                 6.8457                 5.9092
 Frc consts  --      3.5189                10.4859                 9.2403
 IR Inten    --      4.7689                47.7213                60.4087

                     73                     74                     75
                      A                      A                      A
 Frequencies --   1649.3849              1694.8750              1708.5560
 Red. masses --      8.2815                12.1277                 6.0916
 Frc consts  --     13.2740                20.5260                10.4770
 IR Inten    --    193.2377               154.2426                 9.4463

                     76                     77                     78
                      A                      A                      A
 Frequencies --   1740.6784              3010.8181              3017.9083
 Red. masses --     12.5355                 1.0383                 1.0406
 Frc consts  --     22.3783                 5.5456                 5.5841
 IR Inten    --    226.6937                22.7303                41.8524

                     79                     80                     81
                      A                      A                      A
 Frequencies --   3032.2918              3054.3621              3058.1325
 Red. masses --      1.0611                 1.0995                 1.0988
 Frc consts  --      5.7486                 6.0433                 6.0546
 IR Inten    --     17.4093                 4.2932                25.5973

                     82                     83                     84
                      A                      A                      A
 Frequencies --   3067.6532              3104.3503              3117.7183
 Red. masses --      1.0979                 1.0994                 1.0880
 Frc consts  --      6.0872                 6.2421                 6.2311
 IR Inten    --      5.6050                14.5950                14.6371

                     85                     86                     87
                      A                      A                      A
 Frequencies --   3121.8437              3169.9274              3184.3641
 Red. masses --      1.0957                 1.0869                 1.0918
 Frc consts  --      6.2914                 6.4350                 6.5226
 IR Inten    --     28.0375                 3.5061                10.5159

                     88                     89                     90
                      A                      A                      A
 Frequencies --   3199.4685              3202.6519              3594.9023
 Red. masses --      1.0929                 1.0946                 1.0663
 Frc consts  --      6.5915                 6.6148                 8.1190
 IR Inten    --      1.6585                 9.8898               519.9135

 - Thermochemistry -
 -------------------
 Temperature   298.150 Kelvin.  Pressure   1.00000 Atm.
 Atom     1 has atomic number  8 and mass  15.99491

 Molecular mass:   242.09429 amu.
 Principal axes and moments of inertia in atomic units:
                           1         2         3
     Eigenvalues --  1878.033417855.046649272.22056
           X            0.99859   0.03320  -0.04131
           Y           -0.03688   0.99511  -0.09168
           Z            0.03807   0.09308   0.99493
 This molecule is an asymmetric top.
 Rotational symmetry number  1.
 Warning -- assumption of classical behavior for rotation
           may cause significant error
 Rotational temperatures (Kelvin)      0.04612     0.01103     0.00934
 Rotational constants (GHZ):           0.96097     0.22976     0.19464
 Zero-point vibrational energy     666114.7 (Joules/Mol)
                                  159.20522 (Kcal/Mol)
 Warning -- explicit consideration of  25 degrees of freedom as
           vibrations may cause significant error
 Vibrational temperatures:     38.52    62.26    82.57    97.93   164.08
          (Kelvin)            172.39   189.88   245.43   261.25   279.12
                              372.47   404.14   420.89   431.65   520.64
                              554.50   583.63   599.29   608.05   641.42
                              645.48   696.77   726.42   768.28   823.80
                              918.44   934.52   970.92  1004.08  1034.24
                             1065.47  1121.58  1134.64  1169.49  1244.00
                             1248.28  1314.71  1352.73  1376.28  1381.94
                             1438.02  1461.05  1461.97  1479.63  1505.38
                             1528.29  1584.70  1597.97  1618.11  1669.58
                             1702.35  1723.81  1757.72  1812.56  1838.90
                             1877.25  1880.42  1926.74  1959.39  1988.79
                             2031.86  2040.04  2049.06  2116.54  2121.45
                             2133.83  2140.34  2146.77  2154.18  2168.69
                             2319.87  2343.94  2373.10  2438.55  2458.23
                             2504.45  4331.90  4342.10  4362.79  4394.55
                             4399.97  4413.67  4466.47  4485.70  4491.64
                             4560.82  4581.59  4603.32  4607.90  5172.26

 Zero-point correction=                           0.253710 (Hartree/Particle)
 Thermal correction to Energy=                    0.270180
 Thermal correction to Enthalpy=                  0.271124
 Thermal correction to Gibbs Free Energy=         0.208764
 Sum of electronic and zero-point Energies=           -805.654895
 Sum of electronic and thermal Energies=              -805.638425
 Sum of electronic and thermal Enthalpies=            -805.637480
 Sum of electronic and thermal Free Energies=         -805.699840

                     E (Thermal)             CV                S
                      KCal/Mol        Cal/Mol-Kelvin    Cal/Mol-Kelvin
 Total                  169.541             62.778            131.248
 Electronic               0.000              0.000              0.000
 Translational            0.889              2.981             42.354
 Rotational               0.889              2.981             33.281
 Vibrational            167.763             56.817             55.614
 Vibration     1          0.593              1.984              6.055
 Vibration     2          0.595              1.980              5.103
 Vibration     3          0.596              1.975              4.545
 Vibration     4          0.598              1.969              4.208
 Vibration     5          0.607              1.938              3.199
 Vibration     6          0.609              1.933              3.103
 Vibration     7          0.612              1.921              2.917
 Vibration     8          0.626              1.879              2.429
 Vibration     9          0.630              1.865              2.312
 Vibration    10          0.635              1.848              2.189
 Vibration    11          0.668              1.748              1.669
 Vibration    12          0.681              1.709              1.528
 Vibration    13          0.688              1.688              1.459
 Vibration    14          0.693              1.674              1.417
 Vibration    15          0.736              1.551              1.114
 Vibration    16          0.754              1.501              1.018
 Vibration    17          0.771              1.458              0.942
 Vibration    18          0.780              1.434              0.904
 Vibration    19          0.785              1.421              0.883
 Vibration    20          0.805              1.370              0.809
 Vibration    21          0.808              1.364              0.800
 Vibration    22          0.840              1.285              0.699
 Vibration    23          0.860              1.239              0.646
 Vibration    24          0.889              1.175              0.578
 Vibration    25          0.929              1.091              0.499

                           ! Non-Optimized Parameters !
 Normal termination of Gaussian 16 at Tue Dec 26 23:15:08 2023.
