 Q-Chem 5.4, Q-Chem, Inc., Pleasanton, CA (2021)
 Q-Chem 5.4.0 for Intel X86 EM64T Linux

User input:
--------------------------------------------------------------
$molecule
0 1
C                  5.2775950000     -2.3218270000      0.3674360000
C                  6.0335320000     -1.4894170000     -0.4498540000
C                  5.4029770000     -0.6014870000     -1.3261310000
C                  3.8803940000     -2.2753870000      0.3173540000
C                  3.2518290000     -1.3845140000     -0.5617640000
C                  4.0156340000     -0.5489610000     -1.3821420000
C                  3.0990850000     -3.1875470000      1.2129950000
C                  1.6013000000     -3.1354270000      1.1568990000
C                  0.9952660000     -2.2369950000      0.2708060000
C                  1.7710650000     -1.3258330000     -0.6240060000
C                  0.7733010000     -3.9769350000      1.9824850000
C                 -0.6542410000     -3.8645580000      1.8677400000
C                 -0.4122940000     -2.1461360000      0.1772930000
C                 -1.2129720000     -2.9364170000      0.9527820000
O                  3.7116600000     -3.9401540000      1.9562950000
O                  1.2003790000     -0.5568090000     -1.3827570000
H                  5.7483120000     -3.0156800000      1.0520970000
H                  7.1160440000     -1.5301220000     -0.4064050000
H                  5.9957680000      0.0461680000     -1.9620240000
H                 -2.2928450000     -2.8625790000      0.8770110000
H                  3.5015530000      0.1293880000     -2.0516850000
H                 -0.8272130000     -1.4344480000     -0.5243890000
C                 -1.5035640000     -4.6732500000      2.6609710000
C                 -0.9760940000     -5.5776830000      3.5523400000
C                  0.4252420000     -5.7018190000      3.6784690000
C                  1.2693570000     -4.9299820000      2.9215370000
O                 -1.7324640000     -6.3873190000      4.3467340000
H                 -2.5789960000     -4.5660770000      2.5523830000
H                  0.8182480000     -6.4209900000      4.3871090000
H                  2.3341780000     -5.0428840000      3.0356260000
H                 -2.6688450000     -6.2268850000      4.1861900000
$end
$rem
MAX_SCF_CYCLES=200
BASIS  =  6-311++G(d,p)
GUI  =  2
JOB_TYPE  =  SP
METHOD  =  B3LYP
SOLVENT_METHOD = COSMO
$end
$solvent
dielectric 37.219
opticaldielectric 1.43
$end

--------------------------------------------------------------

             Standard Nuclear Orientation (Angstroms)
    I     Atom           X                Y                Z
 ----------------------------------------------------------------
    1      C       3.1896490054    -1.9128363467     0.0001772885
    2      C       4.5565406703    -1.6600177803    -0.0000443817
    3      C       5.0291872957    -0.3445384937    -0.0003403377
    4      C       2.2788058025    -0.8511395120     0.0001036096
    5      C       2.7557911991     0.4657059545    -0.0001570465
    6      C       4.1312913099     0.7158386130    -0.0003919650
    7      C       0.8132740070    -1.1623772757     0.0002793625
    8      C      -0.1607038260    -0.0219430083     0.0001229473
    9      C       0.3392356531     1.2856037745     0.0001445114
   10      C       1.8000409151     1.5999550206    -0.0001284735
   11      C      -1.5860655547    -0.2308789687     0.0000322154
   12      C      -2.4506878713     0.9163347825     0.0001919012
   13      C      -0.5336074387     2.3975255820     0.0002985608
   14      C      -1.8881486473     2.2179967105     0.0003782001
   15      O       0.4660663890    -2.3343870666     0.0007663158
   16      O       2.1924125803     2.7570323620    -0.0002026319
   17      H       2.8052204478    -2.9247562058     0.0003952070
   18      H       5.2574232090    -2.4871457068     0.0000103864
   19      H       6.0958822075    -0.1511993942    -0.0005243934
   20      H      -2.5535985392     3.0750237877     0.0005234799
   21      H       4.4701848155     1.7443694151    -0.0006163559
   22      H      -0.0929204992     3.3858626878     0.0003388783
   23      C      -3.8572360381     0.7545634138     0.0001075343
   24      C      -4.4169730683    -0.5014050229    -0.0001921805
   25      C      -3.5822510081    -1.6408346529    -0.0004299457
   26      C      -2.2168538631    -1.5108378691    -0.0003164807
   27      O      -5.7607090956    -0.7317120594    -0.0003123503
   28      H      -4.4856582034     1.6405188063     0.0002378464
   29      H      -4.0454191722    -2.6202765678    -0.0007126342
   30      H      -1.6014937312    -2.3945452808    -0.0005218160
   31      H      -6.2395107793     0.1043930439    -0.0001531862
 ----------------------------------------------------------------

    9    -917.8744333370      3.76e-06  Convergence criterion met
 Total energy in the final basis set =     -917.8744333370
    5    -917.8943431510      3.43e-06  Convergence criterion met
 Total energy in the final basis set =     -917.8943431510

                    Orbital Energies (a.u.)
 --------------------------------------------------------------

 Alpha MOs
 -- Occupied --
-19.1691 -19.1314 -19.1307 -10.2863 -10.2824 -10.2539 -10.2170 -10.2088
-10.2085 -10.2079 -10.2064 -10.2048 -10.1954 -10.1952 -10.1949 -10.1946
-10.1941 -10.1905 -10.1879 -10.1865 -10.1852  -1.0804  -1.0681  -1.0660
 -0.8994  -0.8861  -0.8487  -0.8105  -0.7852  -0.7760  -0.7660  -0.7442
 -0.6931  -0.6635  -0.6572  -0.6340  -0.6204  -0.5881  -0.5771  -0.5587
 -0.5405  -0.5234  -0.5077  -0.4913  -0.4882  -0.4760  -0.4641  -0.4574
 -0.4568  -0.4490  -0.4462  -0.4323  -0.4322  -0.4294  -0.4207  -0.4135
 -0.3950  -0.3916  -0.3867  -0.3747  -0.3737  -0.3667  -0.3562  -0.3293
 -0.3056  -0.2871  -0.2825  -0.2767  -0.2723  -0.2575  -0.2354

          Ground-State Mulliken Net Atomic Charges

     Atom                 Charge (a.u.)
  ----------------------------------------
      1 C                     0.087535
      2 C                    -0.443978
      3 C                    -0.462729
      4 C                     0.133519
      5 C                     0.079006
      6 C                    -0.010576
      7 C                    -0.700566
      8 C                     0.791474
      9 C                     0.756763
     10 C                    -0.837987
     11 C                     0.929055
     12 C                     0.651256
     13 C                    -0.190105
     14 C                    -0.429571
     15 O                    -0.247847
     16 O                    -0.287977
     17 H                     0.194784
     18 H                     0.226599
     19 H                     0.225956
     20 H                     0.215250
     21 H                     0.195982
     22 H                     0.193892
     23 C                    -0.309378
     24 C                    -0.489857
     25 C                    -0.410734
     26 C                    -0.493287
     27 O                    -0.286407
     28 H                     0.176340
     29 H                     0.245644
     30 H                     0.166778
     31 H                     0.331163
  ----------------------------------------
  Sum of atomic charges =     0.000001

                    Cartesian Multipole Moments
 -----------------------------------------------------------------
    Charge (ESU x 10^10)
                -0.0000
    Dipole Moment (Debye)
         X      -1.5111      Y       1.0166      Z      -0.0023
       Tot       1.8212
    Quadrupole Moments (Debye-Ang)
        XX     -81.5546     XY     -24.1755     YY    -124.8671
        XZ      -0.0022     YZ       0.0052     ZZ    -124.4253

 Total job time:  84.16s(wall), 636.35s(cpu)
        *  Thank you very much for using Q-Chem.  Have a nice day.  *
