 Gaussian 16, Revision A.03,
 Gaussian 16:  ES64L-G16RevA.03 25-Dec-2016

 ----------------------------------------------------------------
 #P UB3LYP/6-311++G(d,p) SCRF=(PCM,Solvent=n,n-DiMethylFormamide)
 ----------------------------------------------------------------

 ------------------
 Quinone PCM in DMF
 ------------------
 Symbolic Z-matrix:
 Charge =  0 Multiplicity = 1

                         Standard orientation:
 ---------------------------------------------------------------------
 Center     Atomic      Atomic             Coordinates (Angstroms)
 Number     Number       Type             X           Y           Z
 ---------------------------------------------------------------------
      1          6           0       -1.305678   -0.838931    1.027124
      2          6           0       -2.655861   -1.406473    0.786137
      3          6           0       -3.510197   -0.845700   -0.079016
      4          6           0       -3.142447    0.377044   -0.835490
      5          6           0       -1.799746    0.956770   -0.586284
      6          6           0       -0.927502    0.390481    0.262939
      7          8           0       -0.541636   -1.348784    1.827877
      8          8           0       -3.912562    0.885265   -1.633278
      9          6           0        1.655522    0.375250    0.054450
     10          6           0        2.895724    0.887217    0.462793
     11          6           0        1.615337   -0.714681   -0.823658
     12          6           0        2.796886   -1.284414   -1.289075
     13          6           0        4.073163    0.312701    0.003363
     14          6           0        4.025296   -0.773232   -0.874039
     15          1           0       -2.899072   -2.294372    1.359462
     16          1           0       -4.500885   -1.244219   -0.267724
     17          1           0       -1.565334    1.862741   -1.135286
     18          1           0        2.911152    1.731444    1.141018
     19          1           0        0.664055   -1.115304   -1.153703
     20          1           0        2.759850   -2.125169   -1.971910
     21          1           0        5.029745    0.707175    0.326163
     22          1           0        4.945729   -1.220047   -1.232873
     23          6           0        0.418140    1.030689    0.554322
     24          8           0        0.432067    2.075696    1.174583
 ---------------------------------------------------------------------

 SCF Done:  E(UB3LYP) =  -726.040703488     A.U. after   15 cycles

 The electronic state is 1-A.
 Alpha  occ. eigenvalues --  -19.15499 -19.15259 -19.14259 -10.30192 -10.29698
 Alpha  occ. eigenvalues --  -10.29472 -10.23324 -10.22547 -10.22089 -10.21991
 Alpha  occ. eigenvalues --  -10.20456 -10.20054 -10.19695 -10.19627 -10.19259
 Alpha  occ. eigenvalues --  -10.19217  -1.08767  -1.08178  -1.07668  -0.88314
 Alpha  occ. eigenvalues --   -0.87625  -0.81502  -0.78254  -0.76917  -0.72640
 Alpha  occ. eigenvalues --   -0.68182  -0.64419  -0.63073  -0.62084  -0.57524
 Alpha  occ. eigenvalues --   -0.54151  -0.53761  -0.51800  -0.50152  -0.48613
 Alpha  occ. eigenvalues --   -0.48152  -0.46577  -0.46391  -0.45461  -0.45198
 Alpha  occ. eigenvalues --   -0.44725  -0.44199  -0.43088  -0.42540  -0.41731
 Alpha  occ. eigenvalues --   -0.38230  -0.37929  -0.36384  -0.32599  -0.31626
 Alpha  occ. eigenvalues --   -0.30405  -0.30155  -0.28027  -0.27735  -0.27578
 Alpha virt. eigenvalues --   -0.14739  -0.08835  -0.04413  -0.03172  -0.01414
 Alpha virt. eigenvalues --   -0.00678   0.00300   0.01129   0.01251   0.01496
 Alpha virt. eigenvalues --    0.01990   0.03172   0.03667   0.03815   0.04649

  Beta  occ. eigenvalues --  -19.15499 -19.15259 -19.14259 -10.30192 -10.29698
  Beta  occ. eigenvalues --  -10.29472 -10.23324 -10.22547 -10.22089 -10.21991
  Beta  occ. eigenvalues --  -10.20456 -10.20054 -10.19695 -10.19627 -10.19259
  Beta  occ. eigenvalues --  -10.19217  -1.08767  -1.08178  -1.07668  -0.88314
  Beta  occ. eigenvalues --   -0.87625  -0.81502  -0.78254  -0.76917  -0.72640
  Beta  occ. eigenvalues --   -0.68182  -0.64419  -0.63073  -0.62084  -0.57524
  Beta  occ. eigenvalues --   -0.54151  -0.53761  -0.51800  -0.50152  -0.48613
  Beta  occ. eigenvalues --   -0.48152  -0.46577  -0.46391  -0.45461  -0.45198
  Beta  occ. eigenvalues --   -0.44725  -0.44199  -0.43088  -0.42540  -0.41731
  Beta  occ. eigenvalues --   -0.38230  -0.37929  -0.36384  -0.32599  -0.31626
  Beta  occ. eigenvalues --   -0.30405  -0.30155  -0.28027  -0.27735  -0.27578
  Beta virt. eigenvalues --   -0.14739  -0.08835  -0.04413  -0.03172  -0.01414
  Beta virt. eigenvalues --   -0.00678   0.00300   0.01129   0.01251   0.01496
  Beta virt. eigenvalues --    0.01990   0.03172   0.03667   0.03815   0.04649

 Mulliken charges and spin densities:
               1          2
     1  C   -0.668983   0.000000
     2  C   -0.119521  -0.000000
     3  C    0.265315  -0.000000
     4  C   -0.619354   0.000000
     5  C    0.292234  -0.000000
     6  C    0.967628  -0.000000
     7  O   -0.253252  -0.000000
     8  O   -0.278827  -0.000000
     9  C    0.842406   0.000000
    10  C    0.376576   0.000000
    11  C   -0.797158  -0.000000
    12  C   -0.309229   0.000000
    13  C   -0.461618   0.000000
    14  C   -0.262308   0.000000
    15  H    0.252607  -0.000000
    16  H    0.254569  -0.000000
    17  H    0.280942  -0.000000
    18  H    0.216584  -0.000000
    19  H    0.172564  -0.000000
    20  H    0.220106  -0.000000
    21  H    0.204899  -0.000000
    22  H    0.190665   0.000000
    23  C   -0.514971  -0.000000
    24  O   -0.251873  -0.000000
 Sum of Mulliken charges =  -0.00000   0.00000

 Dipole moment (field-independent basis, Debye):
    X=              1.5473    Y=             -3.6607    Z=             -2.2552  Tot=              4.5696
 Quadrupole moment (field-independent basis, Debye-Ang):
   XX=            -79.3350   YY=            -94.8854   ZZ=           -100.4190
   XY=              8.0384   XZ=            -11.6832   YZ=              3.8479

 Normal termination of Gaussian 16 at Wed Jan 24 22:50:57 2024.
