 Q-Chem 5.4, Q-Chem, Inc., Pleasanton, CA (2021)
 Q-Chem 5.4.0 for Intel X86 EM64T Linux

User input:
--------------------------------------------------------------
$molecule
-3 1
O                 -2.5807160000     -2.8115590000     -1.6731710000
S                 -3.0294080000     -2.3495850000     -0.3340160000
O                 -2.6099560000     -3.1802220000      0.8243300000
O                 -4.5217510000     -2.1254110000     -0.3184870000
C                 -2.3300320000     -0.6162030000     -0.0703910000
C                 -3.3435440000      0.3230190000      0.0454780000
C                 -3.0645870000      1.6899010000      0.2487680000
C                 -1.7602960000      2.1121360000      0.3431900000
C                 -0.6842280000      1.2019080000      0.2345080000
C                  0.6540600000      1.7820930000      0.3534320000
O                  0.8277720000      3.0347410000      0.5501860000
C                  1.7595100000      0.8625720000      0.2159300000
C                  3.0966840000      1.3390390000      0.2735060000
C                  4.1783390000      0.4875060000      0.1726700000
C                  3.9571570000     -0.9022360000      0.0010490000
C                  2.6613110000     -1.3840330000     -0.0833050000
C                  1.5357810000     -0.5360020000      0.0033390000
C                  0.1903870000     -1.1354720000     -0.1130640000
O                  0.0617700000     -2.3635400000     -0.3003060000
C                 -0.9501070000     -0.2109320000      0.0134740000
H                 -4.3634940000     -0.0304030000     -0.0245900000
H                 -3.8866780000      2.4006430000      0.3328190000
H                 -1.4965060000      3.1522210000      0.5027030000
H                  3.2325220000      2.4072030000      0.4072630000
H                  5.1969090000      0.8735890000      0.2265670000
H                  4.8067930000     -1.5794740000     -0.0713000000
H                  2.4623100000     -2.4414990000     -0.2227220000
$end
$rem
MAX_SCF_CYCLES=200
BASIS  =  6-311++G(d,p)
GUI  =  2
JOB_TYPE  =  SP
METHOD  =  B3LYP
SOLVENT_METHOD = PCM
$end
$pcm
theory = CPCM
$end
$solvent
dielectric 37.219
opticaldielectric 1.43
$end

--------------------------------------------------------------

             Standard Nuclear Orientation (Angstroms)
    I     Atom           X                Y                Z
 ----------------------------------------------------------------
    1      O      -2.5807160000    -2.8115590000    -1.6731710000
    2      S      -3.0294080000    -2.3495850000    -0.3340160000
    3      O      -2.6099560000    -3.1802220000     0.8243300000
    4      O      -4.5217510000    -2.1254110000    -0.3184870000
    5      C      -2.3300320000    -0.6162030000    -0.0703910000
    6      C      -3.3435440000     0.3230190000     0.0454780000
    7      C      -3.0645870000     1.6899010000     0.2487680000
    8      C      -1.7602960000     2.1121360000     0.3431900000
    9      C      -0.6842280000     1.2019080000     0.2345080000
   10      C       0.6540600000     1.7820930000     0.3534320000
   11      O       0.8277720000     3.0347410000     0.5501860000
   12      C       1.7595100000     0.8625720000     0.2159300000
   13      C       3.0966840000     1.3390390000     0.2735060000
   14      C       4.1783390000     0.4875060000     0.1726700000
   15      C       3.9571570000    -0.9022360000     0.0010490000
   16      C       2.6613110000    -1.3840330000    -0.0833050000
   17      C       1.5357810000    -0.5360020000     0.0033390000
   18      C       0.1903870000    -1.1354720000    -0.1130640000
   19      O       0.0617700000    -2.3635400000    -0.3003060000
   20      C      -0.9501070000    -0.2109320000     0.0134740000
   21      H      -4.3634940000    -0.0304030000    -0.0245900000
   22      H      -3.8866780000     2.4006430000     0.3328190000
   23      H      -1.4965060000     3.1522210000     0.5027030000
   24      H       3.2325220000     2.4072030000     0.4072630000
   25      H       5.1969090000     0.8735890000     0.2265670000
   26      H       4.8067930000    -1.5794740000    -0.0713000000
   27      H       2.4623100000    -2.4414990000    -0.2227220000
 ----------------------------------------------------------------

    9   -1312.6408505535      6.43e-06  Convergence criterion met
 Total energy in the final basis set =    -1312.6408505535

                    Orbital Energies (a.u.)
 --------------------------------------------------------------

 Alpha MOs
 -- Occupied --
-89.0280 -19.0747 -19.0746 -19.0692 -19.0188 -19.0169 -10.1788 -10.1773
-10.1710 -10.1482 -10.1472 -10.1461 -10.1461 -10.1456 -10.1449 -10.1447
-10.1445 -10.1369 -10.1336 -10.1332  -8.0865  -6.0493  -6.0492  -6.0480
 -1.0881  -0.9587  -0.9551  -0.9461  -0.9407  -0.8282  -0.8217  -0.7490
 -0.7305  -0.7202  -0.7063  -0.6317  -0.6159  -0.5904  -0.5841  -0.5452
 -0.5175  -0.5032  -0.4954  -0.4553  -0.4428  -0.4363  -0.4354  -0.4299
 -0.4254  -0.4185  -0.3975  -0.3815  -0.3754  -0.3713  -0.3683  -0.3478
 -0.3426  -0.3384  -0.3312  -0.3201  -0.3169  -0.3126  -0.3056  -0.3047
 -0.2869  -0.2725  -0.2667  -0.2401  -0.2332  -0.2265  -0.2235  -0.2174
 -0.2011  -0.1921  -0.0994

          Ground-State Mulliken Net Atomic Charges

     Atom                 Charge (a.u.)
  ----------------------------------------
      1 O                    -0.440934
      2 S                     0.673155
      3 O                    -0.440096
      4 O                    -0.485586
      5 C                    -0.857010
      6 C                     0.494008
      7 C                    -0.407204
      8 C                    -0.452586
      9 C                     0.653150
     10 C                    -0.399455
     11 O                    -0.676603
     12 C                     0.051863
     13 C                    -0.027962
     14 C                    -0.528096
     15 C                    -0.541289
     16 C                     0.061915
     17 C                     0.341804
     18 C                    -0.737994
     19 O                    -0.569395
     20 C                     0.108041
     21 H                     0.226273
     22 H                     0.185765
     23 H                     0.136749
     24 H                     0.144921
     25 H                     0.171711
     26 H                     0.171923
     27 H                     0.142931
  ----------------------------------------
  Sum of atomic charges =    -3.000000

                    Cartesian Multipole Moments
 -----------------------------------------------------------------
    Charge (ESU x 10^10)
               -14.4096
    Dipole Moment (Debye)
         X      13.4374      Y      12.0445      Z       1.0530
       Tot      18.0760
    Quadrupole Moments (Debye-Ang)
        XX    -217.2373     XY     -58.0310     YY    -230.1609
        XZ      -8.9533     YZ     -13.1863     ZZ    -147.9755

 Total job time:  106.95s(wall), 397.99s(cpu)
        *  Thank you very much for using Q-Chem.  Have a nice day.  *
