 Q-Chem 5.4, Q-Chem, Inc., Pleasanton, CA (2021)
 Q-Chem 5.4.0 for Intel X86 EM64T Linux

User input:
--------------------------------------------------------------
$molecule
-1 2
C                 -0.2250620000      3.8272890000     -0.1473050000
C                 -1.4414170000      3.1853320000     -0.2877360000
C                 -1.4822180000      1.8067060000     -0.5790380000
C                  0.9877030000      3.1190810000     -0.2917770000
C                  0.9485270000      1.7258850000     -0.5865530000
C                 -0.3011570000      1.0970130000     -0.7244780000
C                  2.2608170000      3.7919320000     -0.1443340000
C                  3.4462990000      2.9830640000     -0.3107090000
C                  3.4445970000      1.6324190000     -0.5885410000
C                  2.1870020000      0.9348090000     -0.7497980000
O                  2.4108690000      5.0305660000      0.1184320000
O                  2.1388850000     -0.2948190000     -1.0151780000
H                 -0.1679450000      4.8865610000      0.0767810000
H                 -2.3667190000      3.7428490000     -0.1738790000
H                 -2.4380810000      1.3031710000     -0.6891670000
H                 -0.3026360000      0.0364020000     -0.9493110000
O                  4.6077220000      3.6845000000     -0.1607970000
C                  4.7272820000      0.8580840000     -0.7490460000
C                  5.1913930000      0.7468730000     -2.2142790000
C                  6.4768200000     -0.0714890000     -2.3777560000
C                  6.9504220000     -0.1924270000     -3.8308980000
C                  8.2344810000     -1.0129740000     -3.9984980000
H                  4.2737260000      4.5881930000      0.0341200000
H                  4.5664180000     -0.1528110000     -0.3607260000
H                  5.5178790000      1.3320420000     -0.1581670000
H                  5.3449060000      1.7547680000     -2.6183440000
H                  4.3868130000      0.2874820000     -2.7983210000
H                  6.3173600000     -1.0769230000     -1.9657390000
H                  7.2757550000      0.3821330000     -1.7750210000
H                  7.1081430000      0.8128110000     -4.2438150000
H                  6.1514360000     -0.6449390000     -4.4326470000
H                  8.0774060000     -2.0186010000     -3.5858370000
H                  9.0344400000     -0.5609750000     -3.3965900000
C                  8.7076170000     -1.1349790000     -5.4516000000
C                  9.9909650000     -1.9570250000     -5.6082950000
H                  8.8653740000     -0.1308540000     -5.8644970000
H                  7.9094430000     -1.5872160000     -6.0531410000
H                 10.8171930000     -1.5100970000     -5.0454040000
H                 10.3012050000     -2.0252450000     -6.6557440000
H                  9.8539560000     -2.9773880000     -5.2351440000
$end
$rem
MAX_SCF_CYCLES=200
SCF_Guess=core
BASIS  =  6-311++G(d,p)
GUI  =  2
JOB_TYPE  =  SP
METHOD  =  B3LYP
THRESH = 14
SCF_CONVERGENCE = 8
SOLVENT_METHOD = COSMO
$end
$solvent
dielectric 37.219
opticaldielectric 1.43
$end

--------------------------------------------------------------

             Standard Nuclear Orientation (Angstroms)
    I     Atom           X                Y                Z
 ----------------------------------------------------------------
    1      C       4.8121445479    -0.2248263004    -0.7519615777
    2      C       5.4858880128     0.9795897319    -0.8344291842
    3      C       4.8468127114     2.1738098810    -0.4438498460
    4      C       3.4831178812    -0.2794396238    -0.2787436791
    5      C       2.8354487807     0.9264077312     0.1160722731
    6      C       3.5425567182     2.1377819517     0.0223478867
    7      C       2.7785038411    -1.5409324787    -0.1924766803
    8      C       1.4223030672    -1.4950315887     0.3034348274
    9      C       0.7683020578    -0.3479638298     0.7008686826
   10      C       1.4445764464     0.9287360842     0.6178084806
   11      O       3.2609473629    -2.6754599984    -0.5178554052
   12      O       0.8817370968     2.0018695349     0.9588704574
   13      H       5.2823451020    -1.1564090047    -1.0462389316
   14      H       6.5082695463     1.0066538462    -1.2004564326
   15      H       5.3767401331     3.1194814658    -0.5089048157
   16      H       3.0262761184     3.0405802489     0.3287093325
   17      O       0.8209053495    -2.7194271005     0.3540892498
   18      C      -0.6506858063    -0.3835193925     1.2066814938
   19      C      -1.6954989062    -0.1129644596     0.1067541027
   20      C      -3.1354911375    -0.1144414561     0.6313337986
   21      C      -4.1867451486     0.1550687661    -0.4516139243
   22      C      -5.6282482161     0.1572724091     0.0701702314
   23      H       1.5347655068    -3.3085137748     0.0230491176
   24      H      -0.7567964948     0.3847388482     1.9794027548
   25      H      -0.8535226234    -1.3589031908     1.6608857060
   26      H      -1.5913033084    -0.8702274914    -0.6796192657
   27      H      -1.4725927355     0.8564758728    -0.3514951810
   28      H      -3.2304907443     0.6417423256     1.4220576386
   29      H      -3.3481510929    -1.0818206900     1.1070571367
   30      H      -4.0907926638    -0.5997546762    -1.2433932440
   31      H      -3.9731828164     1.1213093481    -0.9270272869
   32      H      -5.7249894707     0.9121290214     0.8620540260
   33      H      -5.8427379290    -0.8091368386     0.5461724029
   34      C      -6.6795307700     0.4278630452    -1.0123425936
   35      C      -8.1164132007     0.4284037527    -0.4806813984
   36      H      -6.5840417216    -0.3261090508    -1.8035733687
   37      H      -6.4664306782     1.3933867311    -1.4875309519
   38      H      -8.3708719825    -0.5366548131    -0.0299527483
   39      H      -8.8413211432     0.6245654705    -1.2769736117
   40      H      -8.2521347508     1.1957215232     0.2887059465
 ----------------------------------------------------------------

   61    -885.8693744812      8.81e-09  Convergence criterion met
 Total energy in the final basis set =     -885.8693744812
   12    -885.9499805979      9.38e-09  Convergence criterion met
 Total energy in the final basis set =     -885.9499805979

                    Orbital Energies (a.u.)
 --------------------------------------------------------------

 Alpha MOs
 -- Occupied --
-19.1444 -19.0889 -19.0769 -10.2255 -10.2235 -10.2225 -10.1756 -10.1734
-10.1721 -10.1711 -10.1708 -10.1694 -10.1634 -10.1572 -10.1566 -10.1548
-10.1544 -10.1543 -10.1540 -10.1509  -1.0645  -1.0026  -0.9988  -0.8591
 -0.8139  -0.7993  -0.7752  -0.7518  -0.7484  -0.7172  -0.6824  -0.6593
 -0.6243  -0.6131  -0.5875  -0.5717  -0.5699  -0.5667  -0.5373  -0.5052
 -0.4851  -0.4752  -0.4616  -0.4529  -0.4452  -0.4387  -0.4274  -0.4248
 -0.4210  -0.4173  -0.4090  -0.3994  -0.3970  -0.3894  -0.3811  -0.3757
 -0.3662  -0.3624  -0.3582  -0.3462  -0.3448  -0.3373  -0.3325  -0.3311
 -0.3187  -0.3175  -0.3143  -0.3058  -0.2688  -0.2630  -0.2587  -0.2422
 -0.2284  -0.1534

 Beta MOs
 -- Occupied --
-19.1439 -19.0828 -19.0717 -10.2240 -10.2216 -10.2203 -10.1754 -10.1723
-10.1720 -10.1703 -10.1703 -10.1696 -10.1626 -10.1572 -10.1567 -10.1547
-10.1544 -10.1542 -10.1540 -10.1509  -1.0623  -0.9935  -0.9885  -0.8567
 -0.8116  -0.7981  -0.7739  -0.7495  -0.7473  -0.7163  -0.6776  -0.6546
 -0.6231  -0.6112  -0.5859  -0.5705  -0.5699  -0.5651  -0.5355  -0.5029
 -0.4828  -0.4744  -0.4603  -0.4519  -0.4447  -0.4311  -0.4258  -0.4200
 -0.4192  -0.4135  -0.4079  -0.3969  -0.3944  -0.3796  -0.3783  -0.3720
 -0.3651  -0.3602  -0.3489  -0.3444  -0.3363  -0.3333  -0.3303  -0.3288
 -0.3186  -0.3171  -0.3142  -0.3049  -0.2577  -0.2517  -0.2495  -0.2373
 -0.2199

          Ground-State Mulliken Net Atomic Charges

     Atom                 Charge (a.u.)    Spin (a.u.)
  --------------------------------------------------------
      1 C                     0.057016       0.076699
      2 C                    -0.390956      -0.001465
      3 C                    -0.476903       0.072049
      4 C                     0.458922      -0.006796
      5 C                    -0.101593       0.057285
      6 C                     0.096269       0.004996
      7 C                    -0.858607       0.177012
      8 C                    -0.595354       0.057748
      9 C                     1.989226       0.051639
     10 C                    -0.710821       0.083459
     11 O                    -0.555205       0.221719
     12 O                    -0.483968       0.192571
     13 H                     0.181113      -0.004117
     14 H                     0.204475      -0.000616
     15 H                     0.199609      -0.005062
     16 H                     0.179989      -0.000373
     17 O                    -0.301758       0.016196
     18 C                    -0.389520       0.010842
     19 C                    -0.610212      -0.001778
     20 C                    -0.107455       0.002173
     21 C                    -0.102812      -0.002815
     22 C                    -0.282709      -0.000357
     23 H                     0.307758      -0.003393
     24 H                     0.201121       0.002456
     25 H                     0.216686      -0.000531
     26 H                     0.169202       0.001904
     27 H                     0.178476      -0.001650
     28 H                     0.118709       0.000465
     29 H                     0.117652      -0.000292
     30 H                     0.128451      -0.000017
     31 H                     0.127717      -0.000025
     32 H                     0.130995      -0.000004
     33 H                     0.130554      -0.000008
     34 C                    -0.235469      -0.000016
     35 C                    -0.704240       0.000095
     36 H                     0.136160      -0.000002
     37 H                     0.136093      -0.000002
     38 H                     0.145395      -0.000015
     39 H                     0.150501       0.000019
     40 H                     0.145497       0.000007
  --------------------------------------------------------
  Sum of atomic charges =    -1.000000

                    Cartesian Multipole Moments
 -----------------------------------------------------------------
    Charge (ESU x 10^10)
                -4.8032
    Dipole Moment (Debye)
         X      -8.7854      Y       1.7116      Z      -1.5732
       Tot       9.0878
    Quadrupole Moments (Debye-Ang)
        XX    -149.2128     XY      14.9411     YY    -149.4297
        XZ       0.4729     YZ      -6.3948     ZZ    -130.8218

 Total job time:  1084.71s(wall), 8472.11s(cpu)
        *  Thank you very much for using Q-Chem.  Have a nice day.  *
