 Gaussian 16, Revision A.03,
 Gaussian 16:  ES64L-G16RevA.03 25-Dec-2016

 ----------------------------------------------------------------
 #P UB3LYP/6-311++G(d,p) SCRF=(PCM,Solvent=n,n-DiMethylFormamide)
 ----------------------------------------------------------------

 -------
 Reduced
 -------
 Symbolic Z-matrix:
 Charge = -2 Multiplicity = 1

                         Standard orientation:
 ---------------------------------------------------------------------
 Center     Atomic      Atomic             Coordinates (Angstroms)
 Number     Number       Type             X           Y           Z
 ---------------------------------------------------------------------
      1          6           0        5.008881   -0.359351   -0.866740
      2          6           0        5.533712   -1.604516   -0.572852
      3          6           0        4.790010   -2.512520    0.216489
      4          6           0        3.735206    0.041506   -0.400364
      5          6           0        2.983794   -0.879775    0.396262
      6          6           0        3.540528   -2.144150    0.684196
      7          6           0        3.231777    1.371958   -0.743847
      8          6           0        1.935306    1.688290   -0.237429
      9          6           0        1.204560    0.766086    0.570485
     10          6           0        1.660149   -0.542437    0.932972
     11          8           0        3.933376    2.178305   -1.461545
     12          8           0        0.993504   -1.370194    1.635843
     13          1           0        5.552691    0.361664   -1.468383
     14          1           0        6.516477   -1.886082   -0.946527
     15          1           0        5.196739   -3.493965    0.451422
     16          1           0        2.940653   -2.814085    1.291767
     17          6           0        1.380998    3.042474   -0.600987
     18         16           0       -0.318953    1.319601    1.344989
     19          6           0       -1.656682    0.457171    0.556004
     20          6           0       -2.956123    0.873756    0.800378
     21          6           0       -4.069172    0.229161    0.209614
     22          6           0       -3.846141   -0.886695   -0.664444
     23          6           0       -2.505175   -1.297682   -0.891361
     24          6           0       -1.441548   -0.656926   -0.304871
     25          6           0       -5.409817    0.646622    0.439674
     26          6           0       -6.474261   -0.000572   -0.148174
     27          6           0       -6.251328   -1.100613   -1.010098
     28          6           0       -4.963624   -1.525928   -1.258690
     29          1           0        1.346790    3.727955    0.259292
     30          1           0        0.355986    2.978615   -0.984649
     31          1           0        2.035220    3.481864   -1.356923
     32          1           0       -3.133809    1.724113    1.453705
     33          1           0       -2.325186   -2.150918   -1.540339
     34          1           0       -0.425619   -0.989264   -0.469301
     35          1           0       -5.583268    1.492362    1.100019
     36          1           0       -7.491632    0.329476    0.048616
     37          1           0       -7.097020   -1.605472   -1.469690
     38          1           0       -4.786123   -2.369927   -1.920510
 ---------------------------------------------------------------------

 SCF Done:  E(UB3LYP) =  -1357.83873203     A.U. after   19 cycles

 The electronic state is 1-A.
 Alpha  occ. eigenvalues --  -88.82990 -19.02136 -19.01144 -10.19954 -10.18463
 Alpha  occ. eigenvalues --  -10.18125 -10.17884 -10.17560 -10.17532 -10.17436
 Alpha  occ. eigenvalues --  -10.17345 -10.17339 -10.16979 -10.16939 -10.16669
 Alpha  occ. eigenvalues --  -10.15255 -10.15120 -10.15048 -10.14812 -10.14600
 Alpha  occ. eigenvalues --  -10.14046 -10.13954 -10.13313 -10.13031  -7.91585
 Alpha  occ. eigenvalues --   -5.87974  -5.87556  -5.87038  -0.94541  -0.93085
 Alpha  occ. eigenvalues --   -0.87632  -0.83003  -0.82802  -0.78877  -0.77369
 Alpha  occ. eigenvalues --   -0.75462  -0.72819  -0.72401  -0.72221  -0.69881
 Alpha  occ. eigenvalues --   -0.65567  -0.62610  -0.62146  -0.60346  -0.59531
 Alpha  occ. eigenvalues --   -0.57105  -0.56036  -0.52436  -0.51300  -0.50342
 Alpha  occ. eigenvalues --   -0.48623  -0.47429  -0.45938  -0.44540  -0.43896
 Alpha  occ. eigenvalues --   -0.43210  -0.42102  -0.41763  -0.41510  -0.40146
 Alpha  occ. eigenvalues --   -0.39666  -0.39469  -0.38836  -0.37954  -0.37369
 Alpha  occ. eigenvalues --   -0.36631  -0.36370  -0.35324  -0.34695  -0.34070
 Alpha  occ. eigenvalues --   -0.33626  -0.33237  -0.32793  -0.31832  -0.31073
 Alpha  occ. eigenvalues --   -0.30676  -0.29734  -0.29118  -0.26534  -0.23208
 Alpha  occ. eigenvalues --   -0.22880  -0.22429  -0.21432  -0.20145  -0.19739
 Alpha  occ. eigenvalues --   -0.18723  -0.11237
 Alpha virt. eigenvalues --   -0.04555  -0.01707  -0.00932  -0.00199   0.00224
 Alpha virt. eigenvalues --    0.00449   0.00789   0.00978   0.01382   0.01787
 Alpha virt. eigenvalues --    0.02567   0.02960   0.03216   0.03970   0.04188

  Beta  occ. eigenvalues --  -88.82990 -19.02136 -19.01144 -10.19954 -10.18463
  Beta  occ. eigenvalues --  -10.18125 -10.17884 -10.17560 -10.17532 -10.17436
  Beta  occ. eigenvalues --  -10.17345 -10.17339 -10.16979 -10.16939 -10.16669
  Beta  occ. eigenvalues --  -10.15255 -10.15120 -10.15048 -10.14812 -10.14600
  Beta  occ. eigenvalues --  -10.14046 -10.13954 -10.13313 -10.13031  -7.91585
  Beta  occ. eigenvalues --   -5.87974  -5.87556  -5.87038  -0.94541  -0.93085
  Beta  occ. eigenvalues --   -0.87632  -0.83003  -0.82802  -0.78877  -0.77369
  Beta  occ. eigenvalues --   -0.75462  -0.72819  -0.72401  -0.72221  -0.69881
  Beta  occ. eigenvalues --   -0.65567  -0.62610  -0.62146  -0.60346  -0.59531
  Beta  occ. eigenvalues --   -0.57105  -0.56036  -0.52436  -0.51300  -0.50342
  Beta  occ. eigenvalues --   -0.48623  -0.47429  -0.45938  -0.44540  -0.43896
  Beta  occ. eigenvalues --   -0.43210  -0.42102  -0.41763  -0.41510  -0.40146
  Beta  occ. eigenvalues --   -0.39666  -0.39469  -0.38836  -0.37954  -0.37369
  Beta  occ. eigenvalues --   -0.36631  -0.36370  -0.35324  -0.34695  -0.34070
  Beta  occ. eigenvalues --   -0.33626  -0.33237  -0.32793  -0.31832  -0.31073
  Beta  occ. eigenvalues --   -0.30676  -0.29734  -0.29118  -0.26534  -0.23208
  Beta  occ. eigenvalues --   -0.22880  -0.22429  -0.21432  -0.20145  -0.19739
  Beta  occ. eigenvalues --   -0.18723  -0.11237
  Beta virt. eigenvalues --   -0.04555  -0.01707  -0.00932  -0.00199   0.00224
  Beta virt. eigenvalues --    0.00449   0.00789   0.00978   0.01382   0.01787
  Beta virt. eigenvalues --    0.02567   0.02960   0.03216   0.03970   0.04188

 Mulliken charges and spin densities:
               1          2
     1  C    0.024646   0.000000
     2  C   -0.567399  -0.000000
     3  C   -0.490193  -0.000000
     4  C    0.344358   0.000000
     5  C   -0.051740  -0.000000
     6  C   -0.029065   0.000000
     7  C   -0.525014   0.000000
     8  C    0.631325   0.000000
     9  C    0.789979   0.000000
    10  C   -0.672844  -0.000000
    11  O   -0.683145   0.000000
    12  O   -0.578179   0.000000
    13  H    0.162781   0.000000
    14  H    0.155376  -0.000000
    15  H    0.160015  -0.000000
    16  H    0.168962   0.000000
    17  C   -0.371814   0.000000
    18  S   -0.675167   0.000000
    19  C    0.132104  -0.000000
    20  C   -0.148639   0.000000
    21  C   -0.042094   0.000000
    22  C    0.162391  -0.000000
    23  C   -0.263380  -0.000000
    24  C   -0.309503  -0.000000
    25  C   -0.160577   0.000000
    26  C   -0.310527  -0.000000
    27  C   -0.228154  -0.000000
    28  C   -0.272391   0.000000
    29  H    0.147370  -0.000000
    30  H    0.109957   0.000000
    31  H    0.163614  -0.000000
    32  H    0.163497  -0.000000
    33  H    0.193470   0.000000
    34  H    0.200258  -0.000000
    35  H    0.153552   0.000000
    36  H    0.185221  -0.000000
    37  H    0.186929  -0.000000
    38  H    0.144021   0.000000
 Sum of Mulliken charges =  -2.00000   0.00000

 Dipole moment (field-independent basis, Debye):
    X=            -20.4256    Y=             -4.3687    Z=             -1.7792  Tot=             20.9632
 Quadrupole moment (field-independent basis, Debye-Ang):
   XX=           -237.0344   YY=           -183.2705   ZZ=           -178.4848
   XY=            -22.5143   XZ=             15.5762   YZ=             21.9556

 Normal termination of Gaussian 16 at Thu Jan 25 05:56:28 2024.
