 Q-Chem 5.4, Q-Chem, Inc., Pleasanton, CA (2021)
 Q-Chem 5.4.0 for Intel X86 EM64T Linux

User input:
--------------------------------------------------------------
$molecule
-2 1
Cl                 3.0130710000      2.8801070000      0.3392980000
C                  2.6106840000      1.1238870000      0.2620000000
C                  3.7199430000      0.3110220000      0.3433040000
C                  3.5579200000     -1.1014760000      0.2956470000
C                  2.2946710000     -1.6248290000      0.1693000000
C                  1.1351030000     -0.8122730000      0.0835640000
C                 -0.1300580000     -1.4956340000     -0.0465530000
O                 -0.2272940000     -2.7825910000     -0.0851380000
C                 -1.2791870000     -0.6298540000     -0.1301670000
C                 -2.5745130000     -1.1990330000     -0.2603610000
C                 -3.7127630000     -0.4260250000     -0.3451930000
C                 -3.6022560000      0.9932500000     -0.3021770000
C                 -2.3563370000      1.5742480000     -0.1761620000
C                 -1.1651370000      0.8104780000     -0.0864060000
C                  0.1002770000      1.5191210000      0.0442470000
O                  0.1354440000      2.7975450000      0.0771280000
C                  1.2675950000      0.6584810000      0.1297660000
H                  4.7026790000      0.7580640000      0.4425730000
H                  4.4316670000     -1.7470080000      0.3594810000
H                  2.1186570000     -2.6949040000      0.1283580000
H                 -2.6201080000     -2.2835250000     -0.2897320000
H                 -4.6906340000     -0.8956480000     -0.4444360000
H                 -4.4945580000      1.6140690000     -0.3682880000
H                 -2.2348650000      2.6525280000     -0.1400490000
$end
$rem
MAX_SCF_CYCLES=200
BASIS  =  6-311++G(d,p)
GUI  =  2
JOB_TYPE  =  SP
METHOD  =  B3LYP
SOLVENT_METHOD = PCM
$end
$pcm
theory = CPCM
$end
$solvent
dielectric 37.219
opticaldielectric 1.43
$end

--------------------------------------------------------------

             Standard Nuclear Orientation (Angstroms)
    I     Atom           X                Y                Z
 ----------------------------------------------------------------
    1      Cl      3.0130710000     2.8801070000     0.3392980000
    2      C       2.6106840000     1.1238870000     0.2620000000
    3      C       3.7199430000     0.3110220000     0.3433040000
    4      C       3.5579200000    -1.1014760000     0.2956470000
    5      C       2.2946710000    -1.6248290000     0.1693000000
    6      C       1.1351030000    -0.8122730000     0.0835640000
    7      C      -0.1300580000    -1.4956340000    -0.0465530000
    8      O      -0.2272940000    -2.7825910000    -0.0851380000
    9      C      -1.2791870000    -0.6298540000    -0.1301670000
   10      C      -2.5745130000    -1.1990330000    -0.2603610000
   11      C      -3.7127630000    -0.4260250000    -0.3451930000
   12      C      -3.6022560000     0.9932500000    -0.3021770000
   13      C      -2.3563370000     1.5742480000    -0.1761620000
   14      C      -1.1651370000     0.8104780000    -0.0864060000
   15      C       0.1002770000     1.5191210000     0.0442470000
   16      O       0.1354440000     2.7975450000     0.0771280000
   17      C       1.2675950000     0.6584810000     0.1297660000
   18      H       4.7026790000     0.7580640000     0.4425730000
   19      H       4.4316670000    -1.7470080000     0.3594810000
   20      H       2.1186570000    -2.6949040000     0.1283580000
   21      H      -2.6201080000    -2.2835250000    -0.2897320000
   22      H      -4.6906340000    -0.8956480000    -0.4444360000
   23      H      -4.4945580000     1.6140690000    -0.3682880000
   24      H      -2.2348650000     2.6525280000    -0.1400490000
 ----------------------------------------------------------------

    9   -1148.8117325247      3.39e-06  Convergence criterion met
 Total energy in the final basis set =    -1148.8117325247

                    Orbital Energies (a.u.)
 --------------------------------------------------------------

 Alpha MOs
 -- Occupied --
******** -19.0246 -19.0234 -10.2165 -10.1861 -10.1776 -10.1571 -10.1567
-10.1540 -10.1527 -10.1516 -10.1487 -10.1486 -10.1485 -10.1451 -10.1415
-10.1411  -9.4453  -7.2094  -7.2007  -7.1997  -0.9479  -0.9409  -0.8587
 -0.8280  -0.8068  -0.7571  -0.7261  -0.7137  -0.7120  -0.6423  -0.6126
 -0.5957  -0.5562  -0.5266  -0.5135  -0.4986  -0.4476  -0.4437  -0.4379
 -0.4279  -0.4071  -0.4013  -0.3914  -0.3836  -0.3752  -0.3725  -0.3588
 -0.3582  -0.3350  -0.3283  -0.3220  -0.3181  -0.3073  -0.3015  -0.2970
 -0.2359  -0.2314  -0.2263  -0.2215  -0.2068  -0.1965  -0.1115

          Ground-State Mulliken Net Atomic Charges

     Atom                 Charge (a.u.)
  ----------------------------------------
      1 Cl                    0.290928
      2 C                     0.932213
      3 C                    -0.163168
      4 C                    -0.673314
      5 C                     0.188250
      6 C                     0.216592
      7 C                    -0.653009
      8 O                    -0.679439
      9 C                     0.056452
     10 C                     0.024652
     11 C                    -0.483207
     12 C                    -0.509543
     13 C                     0.090502
     14 C                     0.063194
     15 C                    -1.250094
     16 O                    -0.567104
     17 C                    -0.060275
     18 H                     0.192368
     19 H                     0.178945
     20 H                     0.153074
     21 H                     0.149119
     22 H                     0.175177
     23 H                     0.175900
     24 H                     0.151790
  ----------------------------------------
  Sum of atomic charges =    -2.000000

                    Cartesian Multipole Moments
 -----------------------------------------------------------------
    Charge (ESU x 10^10)
                -9.6064
    Dipole Moment (Debye)
         X      -1.5552      Y      -2.1708      Z      -0.1891
       Tot       2.6771
    Quadrupole Moments (Debye-Ang)
        XX    -130.0860     XY     -11.0467     YY    -173.4392
        XZ      -1.4049     YZ      -2.2913     ZZ    -117.6397

 Total job time:  174.97s(wall), 302.36s(cpu)
        *  Thank you very much for using Q-Chem.  Have a nice day.  *
