 Gaussian 16, Revision A.03,
 Gaussian 16:  ES64L-G16RevA.03 25-Dec-2016

 --------------------------------------
 #P UB3LYP/6-311++G(d,p) nosym opt freq
 --------------------------------------

 --------
 Oxidized
 --------
 Symbolic Z-matrix:
 Charge =  0 Multiplicity = 1

 SCF Done:  E(UB3LYP) =  -846.186269660     A.U. after   16 cycles
 SCF Done:  E(UB3LYP) =  -846.215751949     A.U. after   13 cycles
 SCF Done:  E(UB3LYP) =  -846.225531950     A.U. after   13 cycles
 SCF Done:  E(UB3LYP) =  -846.229150502     A.U. after   12 cycles
 SCF Done:  E(UB3LYP) =  -846.232008223     A.U. after   12 cycles
 SCF Done:  E(UB3LYP) =  -846.233969817     A.U. after   14 cycles
 SCF Done:  E(UB3LYP) =  -846.234868885     A.U. after   12 cycles
 SCF Done:  E(UB3LYP) =  -846.235058217     A.U. after   12 cycles
 SCF Done:  E(UB3LYP) =  -846.235071834     A.U. after   11 cycles
 SCF Done:  E(UB3LYP) =  -846.235088014     A.U. after   10 cycles
 SCF Done:  E(UB3LYP) =  -846.235091267     A.U. after   10 cycles
 SCF Done:  E(UB3LYP) =  -846.235095704     A.U. after   10 cycles
 SCF Done:  E(UB3LYP) =  -846.235098804     A.U. after   10 cycles
 SCF Done:  E(UB3LYP) =  -846.235100593     A.U. after   10 cycles
 SCF Done:  E(UB3LYP) =  -846.235100791     A.U. after    8 cycles
 Optimization completed.
    -- Stationary point found.
 Normal termination of Gaussian 16 at Sat Jan  6 02:51:26 2024.

 ----------------------------------------------------------------------
 #P Geom=AllCheck Guess=TCheck SCRF=Check GenChk UB3LYP/6-311++G(d,p) F
 req
 ----------------------------------------------------------------------

 Structure from the checkpoint file:  "330.chk"
 --------
 Oxidized
 --------
 Charge =  0 Multiplicity = 1

                          Input orientation:
 ---------------------------------------------------------------------
 Center     Atomic      Atomic             Coordinates (Angstroms)
 Number     Number       Type             X           Y           Z
 ---------------------------------------------------------------------
      1          6           0        4.743951    0.242468    0.947716
      2          6           0        3.971374   -0.599206   -0.084479
      3          6           0        4.598117   -0.474840   -1.485322
      4          6           0        2.490195   -0.257746   -0.096538
      5          6           0        2.027182    1.019585   -0.446782
      6          6           0        0.674061    1.328451   -0.457659
      7          6           0       -0.303447    0.377532   -0.118278
      8          6           0        0.161529   -0.903880    0.233812
      9          6           0        1.530219   -1.203673    0.241004
     10          6           0       -0.787609   -1.972169    0.607270
     11          8           0       -0.439547   -3.090693    0.917305
     12          6           0       -2.306436   -1.640358    0.600979
     13          8           0       -3.068736   -2.531236    0.912964
     14          6           0       -2.737039   -0.272464    0.219136
     15          6           0       -4.118970    0.058594    0.201994
     16          6           0       -5.220428   -0.909196    0.555316
     17          6           0       -4.488289    1.355299   -0.162828
     18          6           0       -3.535190    2.306004   -0.502431
     19          6           0       -2.185989    1.981512   -0.485205
     20          6           0       -1.755671    0.698316   -0.128036
     21          1           0        4.321111    0.127816    1.948895
     22          1           0        4.720215    1.306459    0.693133
     23          1           0        5.792700   -0.065968    0.984001
     24          1           0        4.050056   -1.648365    0.220138
     25          1           0        4.071781   -1.098917   -2.211834
     26          1           0        5.645996   -0.787572   -1.464087
     27          1           0        4.567948    0.557948   -1.845704
     28          1           0        2.735580    1.795047   -0.718402
     29          1           0        0.391183    2.333388   -0.738021
     30          1           0        1.819754   -2.210155    0.521839
     31          1           0       -5.112115   -1.291176    1.572245
     32          1           0       -6.188625   -0.412768    0.463808
     33          1           0       -5.209538   -1.788009   -0.092280
     34          1           0       -5.540231    1.617113   -0.178944
     35          1           0       -3.843285    3.307202   -0.782818
     36          1           0       -1.471809    2.745657   -0.755361
 ---------------------------------------------------------------------

 SCF Done:  E(UB3LYP) =  -846.235100791     A.U. after    1 cycles

 Alpha  occ. eigenvalues --  -19.12628 -19.12536 -10.27020 -10.26854 -10.21869
 Alpha  occ. eigenvalues --  -10.21543 -10.21230 -10.20522 -10.20055 -10.20016
 Alpha  occ. eigenvalues --  -10.20002 -10.19871 -10.19802 -10.19551 -10.19471
 Alpha  occ. eigenvalues --  -10.19244 -10.19113 -10.17157 -10.17157 -10.16915
 Alpha  occ. eigenvalues --   -1.07256  -1.04413  -0.90183  -0.87874  -0.83195
 Alpha  occ. eigenvalues --   -0.79866  -0.79524  -0.77756  -0.74558  -0.71805
 Alpha  occ. eigenvalues --   -0.69785  -0.68483  -0.65554  -0.63523  -0.61759
 Alpha  occ. eigenvalues --   -0.60048  -0.58627  -0.55030  -0.52701  -0.51102
 Alpha  occ. eigenvalues --   -0.49553  -0.48587  -0.47986  -0.46522  -0.45546
 Alpha  occ. eigenvalues --   -0.45266  -0.44797  -0.44262  -0.44043  -0.43067
 Alpha  occ. eigenvalues --   -0.42722  -0.42160  -0.41420  -0.40210  -0.39695
 Alpha  occ. eigenvalues --   -0.39460  -0.38404  -0.38106  -0.37213  -0.36555
 Alpha  occ. eigenvalues --   -0.36403  -0.35388  -0.34766  -0.34324  -0.30288
 Alpha  occ. eigenvalues --   -0.29509  -0.27897  -0.27077  -0.24916  -0.24480
 Alpha virt. eigenvalues --   -0.11769  -0.05894  -0.04670  -0.01703  -0.01120
 Alpha virt. eigenvalues --   -0.00975  -0.00022   0.00335   0.00877   0.01076
 Alpha virt. eigenvalues --    0.01086   0.02508   0.02633   0.03657   0.03758

  Beta  occ. eigenvalues --  -19.12628 -19.12536 -10.27020 -10.26854 -10.21869
  Beta  occ. eigenvalues --  -10.21543 -10.21230 -10.20522 -10.20055 -10.20016
  Beta  occ. eigenvalues --  -10.20002 -10.19871 -10.19802 -10.19551 -10.19471
  Beta  occ. eigenvalues --  -10.19244 -10.19113 -10.17157 -10.17157 -10.16915
  Beta  occ. eigenvalues --   -1.07256  -1.04413  -0.90183  -0.87874  -0.83195
  Beta  occ. eigenvalues --   -0.79866  -0.79524  -0.77756  -0.74558  -0.71805
  Beta  occ. eigenvalues --   -0.69785  -0.68483  -0.65554  -0.63523  -0.61759
  Beta  occ. eigenvalues --   -0.60048  -0.58627  -0.55030  -0.52701  -0.51102
  Beta  occ. eigenvalues --   -0.49553  -0.48587  -0.47986  -0.46522  -0.45546
  Beta  occ. eigenvalues --   -0.45266  -0.44797  -0.44262  -0.44043  -0.43067
  Beta  occ. eigenvalues --   -0.42722  -0.42160  -0.41420  -0.40210  -0.39695
  Beta  occ. eigenvalues --   -0.39460  -0.38404  -0.38106  -0.37213  -0.36555
  Beta  occ. eigenvalues --   -0.36403  -0.35388  -0.34766  -0.34324  -0.30288
  Beta  occ. eigenvalues --   -0.29509  -0.27897  -0.27077  -0.24916  -0.24480
  Beta virt. eigenvalues --   -0.11769  -0.05894  -0.04670  -0.01703  -0.01120
  Beta virt. eigenvalues --   -0.00975  -0.00022   0.00335   0.00877   0.01076
  Beta virt. eigenvalues --    0.01086   0.02508   0.02633   0.03657   0.03758

 Mulliken charges and spin densities:
               1          2
     1  C   -0.648193  -0.000000
     2  C    0.135013   0.000000
     3  C   -0.647870  -0.000000
     4  C    0.664113   0.000000
     5  C   -0.766920   0.000000
     6  C   -0.173187  -0.000000
     7  C    0.450399   0.000000
     8  C    0.989081   0.000000
     9  C   -0.304389  -0.000000
    10  C   -0.819719  -0.000000
    11  O   -0.190664   0.000000
    12  C   -0.928839  -0.000000
    13  O   -0.167764   0.000000
    14  C    0.701996   0.000000
    15  C    0.533691   0.000000
    16  C   -0.339209  -0.000000
    17  C   -0.475281  -0.000000
    18  C   -0.568105  -0.000000
    19  C   -0.394148  -0.000000
    20  C    0.568856  -0.000000
    21  H    0.142822   0.000000
    22  H    0.147984  -0.000000
    23  H    0.153365   0.000000
    24  H    0.192300  -0.000000
    25  H    0.142762   0.000000
    26  H    0.153351   0.000000
    27  H    0.147897  -0.000000
    28  H    0.178659  -0.000000
    29  H    0.078214   0.000000
    30  H    0.174526   0.000000
    31  H    0.178492  -0.000000
    32  H    0.144883   0.000000
    33  H    0.178307  -0.000000
    34  H    0.107965  -0.000000
    35  H    0.198695   0.000000
    36  H    0.060916  -0.000000
 Sum of Mulliken charges =  -0.00000  -0.00000

 Dipole moment (field-independent basis, Debye):
    X=              1.5579    Y=              5.5200    Z=             -1.7353  Tot=              5.9924
 Quadrupole moment (field-independent basis, Debye-Ang):
   XX=           -101.5851   YY=           -128.2967   ZZ=           -121.5581
   XY=            -11.2596   XZ=              2.1917   YZ=              2.8095

  Exact polarizability: 328.598  -8.487 225.134  -9.663 -29.781 132.734
 Approx polarizability: 446.063  -6.383 417.550 -13.119 -66.357 213.519

 ******    1 imaginary frequencies (negative Signs) ******

                      1                      2                      3
                      A                      A                      A
 Frequencies --    -29.8836                28.7718                38.7214
 Red. masses --      8.3319                 2.9642                 3.6843
 Frc consts  --      0.0044                 0.0014                 0.0033
 IR Inten    --      0.0186                 0.0013                 1.5603

                      4                      5                      6
                      A                      A                      A
 Frequencies --     57.0880               125.7662               125.9521
 Red. masses --      3.9913                 3.8381                 4.1055
 Frc consts  --      0.0077                 0.0358                 0.0384
 IR Inten    --      0.0731                 1.0184                 0.3903

                      7                      8                      9
                      A                      A                      A
 Frequencies --    152.6042               200.0600               228.5632
 Red. masses --      4.5685                 2.8352                 1.0820
 Frc consts  --      0.0627                 0.0669                 0.0333
 IR Inten    --      0.4065                 0.1641                 0.0809

                     10                     11                     12
                      A                      A                      A
 Frequencies --    229.7264               242.7447               245.7973
 Red. masses --      2.5855                 1.0978                 1.5628
 Frc consts  --      0.0804                 0.0381                 0.0556
 IR Inten    --      0.1282                 0.1832                 0.1363

                     13                     14                     15
                      A                      A                      A
 Frequencies --    256.4600               268.1521               322.0296
 Red. masses --      4.2847                 2.3782                 4.7113
 Frc consts  --      0.1660                 0.1008                 0.2879
 IR Inten    --      0.5620                 2.3451                 2.4011

                     16                     17                     18
                      A                      A                      A
 Frequencies --    362.0703               384.6517               387.2774
 Red. masses --      3.3436                 4.2409                 6.7732
 Frc consts  --      0.2583                 0.3697                 0.5985
 IR Inten    --      1.5050                 1.4341                 1.8465

                     19                     20                     21
                      A                      A                      A
 Frequencies --    389.0295               404.4353               434.7166
 Red. masses --      8.4308                 4.4774                 4.2146
 Frc consts  --      0.7518                 0.4315                 0.4693
 IR Inten    --      0.8827                 4.6091                 1.3901

                     22                     23                     24
                      A                      A                      A
 Frequencies --    444.4840               459.2913               499.0358
 Red. masses --      3.6029                 6.4811                 3.7046
 Frc consts  --      0.4194                 0.8055                 0.5436
 IR Inten    --      8.5018                 0.2233                 0.5296

                     25                     26                     27
                      A                      A                      A
 Frequencies --    533.0760               555.7932               567.5670
 Red. masses --      4.1060                 5.4821                 4.2516
 Frc consts  --      0.6875                 0.9978                 0.8069
 IR Inten    --      8.0207                 0.7419                 2.4473

                     28                     29                     30
                      A                      A                      A
 Frequencies --    595.0679               625.2466               648.6577
 Red. masses --      3.2109                 3.2210                 5.7808
 Frc consts  --      0.6699                 0.7419                 1.4331
 IR Inten    --      0.2518                 1.6789                 2.9916

                     31                     32                     33
                      A                      A                      A
 Frequencies --    694.0071               726.8714               730.5007
 Red. masses --      7.3360                 2.8027                 5.1995
 Frc consts  --      2.0818                 0.8725                 1.6348
 IR Inten    --      3.7876                 8.5084                 3.2801

                     34                     35                     36
                      A                      A                      A
 Frequencies --    745.2222               795.9460               808.0304
 Red. masses --      3.9660                 1.5377                 5.2385
 Frc consts  --      1.2977                 0.5740                 2.0152
 IR Inten    --      7.9498                33.9858                 1.6813

                     37                     38                     39
                      A                      A                      A
 Frequencies --    836.3281               845.4073               873.4429
 Red. masses --      5.7258                 1.6679                 5.1725
 Frc consts  --      2.3596                 0.7023                 2.3250
 IR Inten    --      0.0513                18.5980                 9.6351

                     40                     41                     42
                      A                      A                      A
 Frequencies --    894.6182               908.5565               931.9203
 Red. masses --      3.1380                 1.3687                 1.1952
 Frc consts  --      1.4797                 0.6657                 0.6116
 IR Inten    --     18.4777                 0.1404                 0.0001

                     43                     44                     45
                      A                      A                      A
 Frequencies --    950.2544               960.0980               962.5267
 Red. masses --      1.4415                 4.4487                 1.5334
 Frc consts  --      0.7669                 2.4161                 0.8370
 IR Inten    --      6.9213                11.2245                 0.0063

                     46                     47                     48
                      A                      A                      A
 Frequencies --    984.1384               998.2953              1022.8631
 Red. masses --      1.3641                 1.3301                 1.7502
 Frc consts  --      0.7784                 0.7810                 1.0789
 IR Inten    --      0.3784                 0.1445                 1.1994

                     49                     50                     51
                      A                      A                      A
 Frequencies --   1045.2466              1054.3290              1070.8701
 Red. masses --      3.7808                 1.5720                 1.7336
 Frc consts  --      2.4337                 1.0296                 1.1713
 IR Inten    --      4.4560                 2.8069                10.0161

                     52                     53                     54
                      A                      A                      A
 Frequencies --   1089.8154              1118.3627              1130.9100
 Red. masses --      3.2705                 2.3650                 1.8728
 Frc consts  --      2.2886                 1.7428                 1.4112
 IR Inten    --     10.7756                 1.0936                 5.2567

                     55                     56                     57
                      A                      A                      A
 Frequencies --   1162.5112              1182.1601              1204.7198
 Red. masses --      1.8211                 1.6114                 1.6768
 Frc consts  --      1.4501                 1.3268                 1.4338
 IR Inten    --      5.2752                 7.3377                17.8279

                     58                     59                     60
                      A                      A                      A
 Frequencies --   1213.1497              1244.1288              1256.0309
 Red. masses --      1.7968                 3.2368                 1.7937
 Frc consts  --      1.5581                 2.9519                 1.6672
 IR Inten    --     18.3965                52.7881                15.7804

                     61                     62                     63
                      A                      A                      A
 Frequencies --   1274.4052              1292.0505              1307.4938
 Red. masses --      2.1707                 3.5741                 3.8413
 Frc consts  --      2.0771                 3.5154                 3.8691
 IR Inten    --     26.6880                13.6673                 4.1923

                     64                     65                     66
                      A                      A                      A
 Frequencies --   1320.1329              1332.5812              1345.4242
 Red. masses --      3.2093                 2.5182                 1.3126
 Frc consts  --      3.2953                 2.6347                 1.4000
 IR Inten    --     78.7477                22.7261                 1.7052

                     67                     68                     69
                      A                      A                      A
 Frequencies --   1374.5712              1399.6872              1418.0196
 Red. masses --      2.1947                 1.2148                 1.2368
 Frc consts  --      2.4432                 1.4022                 1.4652
 IR Inten    --      5.7040                 6.4282                17.4376

                     70                     71                     72
                      A                      A                      A
 Frequencies --   1420.8440              1437.9087              1463.6152
 Red. masses --      1.2256                 2.6017                 2.6311
 Frc consts  --      1.4578                 3.1694                 3.3208
 IR Inten    --      6.2143                14.2831                12.8872

                     73                     74                     75
                      A                      A                      A
 Frequencies --   1474.2117              1481.1199              1487.5785
 Red. masses --      1.0444                 1.6077                 1.0440
 Frc consts  --      1.3373                 2.0779                 1.3612
 IR Inten    --      8.0062                12.9932                 0.0105

                     76                     77                     78
                      A                      A                      A
 Frequencies --   1491.5205              1496.8193              1503.8566
 Red. masses --      1.0457                 1.5820                 1.0531
 Frc consts  --      1.3706                 2.0884                 1.4032
 IR Inten    --      3.4172                59.1805                11.9089

                     79                     80                     81
                      A                      A                      A
 Frequencies --   1508.8084              1535.4966              1595.0171
 Red. masses --      1.0904                 2.6427                 5.8674
 Frc consts  --      1.4626                 3.6711                 8.7948
 IR Inten    --     15.9811                 8.0033                19.2999

                     82                     83                     84
                      A                      A                      A
 Frequencies --   1609.9823              1629.6618              1642.0070
 Red. masses --      5.6406                 5.5863                 5.9996
 Frc consts  --      8.6143                 8.7411                 9.5307
 IR Inten    --     49.6974                27.3830                16.2885

                     85                     86                     87
                      A                      A                      A
 Frequencies --   1736.6494              1760.7099              3020.2137
 Red. masses --     12.6975                12.7712                 1.0346
 Frc consts  --     22.5629                23.3269                 5.5600
 IR Inten    --    356.8288                40.6547                24.0807

                     88                     89                     90
                      A                      A                      A
 Frequencies --   3022.4456              3026.1666              3040.2680
 Red. masses --      1.0552                 1.0634                 1.0356
 Frc consts  --      5.6796                 5.7375                 5.6399
 IR Inten    --     21.5625                22.3951                20.5639

                     91                     92                     93
                      A                      A                      A
 Frequencies --   3080.5141              3087.5002              3093.1884
 Red. masses --      1.1020                 1.1007                 1.1023
 Frc consts  --      6.1613                 6.1822                 6.2139
 IR Inten    --      0.8262                80.5598                18.7930

                     94                     95                     96
                      A                      A                      A
 Frequencies --   3094.9752              3100.1703              3109.3547
 Red. masses --      1.1019                 1.0987                 1.1034
 Frc consts  --      6.2189                 6.2214                 6.2854
 IR Inten    --     35.3666                 5.8164                25.7467

                     97                     98                     99
                      A                      A                      A
 Frequencies --   3165.7059              3166.5850              3181.3571
 Red. masses --      1.0872                 1.0884                 1.0902
 Frc consts  --      6.4196                 6.4300                 6.5012
 IR Inten    --      1.0135                17.5332                 6.5637

                    100                    101                    102
                      A                      A                      A
 Frequencies --   3181.8408              3201.2983              3222.3572
 Red. masses --      1.0939                 1.0933                 1.0887
 Frc consts  --      6.5252                 6.6015                 6.6605
 IR Inten    --     20.0905                 0.5449                12.0048

 - Thermochemistry -
 -------------------
 Temperature   298.150 Kelvin.  Pressure   1.00000 Atm.
 Atom     1 has atomic number  6 and mass  12.00000

 Molecular mass:   264.11503 amu.
 Principal axes and moments of inertia in atomic units:
                           1         2         3
     Eigenvalues --  2442.653888979.11658**********
           X            0.99836   0.00690   0.05690
           Y           -0.02285   0.95834   0.28472
           Z           -0.05256  -0.28556   0.95692
 This molecule is an asymmetric top.
 Rotational symmetry number  1.
 Warning -- assumption of classical behavior for rotation
           may cause significant error
 Rotational temperatures (Kelvin)      0.03546     0.00965     0.00786
 Rotational constants (GHZ):           0.73884     0.20099     0.16381
    1 imaginary frequencies ignored.
 Zero-point vibrational energy     761950.7 (Joules/Mol)
                                  182.11059 (Kcal/Mol)
 Warning -- explicit consideration of  27 degrees of freedom as
           vibrations may cause significant error
 Vibrational temperatures:     41.40    55.71    82.14   180.95   181.22
          (Kelvin)            219.56   287.84   328.85   330.53   349.26
                              353.65   368.99   385.81   463.33   520.94
                              553.43   557.21   559.73   581.89   625.46
                              639.51   660.82   718.00   766.98   799.66
                              816.60   856.17   899.59   933.27   998.52
                             1045.81  1051.03  1072.21  1145.19  1162.58
                             1203.29  1216.35  1256.69  1287.16  1307.21
                             1340.83  1367.20  1381.37  1384.86  1415.96
                             1436.32  1471.67  1503.88  1516.94  1540.74
                             1568.00  1609.07  1627.13  1672.59  1700.86
                             1733.32  1745.45  1790.02  1807.15  1833.58
                             1858.97  1881.19  1899.38  1917.29  1935.77
                             1977.70  2013.84  2040.21  2044.28  2068.83
                             2105.82  2121.06  2131.00  2140.29  2145.97
                             2153.59  2163.71  2170.84  2209.24  2294.87
                             2316.41  2344.72  2362.48  2498.65  2533.27
                             4345.41  4348.63  4353.98  4374.27  4432.17
                             4442.22  4450.41  4452.98  4460.45  4473.67
                             4554.74  4556.01  4577.26  4577.96  4605.95
                             4636.25

 Zero-point correction=                           0.290212 (Hartree/Particle)
 Thermal correction to Energy=                    0.306764
 Thermal correction to Enthalpy=                  0.307708
 Thermal correction to Gibbs Free Energy=         0.245909
 Sum of electronic and zero-point Energies=           -845.944889
 Sum of electronic and thermal Energies=              -845.928337
 Sum of electronic and thermal Enthalpies=            -845.927393
 Sum of electronic and thermal Free Energies=         -845.989192

                     E (Thermal)             CV                S
                      KCal/Mol        Cal/Mol-Kelvin    Cal/Mol-Kelvin
 Total                  192.497             66.248            130.068
 Electronic               0.000              0.000              0.000
 Translational            0.889              2.981             42.613
 Rotational               0.889              2.981             33.846
 Vibrational            190.720             60.287             53.609
 Vibration     1          0.593              1.984              5.912
 Vibration     2          0.594              1.981              5.323
 Vibration     3          0.596              1.975              4.555
 Vibration     4          0.611              1.927              3.010
 Vibration     5          0.611              1.927              3.007
 Vibration     6          0.619              1.900              2.640
 Vibration     7          0.638              1.840              2.133
 Vibration     8          0.651              1.797              1.890
 Vibration     9          0.652              1.796              1.881
 Vibration    10          0.659              1.775              1.783
 Vibration    11          0.660              1.770              1.761
 Vibration    12          0.666              1.752              1.686
 Vibration    13          0.673              1.732              1.608
 Vibration    14          0.707              1.631              1.300
 Vibration    15          0.736              1.550              1.113
 Vibration    16          0.754              1.503              1.021
 Vibration    17          0.756              1.497              1.011
 Vibration    18          0.757              1.494              1.004
 Vibration    19          0.770              1.461              0.946
 Vibration    20          0.795              1.395              0.843
 Vibration    21          0.804              1.373              0.813
 Vibration    22          0.817              1.340              0.768
 Vibration    23          0.854              1.252              0.661
 Vibration    24          0.888              1.177              0.580
 Vibration    25          0.911              1.127              0.532
 Vibration    26          0.924              1.101              0.509
 Vibration    27          0.953              1.042              0.458

                           ! Non-Optimized Parameters !
 Normal termination of Gaussian 16 at Sat Jan  6 03:44:50 2024.
