 Gaussian 16, Revision A.03,
 Gaussian 16:  ES64L-G16RevA.03 25-Dec-2016

 ----------------------------------------------------------------------
 #P UB3LYP/6-311++G(d,p) nosym opt freq SCRF=(PCM,Solvent=n,n-DiMethylF
 ormamide)
 ----------------------------------------------------------------------

 -------
 Reduced
 -------
 Symbolic Z-matrix:
 Charge = -2 Multiplicity = 1

 SCF Done:  E(UB3LYP) =  -1069.40851923     A.U. after   18 cycles
 SCF Done:  E(UB3LYP) =  -1069.40970006     A.U. after   14 cycles
 SCF Done:  E(UB3LYP) =  -1069.40995659     A.U. after   14 cycles
 SCF Done:  E(UB3LYP) =  -1069.40936109     A.U. after   15 cycles
 SCF Done:  E(UB3LYP) =  -1069.41029556     A.U. after   13 cycles
 SCF Done:  E(UB3LYP) =  -1069.41040442     A.U. after   14 cycles
 SCF Done:  E(UB3LYP) =  -1069.41045941     A.U. after   14 cycles
 SCF Done:  E(UB3LYP) =  -1069.41046801     A.U. after   12 cycles
 SCF Done:  E(UB3LYP) =  -1069.41047309     A.U. after   12 cycles
 SCF Done:  E(UB3LYP) =  -1069.41047522     A.U. after   12 cycles
 SCF Done:  E(UB3LYP) =  -1069.41047604     A.U. after   10 cycles
 SCF Done:  E(UB3LYP) =  -1069.41047656     A.U. after   10 cycles
 SCF Done:  E(UB3LYP) =  -1069.41047677     A.U. after   10 cycles
 SCF Done:  E(UB3LYP) =  -1069.41047683     A.U. after    9 cycles
 Optimization completed.
    -- Stationary point found.
 Normal termination of Gaussian 16 at Sat Feb 10 13:19:18 2024.

 ----------------------------------------------------------------------
 #P Geom=AllCheck Guess=TCheck SCRF=Check GenChk UB3LYP/6-311++G(d,p) F
 req
 ----------------------------------------------------------------------

 Structure from the checkpoint file:  "115-an.chk"
 -------
 Reduced
 -------
 Charge = -2 Multiplicity = 1

                          Input orientation:
 ---------------------------------------------------------------------
 Center     Atomic      Atomic             Coordinates (Angstroms)
 Number     Number       Type             X           Y           Z
 ---------------------------------------------------------------------
      1          6           0       -2.227223   -3.853694    1.247957
      2          6           0       -0.804527   -3.868593    1.393055
      3          6           0       -0.018133   -2.733098    1.551979
      4          6           0       -0.555040   -1.413167    1.586010
      5          6           0       -1.975968   -1.366307    1.442412
      6          6           0       -2.745505   -2.531434    1.285202
      7          8           0       -2.941837   -4.933132    1.101769
      8          8           0        0.171694   -0.337447    1.734992
      9         17           0       -4.524883   -2.347568    1.111341
     10          6           0       -2.609161   -0.016122    1.450084
     11          8           0       -2.780496    0.695179    0.478916
     12          8           0       -2.975935    0.370216    2.691955
     13          6           0       -3.580118    1.674839    2.814188
     14          1           0       -0.327449   -4.846578    1.374062
     15          1           0        1.059268   -2.839636    1.659146
     16          1           0       -3.815312    1.789173    3.869958
     17          1           0       -4.488897    1.732788    2.213944
     18          1           0       -2.881850    2.449542    2.494929
 ---------------------------------------------------------------------

 SCF Done:  E(UB3LYP) =  -1069.41047683     A.U. after    1 cycles

 Alpha  occ. eigenvalues -- -101.52976 -19.16312 -19.10827 -19.02057 -19.02011
 Alpha  occ. eigenvalues --  -10.29745 -10.21654 -10.19200 -10.18285 -10.18240
 Alpha  occ. eigenvalues --  -10.15009 -10.13513 -10.13208  -9.44421  -7.20806
 Alpha  occ. eigenvalues --   -7.19952  -7.19912  -1.10160  -1.01334  -0.93392
 Alpha  occ. eigenvalues --   -0.92899  -0.84119  -0.78348  -0.74370  -0.69833
 Alpha  occ. eigenvalues --   -0.65966  -0.60077  -0.55392  -0.54228  -0.49299
 Alpha  occ. eigenvalues --   -0.47730  -0.47559  -0.44494  -0.43379  -0.41882
 Alpha  occ. eigenvalues --   -0.39606  -0.38434  -0.37580  -0.36472  -0.35754
 Alpha  occ. eigenvalues --   -0.34218  -0.33386  -0.32876  -0.30789  -0.30402
 Alpha  occ. eigenvalues --   -0.29513  -0.28043  -0.22998  -0.22049  -0.20274
 Alpha  occ. eigenvalues --   -0.20231  -0.12938
 Alpha virt. eigenvalues --    0.00104   0.00614   0.00838   0.01332   0.01738
 Alpha virt. eigenvalues --    0.02760   0.03557   0.03973   0.04679   0.05357
 Alpha virt. eigenvalues --    0.06273   0.06724   0.06880   0.07085   0.08007

  Beta  occ. eigenvalues -- -101.52976 -19.16312 -19.10827 -19.02057 -19.02011
  Beta  occ. eigenvalues --  -10.29745 -10.21654 -10.19200 -10.18285 -10.18240
  Beta  occ. eigenvalues --  -10.15009 -10.13513 -10.13208  -9.44421  -7.20806
  Beta  occ. eigenvalues --   -7.19952  -7.19912  -1.10160  -1.01334  -0.93392
  Beta  occ. eigenvalues --   -0.92899  -0.84119  -0.78348  -0.74370  -0.69833
  Beta  occ. eigenvalues --   -0.65966  -0.60077  -0.55392  -0.54228  -0.49299
  Beta  occ. eigenvalues --   -0.47730  -0.47559  -0.44494  -0.43379  -0.41882
  Beta  occ. eigenvalues --   -0.39606  -0.38434  -0.37580  -0.36472  -0.35754
  Beta  occ. eigenvalues --   -0.34218  -0.33386  -0.32876  -0.30789  -0.30402
  Beta  occ. eigenvalues --   -0.29513  -0.28043  -0.22998  -0.22049  -0.20274
  Beta  occ. eigenvalues --   -0.20231  -0.12938
  Beta virt. eigenvalues --    0.00104   0.00614   0.00838   0.01332   0.01738
  Beta virt. eigenvalues --    0.02760   0.03557   0.03973   0.04679   0.05357
  Beta virt. eigenvalues --    0.06273   0.06724   0.06880   0.07085   0.08007

 Mulliken charges and spin densities:
               1          2
     1  C   -0.674289   0.000000
     2  C   -0.053887   0.000000
     3  C    0.116045  -0.000000
     4  C   -0.732824   0.000000
     5  C    0.553027  -0.000000
     6  C    0.561149  -0.000000
     7  O   -0.687279   0.000000
     8  O   -0.691619   0.000000
     9  Cl   0.326301   0.000000
    10  C   -1.002043  -0.000000
    11  O   -0.273036  -0.000000
    12  O   -0.018413   0.000000
    13  C   -0.229501  -0.000000
    14  H    0.153173  -0.000000
    15  H    0.146439  -0.000000
    16  H    0.163864  -0.000000
    17  H    0.170940   0.000000
    18  H    0.171953  -0.000000
 Sum of Mulliken charges =  -2.00000  -0.00000

 Dipole moment (field-independent basis, Debye):
    X=             16.9930    Y=             23.3632    Z=            -11.1080  Tot=             30.9514
 Quadrupole moment (field-independent basis, Debye-Ang):
   XX=           -144.8985   YY=           -187.4400   ZZ=           -105.6121
   XY=            -69.7139   XZ=             11.6765   YZ=             31.3355

  Exact polarizability: 231.769   4.098 236.482   9.438  10.326 131.004
 Approx polarizability: 253.666   9.788 255.588  12.396   6.514 146.171

                      1                      2                      3
                      A                      A                      A
 Frequencies --     28.5901                70.7795               104.1853
 Red. masses --      5.5737                 7.9577                 3.9400
 Frc consts  --      0.0027                 0.0235                 0.0252
 IR Inten    --      6.0018                 1.7126                 1.9422

                      4                      5                      6
                      A                      A                      A
 Frequencies --    140.4430               150.4957               156.6432
 Red. masses --      6.0831                 1.2078                 9.2321
 Frc consts  --      0.0707                 0.0161                 0.1335
 IR Inten    --     23.8554                 0.4418                 3.0480

                      7                      8                      9
                      A                      A                      A
 Frequencies --    201.9074               232.2650               285.7776
 Red. masses --      7.1754                 9.7941                 6.5207
 Frc consts  --      0.1723                 0.3113                 0.3138
 IR Inten    --      2.2831                 0.2343                 4.6788

                     10                     11                     12
                      A                      A                      A
 Frequencies --    305.6643               324.4068               331.3789
 Red. masses --      7.8106                 6.6857                14.5186
 Frc consts  --      0.4300                 0.4146                 0.9393
 IR Inten    --     14.1982                10.8686                 1.6043

                     13                     14                     15
                      A                      A                      A
 Frequencies --    404.0661               460.8533               510.3720
 Red. masses --      5.5106                10.5808                10.6183
 Frc consts  --      0.5301                 1.3240                 1.6296
 IR Inten    --      4.8014                11.6492                24.4847

                     16                     17                     18
                      A                      A                      A
 Frequencies --    544.9838               556.8592               637.4598
 Red. masses --      4.9705                 5.8820                 3.0024
 Frc consts  --      0.8698                 1.0746                 0.7188
 IR Inten    --      5.2133                 0.6740                 9.2187

                     19                     20                     21
                      A                      A                      A
 Frequencies --    702.2505               739.3318               743.6205
 Red. masses --      8.0623                 7.0343                 7.5017
 Frc consts  --      2.3426                 2.2654                 2.4441
 IR Inten    --      2.5869                 3.5934                86.8183

                     22                     23                     24
                      A                      A                      A
 Frequencies --    804.1485               815.0691               866.8960
 Red. masses --      5.9557                 1.9408                10.3757
 Frc consts  --      2.2691                 0.7596                 4.5941
 IR Inten    --     88.9974                74.2582               289.9337

                     25                     26                     27
                      A                      A                      A
 Frequencies --    916.2846               924.2950              1003.4775
 Red. masses --      1.3802                 5.3696                 6.6649
 Frc consts  --      0.6827                 2.7028                 3.9542
 IR Inten    --      4.6801                52.3198                88.5031

                     28                     29                     30
                      A                      A                      A
 Frequencies --   1088.5857              1116.7841              1163.3162
 Red. masses --      3.6980                 2.0302                 1.2873
 Frc consts  --      2.5819                 1.4918                 1.0265
 IR Inten    --    103.2285               240.4588                 1.3918

                     31                     32                     33
                      A                      A                      A
 Frequencies --   1174.2488              1201.7425              1227.9364
 Red. masses --      2.5657                 1.5517                 5.2532
 Frc consts  --      2.0844                 1.3203                 4.6669
 IR Inten    --    400.5340                36.2706               301.0353

                     34                     35                     36
                      A                      A                      A
 Frequencies --   1299.6945              1344.5839              1387.0629
 Red. masses --      3.0621                 9.7472                 7.0136
 Frc consts  --      3.0476                10.3826                 7.9503
 IR Inten    --    723.4627                46.7585               724.4807

                     37                     38                     39
                      A                      A                      A
 Frequencies --   1421.8023              1460.9593              1473.6443
 Red. masses --      4.1726                 1.2102                 1.0464
 Frc consts  --      4.9697                 1.5219                 1.3388
 IR Inten    --   1005.1085                18.2963                 8.4556

                     40                     41                     42
                      A                      A                      A
 Frequencies --   1485.7120              1490.0016              1609.8275
 Red. masses --      1.0718                 3.9491                 7.9868
 Frc consts  --      1.3939                 5.1656                12.1950
 IR Inten    --     33.1093               312.3080                37.4690

                     43                     44                     45
                      A                      A                      A
 Frequencies --   1718.8464              3048.4775              3112.1988
 Red. masses --     11.8385                 1.0296                 1.0849
 Frc consts  --     20.6074                 5.6374                 6.1910
 IR Inten    --    640.1791                50.0593                59.2621

                     46                     47                     48
                      A                      A                      A
 Frequencies --   3122.2937              3134.3070              3154.7651
 Red. masses --      1.1073                 1.0929                 1.1058
 Frc consts  --      6.3604                 6.3260                 6.4845
 IR Inten    --     32.3572                90.0356                22.8196

 - Thermochemistry -
 -------------------
 Temperature   298.150 Kelvin.  Pressure   1.00000 Atm.
 Atom     1 has atomic number  6 and mass  12.00000

 Molecular mass:   199.98764 amu.
 Principal axes and moments of inertia in atomic units:
                           1         2         3
     Eigenvalues --  1832.053252895.029954317.17424
           X           -0.13272   0.98964  -0.05471
           Y            0.97802   0.12181  -0.16922
           Z            0.16080   0.07597   0.98406
 This molecule is an asymmetric top.
 Rotational symmetry number  1.
 Warning -- assumption of classical behavior for rotation
           may cause significant error
 Rotational temperatures (Kelvin)      0.04728     0.02992     0.02006
 Rotational constants (GHZ):           0.98509     0.62339     0.41804
 Zero-point vibrational energy     300258.5 (Joules/Mol)
                                   71.76349 (Kcal/Mol)
 Warning -- explicit consideration of  17 degrees of freedom as
           vibrations may cause significant error
 Vibrational temperatures:     41.13   101.84   149.90   202.07   216.53
          (Kelvin)            225.37   290.50   334.18   411.17   439.78
                              466.75   476.78   581.36   663.07   734.31
                              784.11   801.20   917.16  1010.38  1063.73
                             1069.90  1156.99  1172.70  1247.27  1318.33
                             1329.85  1443.78  1566.23  1606.80  1673.75
                             1689.48  1729.04  1766.73  1869.97  1934.56
                             1995.67  2045.66  2101.99  2120.25  2137.61
                             2143.78  2316.18  2473.04  4386.08  4477.76
                             4492.28  4509.57  4539.00

 Zero-point correction=                           0.114362 (Hartree/Particle)
 Thermal correction to Energy=                    0.126354
 Thermal correction to Enthalpy=                  0.127298
 Thermal correction to Gibbs Free Energy=         0.074951
 Sum of electronic and zero-point Energies=          -1069.296114
 Sum of electronic and thermal Energies=             -1069.284123
 Sum of electronic and thermal Enthalpies=           -1069.283179
 Sum of electronic and thermal Free Energies=        -1069.335525

                     E (Thermal)             CV                S
                      KCal/Mol        Cal/Mol-Kelvin    Cal/Mol-Kelvin
 Total                   79.288             42.814            110.172
 Electronic               0.000              0.000              0.000
 Translational            0.889              2.981             41.784
 Rotational               0.889              2.981             31.505
 Vibrational             77.511             36.852             36.884
 Vibration     1          0.593              1.984              5.925
 Vibration     2          0.598              1.968              4.132
 Vibration     3          0.605              1.946              3.374
 Vibration     4          0.615              1.913              2.798
 Vibration     5          0.618              1.902              2.666
 Vibration     6          0.620              1.895              2.590
 Vibration     7          0.639              1.837              2.116
 Vibration     8          0.653              1.792              1.861
 Vibration     9          0.684              1.700              1.499
 Vibration    10          0.696              1.663              1.386
 Vibration    11          0.709              1.627              1.288
 Vibration    12          0.714              1.613              1.253
 Vibration    13          0.769              1.461              0.948
 Vibration    14          0.819              1.337              0.764
 Vibration    15          0.865              1.227              0.633
 Vibration    16          0.900              1.151              0.555
 Vibration    17          0.912              1.125              0.530

 Optimization completed.
    -- Stationary point found.
 Normal termination of Gaussian 16 at Sat Feb 10 13:31:36 2024.
