 Q-Chem 5.4, Q-Chem, Inc., Pleasanton, CA (2021)
 Q-Chem 5.4.0 for Intel X86 EM64T Linux

User input:
--------------------------------------------------------------
$molecule
0 1
C                  0.0795060000     -0.9041360000      1.4456310000
C                 -0.0725650000     -0.8068880000     -0.0488930000
C                 -0.7275940000     -1.7754970000     -0.7139630000
C                 -1.3746920000     -2.9126420000     -0.0234140000
C                 -1.2933770000     -2.9512240000      1.4572450000
C                 -0.6218390000     -2.0128640000      2.1351900000
O                  0.7834030000     -0.1265330000      2.0632440000
O                 -1.9588190000     -3.7831530000     -0.6493620000
C                  0.6148250000      0.3059100000     -0.7491970000
H                 -1.7968000000     -3.7796980000      1.9429880000
H                 -0.8451130000     -1.7544530000     -1.7918680000
H                 -0.5308860000     -2.0202420000      3.2156030000
C                  0.4068140000      1.6669970000     -0.4748020000
C                  1.1210670000      2.6720500000     -1.1163590000
C                  2.0653520000      2.3336300000     -2.0788570000
C                  2.2884580000      0.9933180000     -2.3822280000
C                  1.5765300000     -0.0027770000     -1.7189530000
N                 -0.6419670000      2.0984860000      0.4765530000
O                 -0.5523570000      3.2208840000      0.9496870000
O                 -1.5546870000      1.3138540000      0.7111150000
H                  0.9181740000      3.7026450000     -0.8598510000
H                  2.6189160000      3.1132090000     -2.5877820000
H                  3.0241220000      0.7181170000     -3.1288810000
H                  1.7803770000     -1.0450410000     -1.9326180000
$end

$rem
BASIS  =  6-311++G(d,p)
GUI  =  2
JOB_TYPE  =  SP
METHOD  =  B3LYP
SCF_CONVERGENCE  = 8
SOLVENT_METHOD = sm12
$end

$smx
solvent dimethylformamide
charges CM5
$end

--------------------------------------------------------------

             Standard Nuclear Orientation (Angstroms)
    I     Atom           X                Y                Z
 ----------------------------------------------------------------
    1      C       0.0795060000    -0.9041360000     1.4456310000
    2      C      -0.0725650000    -0.8068880000    -0.0488930000
    3      C      -0.7275940000    -1.7754970000    -0.7139630000
    4      C      -1.3746920000    -2.9126420000    -0.0234140000
    5      C      -1.2933770000    -2.9512240000     1.4572450000
    6      C      -0.6218390000    -2.0128640000     2.1351900000
    7      O       0.7834030000    -0.1265330000     2.0632440000
    8      O      -1.9588190000    -3.7831530000    -0.6493620000
    9      C       0.6148250000     0.3059100000    -0.7491970000
   10      H      -1.7968000000    -3.7796980000     1.9429880000
   11      H      -0.8451130000    -1.7544530000    -1.7918680000
   12      H      -0.5308860000    -2.0202420000     3.2156030000
   13      C       0.4068140000     1.6669970000    -0.4748020000
   14      C       1.1210670000     2.6720500000    -1.1163590000
   15      C       2.0653520000     2.3336300000    -2.0788570000
   16      C       2.2884580000     0.9933180000    -2.3822280000
   17      C       1.5765300000    -0.0027770000    -1.7189530000
   18      N      -0.6419670000     2.0984860000     0.4765530000
   19      O      -0.5523570000     3.2208840000     0.9496870000
   20      O      -1.5546870000     1.3138540000     0.7111150000
   21      H       0.9181740000     3.7026450000    -0.8598510000
   22      H       2.6189160000     3.1132090000    -2.5877820000
   23      H       3.0241220000     0.7181170000    -3.1288810000
   24      H       1.7803770000    -1.0450410000    -1.9326180000
 ----------------------------------------------------------------

   16    -817.2273829887      7.29e-09  Convergence criterion met
 Total energy in the final basis set =     -817.2526123498

                    Orbital Energies (a.u.)
 --------------------------------------------------------------

 Alpha MOs
 -- Occupied --
-19.1759 -19.1753 -19.1442 -19.1396 -14.5696 -10.2919 -10.2853 -10.2535
-10.2327 -10.2294 -10.2131 -10.2122 -10.2113 -10.2085 -10.2041 -10.2022
-10.2003  -1.2542  -1.0823  -1.0763  -1.0690  -0.9092  -0.8687  -0.8199
 -0.8173  -0.7700  -0.7213  -0.7057  -0.6603  -0.6267  -0.6251  -0.5999
 -0.5705  -0.5583  -0.5366  -0.5284  -0.5215  -0.5060  -0.4895  -0.4851
 -0.4684  -0.4588  -0.4502  -0.4482  -0.4330  -0.4228  -0.4144  -0.3985
 -0.3942  -0.3812  -0.3405  -0.3370  -0.3253  -0.3125  -0.3056  -0.2939
 -0.2877  -0.2816  -0.2760

          Ground-State Mulliken Net Atomic Charges

     Atom                 Charge (a.u.)
  ----------------------------------------
      1 C                    -2.200879
      2 C                     1.395774
      3 C                     0.183557
      4 C                    -0.755984
      5 C                     0.447243
      6 C                     0.249412
      7 O                    -0.304135
      8 O                    -0.323598
      9 C                     0.180327
     10 H                     0.331431
     11 H                     0.334491
     12 H                     0.307548
     13 C                    -1.111913
     14 C                    -0.042823
     15 C                     0.209410
     16 C                     0.234889
     17 C                     0.095047
     18 N                    -0.439818
     19 O                    -0.009378
     20 O                    -0.034742
     21 H                     0.243832
     22 H                     0.331259
     23 H                     0.341291
     24 H                     0.337758
  ----------------------------------------
  Sum of atomic charges =     0.000000

                    Cartesian Multipole Moments
 -----------------------------------------------------------------
    Charge (ESU x 10^10)
                -0.0000
    Dipole Moment (Debye)
         X       4.0754      Y      -0.5667      Z      -3.5621
       Tot       5.4423
    Quadrupole Moments (Debye-Ang)
        XX     -97.5361     XY       1.8852     YY    -103.5930
        XZ     -12.9942     YZ     -18.4209     ZZ     -89.3984

 Total job time:  454.89s(wall), 3549.53s(cpu)
        *  Thank you very much for using Q-Chem.  Have a nice day.  *
