 Gaussian 16, Revision A.03,
 Gaussian 16:  ES64L-G16RevA.03 25-Dec-2016

 ----------------------------------------------------------------------
 #P UB3LYP/6-311++G(d,p) nosym opt freq SCRF=(PCM,Solvent=n,n-DiMethylF
 ormamide)
 ----------------------------------------------------------------------

 -------
 Radical
 -------
 Symbolic Z-matrix:
 Charge = -1 Multiplicity = 2

 SCF Done:  E(UB3LYP) =  -994.037927997     A.U. after   20 cycles
 SCF Done:  E(UB3LYP) =  -994.038210216     A.U. after   17 cycles
 SCF Done:  E(UB3LYP) =  -994.037856732     A.U. after   17 cycles
 SCF Done:  E(UB3LYP) =  -994.038463462     A.U. after   15 cycles
 SCF Done:  E(UB3LYP) =  -994.038552918     A.U. after   15 cycles
 SCF Done:  E(UB3LYP) =  -994.038568196     A.U. after   13 cycles
 SCF Done:  E(UB3LYP) =  -994.038573527     A.U. after   14 cycles
 SCF Done:  E(UB3LYP) =  -994.038574668     A.U. after   11 cycles
 SCF Done:  E(UB3LYP) =  -994.038575270     A.U. after   12 cycles
 SCF Done:  E(UB3LYP) =  -994.038575666     A.U. after   13 cycles
 SCF Done:  E(UB3LYP) =  -994.038575801     A.U. after   12 cycles
 SCF Done:  E(UB3LYP) =  -994.038575922     A.U. after   10 cycles
 Optimization completed.
    -- Stationary point found.
 Normal termination of Gaussian 16 at Sat Feb 10 10:42:00 2024.

 ----------------------------------------------------------------------
 #P Geom=AllCheck Guess=TCheck SCRF=Check GenChk UB3LYP/6-311++G(d,p) F
 req
 ----------------------------------------------------------------------

 Structure from the checkpoint file:  "060-rad.chk"
 -------
 Radical
 -------
 Charge = -1 Multiplicity = 2

                          Input orientation:
 ---------------------------------------------------------------------
 Center     Atomic      Atomic             Coordinates (Angstroms)
 Number     Number       Type             X           Y           Z
 ---------------------------------------------------------------------
      1          6           0       -0.292037    1.089290    0.062690
      2          6           0       -1.437678    0.286518   -0.293935
      3          6           0       -1.335876   -1.051816   -0.541977
      4          6           0       -0.085093   -1.776056   -0.468210
      5          6           0        1.061672   -0.954930   -0.110264
      6          6           0        0.982597    0.389838    0.138269
      7          8           0       -0.368675    2.332291    0.292246
      8          8           0       -0.004912   -3.013719   -0.694310
      9          6           0        2.188185    1.226846    0.497970
     10          6           0        2.382275    1.527753    1.959820
     11          8           0        2.944873    1.632539   -0.364361
     12          1           0        2.533816    0.590151    2.504523
     13          1           0        1.475495    1.990141    2.358072
     14          1           0        3.239224    2.184940    2.108026
     15          1           0       -2.210794   -1.635456   -0.809682
     16         17           0        2.617893   -1.786107    0.023142
     17          1           0       -2.394536    0.794398   -0.359618
 ---------------------------------------------------------------------

 SCF Done:  E(UB3LYP) =  -994.038575922     A.U. after    1 cycles

 Alpha  occ. eigenvalues -- -101.55452 -19.12878 -19.09009 -19.08968 -10.27913
 Alpha  occ. eigenvalues --  -10.23799 -10.23724 -10.23635 -10.19082 -10.17618
 Alpha  occ. eigenvalues --  -10.17445 -10.17270  -9.46906  -7.23333  -7.22428
 Alpha  occ. eigenvalues --   -7.22355  -1.06065  -1.01383  -1.01007  -0.87983
 Alpha  occ. eigenvalues --   -0.82300  -0.77377  -0.73516  -0.69506  -0.63139
 Alpha  occ. eigenvalues --   -0.58487  -0.54466  -0.50072  -0.48519  -0.46921
 Alpha  occ. eigenvalues --   -0.45701  -0.44367  -0.43658  -0.42404  -0.42047
 Alpha  occ. eigenvalues --   -0.40373  -0.39478  -0.38671  -0.38215  -0.36734
 Alpha  occ. eigenvalues --   -0.35000  -0.31836  -0.29126  -0.27649  -0.26167
 Alpha  occ. eigenvalues --   -0.25728  -0.24912  -0.17613
 Alpha virt. eigenvalues --   -0.03831  -0.02102  -0.00217   0.00848   0.01200
 Alpha virt. eigenvalues --    0.01564   0.02387   0.03638   0.03978   0.04564
 Alpha virt. eigenvalues --    0.05881   0.06271   0.06550   0.06815   0.07952

  Beta  occ. eigenvalues -- -101.55448 -19.12868 -19.08292 -19.08252 -10.27921
  Beta  occ. eigenvalues --  -10.23672 -10.23599 -10.23497 -10.18963 -10.17525
  Beta  occ. eigenvalues --  -10.17342 -10.17269  -9.46902  -7.23338  -7.22408
  Beta  occ. eigenvalues --   -7.22354  -1.06033  -1.00159  -0.99752  -0.87682
  Beta  occ. eigenvalues --   -0.81849  -0.77186  -0.73382  -0.68505  -0.62792
  Beta  occ. eigenvalues --   -0.58078  -0.54246  -0.49875  -0.48270  -0.46637
  Beta  occ. eigenvalues --   -0.45464  -0.44236  -0.43535  -0.41448  -0.40982
  Beta  occ. eigenvalues --   -0.40000  -0.38915  -0.38038  -0.37086  -0.35793
  Beta  occ. eigenvalues --   -0.33966  -0.31789  -0.27464  -0.25995  -0.25317
  Beta  occ. eigenvalues --   -0.25049  -0.24362
  Beta virt. eigenvalues --   -0.10329  -0.03672  -0.00752  -0.00175   0.00915
  Beta virt. eigenvalues --    0.01293   0.02421   0.03223   0.03988   0.04230
  Beta virt. eigenvalues --    0.04657   0.05943   0.06358   0.06662   0.06932

 Mulliken charges and spin densities:
               1          2
     1  C   -0.894537   0.067258
     2  C    0.111183   0.090289
     3  C    0.016393   0.075453
     4  C   -0.738099   0.123594
     5  C    0.305420   0.053360
     6  C    0.855958   0.078364
     7  O   -0.445219   0.257499
     8  O   -0.440585   0.255790
     9  C   -0.244697   0.000571
    10  C   -0.545980   0.003677
    11  O   -0.309548   0.000703
    12  H    0.163252   0.000022
    13  H    0.202418  -0.000747
    14  H    0.163051   0.000638
    15  H    0.202261  -0.006038
    16  Cl   0.397886   0.006777
    17  H    0.200845  -0.007209
 Sum of Mulliken charges =  -1.00000   1.00000

 Dipole moment (field-independent basis, Debye):
    X=             -3.9359    Y=              1.3290    Z=              3.5254  Tot=              5.4485
 Quadrupole moment (field-independent basis, Debye-Ang):
   XX=            -90.0286   YY=           -120.1329   ZZ=            -77.7084
   XY=              0.1603   XZ=              8.3576   YZ=             -2.5614

  Exact polarizability: 186.204 -10.407 255.429   8.760  27.706 115.306
 Approx polarizability: 195.346 -15.629 297.391   2.694  29.710 129.127

                      1                      2                      3
                      A                      A                      A
 Frequencies --     39.7012                76.9759               116.9517
 Red. masses --      4.7600                 8.2136                 7.3547
 Frc consts  --      0.0044                 0.0287                 0.0593
 IR Inten    --      9.2826                 2.0917                19.6065

                      4                      5                      6
                      A                      A                      A
 Frequencies --    129.1014               144.4880               164.9714
 Red. masses --      1.3691                 2.7279                 6.4845
 Frc consts  --      0.0134                 0.0336                 0.1040
 IR Inten    --      0.5256                 0.3760                 8.7081

                      7                      8                      9
                      A                      A                      A
 Frequencies --    225.6575               305.6067               318.4818
 Red. masses --     12.4980                 6.1930                 7.4301
 Frc consts  --      0.3750                 0.3408                 0.4440
 IR Inten    --      0.9354                 5.0319                 1.4100

                     10                     11                     12
                      A                      A                      A
 Frequencies --    340.7233               369.6861               447.0723
 Red. masses --     17.5461                 5.0607                 7.1808
 Frc consts  --      1.2001                 0.4075                 0.8456
 IR Inten    --      1.8527                 0.8157                21.1293

                     13                     14                     15
                      A                      A                      A
 Frequencies --    489.3594               526.8973               554.6603
 Red. masses --      6.9587                 4.2498                 5.3064
 Frc consts  --      0.9818                 0.6951                 0.9618
 IR Inten    --     14.1016                10.4282                17.9056

                     16                     17                     18
                      A                      A                      A
 Frequencies --    591.3193               621.1585               645.9322
 Red. masses --      3.7046                 3.2153                 3.3299
 Frc consts  --      0.7632                 0.7309                 0.8186
 IR Inten    --     25.2111                 1.4321                 7.5094

                     19                     20                     21
                      A                      A                      A
 Frequencies --    725.0901               761.8258               827.8203
 Red. masses --      7.0478                 7.8604                 1.9324
 Frc consts  --      2.1832                 2.6879                 0.7802
 IR Inten    --     29.3540                 1.0777                68.6734

                     22                     23                     24
                      A                      A                      A
 Frequencies --    868.2329               921.3258               960.4512
 Red. masses --      6.1180                 7.0750                 1.2798
 Frc consts  --      2.7173                 3.5384                 0.6956
 IR Inten    --    167.7035                61.6799                 0.4309

                     25                     26                     27
                      A                      A                      A
 Frequencies --    983.6163              1016.2059              1091.5482
 Red. masses --      2.1672                 2.0380                 2.8863
 Frc consts  --      1.2354                 1.2400                 2.0262
 IR Inten    --     30.5011                61.6743                75.1257

                     28                     29                     30
                      A                      A                      A
 Frequencies --   1110.9501              1207.0144              1226.2054
 Red. masses --      1.7685                 2.2331                 3.7630
 Frc consts  --      1.2860                 1.9168                 3.3336
 IR Inten    --      3.9845                83.7486                52.8705

                     31                     32                     33
                      A                      A                      A
 Frequencies --   1326.4557              1372.0383              1407.2348
 Red. masses --      2.5108                 1.3087                 3.7776
 Frc consts  --      2.6028                 1.4515                 4.4075
 IR Inten    --     69.3522                82.8723               288.6234

                     34                     35                     36
                      A                      A                      A
 Frequencies --   1449.0777              1457.8540              1489.7480
 Red. masses --      1.0721                 1.0709                 9.2846
 Frc consts  --      1.3263                 1.3410                12.1406
 IR Inten    --     28.9729                20.1534               138.9303

                     37                     38                     39
                      A                      A                      A
 Frequencies --   1494.9750              1521.3017              1632.7339
 Red. masses --      7.7782                 6.9498                 7.8375
 Frc consts  --     10.2423                 9.4767                12.3100
 IR Inten    --     52.0944              1023.9617                19.0527

                     40                     41                     42
                      A                      A                      A
 Frequencies --   1736.7167              3031.2211              3095.1426
 Red. masses --     10.7369                 1.0359                 1.0972
 Frc consts  --     19.0804                 5.6080                 6.1927
 IR Inten    --    445.6459                 1.9543                 4.0604

                     43                     44                     45
                      A                      A                      A
 Frequencies --   3132.8235              3157.4496              3175.0411
 Red. masses --      1.1048                 1.0864                 1.0957
 Frc consts  --      6.3889                 6.3813                 6.5081
 IR Inten    --     23.9046                20.0714                21.1099

 - Thermochemistry -
 -------------------
 Temperature   298.150 Kelvin.  Pressure   1.00000 Atm.
 Atom     1 has atomic number  6 and mass  12.00000

 Molecular mass:   183.99272 amu.
 Principal axes and moments of inertia in atomic units:
                           1         2         3
     Eigenvalues --  1719.673802162.505473550.71598
           X            0.35076   0.91982  -0.17576
           Y            0.89872  -0.38339  -0.21287
           Z            0.26318   0.08330   0.96114
 This molecule is an asymmetric top.
 Rotational symmetry number  1.
 Warning -- assumption of classical behavior for rotation
           may cause significant error
 Rotational temperatures (Kelvin)      0.05037     0.04005     0.02439
 Rotational constants (GHZ):           1.04947     0.83456     0.50828
 Zero-point vibrational energy     288831.4 (Joules/Mol)
                                   69.03237 (Kcal/Mol)
 Warning -- explicit consideration of  16 degrees of freedom as
           vibrations may cause significant error
 Vibrational temperatures:     57.12   110.75   168.27   185.75   207.89
          (Kelvin)            237.36   324.67   439.70   458.22   490.22
                              531.90   643.24   704.08   758.09   798.03
                              850.78   893.71   929.35  1043.24  1096.10
                             1191.05  1249.19  1325.58  1381.88  1415.20
                             1462.09  1570.49  1598.41  1736.62  1764.24
                             1908.47  1974.06  2024.70  2084.90  2097.53
                             2143.42  2150.94  2188.81  2349.14  2498.75
                             4361.25  4453.22  4507.43  4542.87  4568.18

 Zero-point correction=                           0.110010 (Hartree/Particle)
 Thermal correction to Energy=                    0.121146
 Thermal correction to Enthalpy=                  0.122090
 Thermal correction to Gibbs Free Energy=         0.071315
 Sum of electronic and zero-point Energies=           -993.928566
 Sum of electronic and thermal Energies=              -993.917430
 Sum of electronic and thermal Enthalpies=            -993.916486
 Sum of electronic and thermal Free Energies=         -993.967261

                     E (Thermal)             CV                S
                      KCal/Mol        Cal/Mol-Kelvin    Cal/Mol-Kelvin
 Total                   76.020             39.806            106.865
 Electronic               0.000              0.000              1.377
 Translational            0.889              2.981             41.535
 Rotational               0.889              2.981             30.958
 Vibrational             74.243             33.845             32.994
 Vibration     1          0.594              1.981              5.274
 Vibration     2          0.599              1.965              3.967
 Vibration     3          0.608              1.935              3.150
 Vibration     4          0.612              1.924              2.959
 Vibration     5          0.616              1.909              2.744
 Vibration     6          0.623              1.885              2.492
 Vibration     7          0.650              1.802              1.913
 Vibration     8          0.696              1.663              1.386
 Vibration     9          0.705              1.638              1.318
 Vibration    10          0.720              1.594              1.209
 Vibration    11          0.742              1.535              1.081
 Vibration    12          0.806              1.367              0.805
 Vibration    13          0.845              1.274              0.685
 Vibration    14          0.882              1.190              0.594
 Vibration    15          0.910              1.129              0.535
 Vibration    16          0.949              1.050              0.465

 Optimization completed.
    -- Stationary point found.
 Normal termination of Gaussian 16 at Sat Feb 10 10:59:53 2024.
