 Gaussian 16, Revision A.03,
 Gaussian 16:  ES64L-G16RevA.03 25-Dec-2016

 ----------------------------------------------------------------
 #P UB3LYP/6-311++G(d,p) SCRF=(PCM,Solvent=n,n-DiMethylFormamide)
 ----------------------------------------------------------------

 ------------------
 Quinone PCM in DMF
 ------------------
 Symbolic Z-matrix:
 Charge =  0 Multiplicity = 1

                         Standard orientation:
 ---------------------------------------------------------------------
 Center     Atomic      Atomic             Coordinates (Angstroms)
 Number     Number       Type             X           Y           Z
 ---------------------------------------------------------------------
      1          6           0       -3.607441    2.541340   -0.000280
      2          6           0       -2.820665    1.265445   -0.000215
      3          6           0       -1.466626    1.231264    0.000189
      4          6           0       -0.700977   -0.000119    0.000153
      5          6           0       -1.466746   -1.231444    0.000080
      6          6           0       -2.820800   -1.265436   -0.000179
      7          6           0       -3.607760   -2.541229   -0.000134
      8          6           0       -3.589355    0.000040   -0.000312
      9          8           0       -4.818537    0.000108    0.000329
     10          6           0        0.700957   -0.000072    0.000145
     11          6           0        1.466709   -1.231401    0.000134
     12          6           0        2.820753   -1.265464    0.000160
     13          6           0        3.607710   -2.541202    0.000231
     14          6           0        3.589344    0.000019   -0.000067
     15          8           0        4.818525    0.000074   -0.000964
     16          6           0        2.820665    1.265430    0.000216
     17          6           0        1.466615    1.231314    0.000139
     18          6           0        3.607538    2.541231    0.000308
     19          1           0       -4.263230    2.589891   -0.874289
     20          1           0       -2.950021    3.412497   -0.000423
     21          1           0       -4.263170    2.590059    0.873761
     22          1           0       -0.940336    2.175955    0.000620
     23          1           0       -0.940579   -2.176211    0.000229
     24          1           0       -2.950462   -3.412466   -0.001006
     25          1           0       -4.262889   -2.590119    0.874360
     26          1           0       -4.264289   -2.589355   -0.873601
     27          1           0        0.940477   -2.176127    0.000071
     28          1           0        4.263923   -2.589474   -0.873480
     29          1           0        4.263216   -2.589891    0.874454
     30          1           0        2.950507   -3.412508   -0.000227
     31          1           0        0.940358    2.176043    0.000052
     32          1           0        2.950250    3.412469    0.000639
     33          1           0        4.263512    2.589581    0.874216
     34          1           0        4.263310    2.589904   -0.873705
 ---------------------------------------------------------------------

 SCF Done:  E(UB3LYP) =  -769.991357695     A.U. after   14 cycles

 The electronic state is 1-A.
 Alpha  occ. eigenvalues --  -19.12104 -19.12104 -10.26512 -10.26512 -10.22704
 Alpha  occ. eigenvalues --  -10.22653 -10.20395 -10.20395 -10.20394 -10.20394
 Alpha  occ. eigenvalues --  -10.19933 -10.19932 -10.19932 -10.19931 -10.17288
 Alpha  occ. eigenvalues --  -10.17287 -10.17287 -10.17287  -1.05150  -1.05149
 Alpha  occ. eigenvalues --   -0.89347  -0.86206  -0.81125  -0.80690  -0.79863
 Alpha  occ. eigenvalues --   -0.73991  -0.71309  -0.70087  -0.69467  -0.67564
 Alpha  occ. eigenvalues --   -0.63204  -0.60650  -0.58241  -0.57833  -0.52735
 Alpha  occ. eigenvalues --   -0.52667  -0.48404  -0.48067  -0.47764  -0.45412
 Alpha  occ. eigenvalues --   -0.44998  -0.44445  -0.43884  -0.43186  -0.42219
 Alpha  occ. eigenvalues --   -0.42209  -0.42194  -0.42052  -0.41759  -0.39694
 Alpha  occ. eigenvalues --   -0.39274  -0.38891  -0.38681  -0.38449  -0.38355
 Alpha  occ. eigenvalues --   -0.37857  -0.37470  -0.35782  -0.32558  -0.27843
 Alpha  occ. eigenvalues --   -0.27218  -0.27115  -0.26692  -0.23596
 Alpha virt. eigenvalues --   -0.14077  -0.04615  -0.03134  -0.01063  -0.00417
 Alpha virt. eigenvalues --   -0.00152   0.00206   0.01294   0.01624   0.02351
 Alpha virt. eigenvalues --    0.02585   0.02667   0.03162   0.03213   0.03996

  Beta  occ. eigenvalues --  -19.12104 -19.12104 -10.26512 -10.26512 -10.22704
  Beta  occ. eigenvalues --  -10.22653 -10.20395 -10.20395 -10.20394 -10.20394
  Beta  occ. eigenvalues --  -10.19933 -10.19932 -10.19932 -10.19931 -10.17288
  Beta  occ. eigenvalues --  -10.17287 -10.17287 -10.17287  -1.05150  -1.05149
  Beta  occ. eigenvalues --   -0.89347  -0.86206  -0.81125  -0.80690  -0.79863
  Beta  occ. eigenvalues --   -0.73991  -0.71309  -0.70087  -0.69467  -0.67564
  Beta  occ. eigenvalues --   -0.63204  -0.60650  -0.58241  -0.57833  -0.52735
  Beta  occ. eigenvalues --   -0.52667  -0.48404  -0.48067  -0.47764  -0.45412
  Beta  occ. eigenvalues --   -0.44998  -0.44445  -0.43884  -0.43186  -0.42219
  Beta  occ. eigenvalues --   -0.42209  -0.42194  -0.42052  -0.41759  -0.39694
  Beta  occ. eigenvalues --   -0.39274  -0.38891  -0.38681  -0.38449  -0.38355
  Beta  occ. eigenvalues --   -0.37857  -0.37470  -0.35782  -0.32558  -0.27843
  Beta  occ. eigenvalues --   -0.27218  -0.27115  -0.26692  -0.23596
  Beta virt. eigenvalues --   -0.14077  -0.04615  -0.03134  -0.01063  -0.00417
  Beta virt. eigenvalues --   -0.00152   0.00206   0.01294   0.01624   0.02351
  Beta virt. eigenvalues --    0.02585   0.02667   0.03162   0.03213   0.03996

 Mulliken charges and spin densities:
               1          2
     1  C   -0.198387   0.000000
     2  C    0.418697   0.000000
     3  C   -0.649165  -0.000000
     4  C    1.511599  -0.000000
     5  C   -0.649055   0.000000
     6  C    0.418861   0.000000
     7  C   -0.198395  -0.000000
     8  C   -1.484715  -0.000000
     9  O   -0.310225   0.000000
    10  C    1.511606   0.000000
    11  C   -0.649192  -0.000000
    12  C    0.418793  -0.000000
    13  C   -0.198358  -0.000000
    14  C   -1.484703   0.000000
    15  O   -0.310208   0.000000
    16  C    0.418745   0.000000
    17  C   -0.649187   0.000000
    18  C   -0.198410   0.000000
    19  H    0.185344   0.000000
    20  H    0.173647   0.000000
    21  H    0.185379   0.000000
    22  H    0.025969  -0.000000
    23  H    0.026103  -0.000000
    24  H    0.173639   0.000000
    25  H    0.185431   0.000000
    26  H    0.185299   0.000000
    27  H    0.026050  -0.000000
    28  H    0.185325  -0.000000
    29  H    0.185411  -0.000000
    30  H    0.173643   0.000000
    31  H    0.026088   0.000000
    32  H    0.173637   0.000000
    33  H    0.185370  -0.000000
    34  H    0.185365  -0.000000
 Sum of Mulliken charges =  -0.00000   0.00000

 Dipole moment (field-independent basis, Debye):
    X=              0.0006    Y=             -0.0005    Z=              0.0017  Tot=              0.0018
 Quadrupole moment (field-independent basis, Debye-Ang):
   XX=           -159.6846   YY=            -88.2637   ZZ=           -108.6187
   XY=              0.0005   XZ=              0.0175   YZ=             -0.0000

 Normal termination of Gaussian 16 at Sat Jan 13 19:21:19 2024.
