 Gaussian 16, Revision A.03,
 Gaussian 16:  ES64L-G16RevA.03 25-Dec-2016

 ----------------------------------------------------------------------
 #P UB3LYP/6-311++G(d,p) nosym opt freq SCRF=(PCM,Solvent=n,n-DiMethylF
 ormamide)
 ----------------------------------------------------------------------

 -------
 Reduced
 -------
 Symbolic Z-matrix:
 Charge = -2 Multiplicity = 1

 SCF Done:  E(UB3LYP) =  -1315.28721435     A.U. after   18 cycles
 SCF Done:  E(UB3LYP) =  -1315.28737277     A.U. after   17 cycles
 SCF Done:  E(UB3LYP) =  -1315.28853405     A.U. after   18 cycles
 SCF Done:  E(UB3LYP) =  -1315.28887987     A.U. after   16 cycles
 SCF Done:  E(UB3LYP) =  -1315.28894846     A.U. after   17 cycles
 SCF Done:  E(UB3LYP) =  -1315.28899371     A.U. after   13 cycles
 SCF Done:  E(UB3LYP) =  -1315.28901126     A.U. after   13 cycles
 SCF Done:  E(UB3LYP) =  -1315.28901642     A.U. after   13 cycles
 SCF Done:  E(UB3LYP) =  -1315.28901719     A.U. after   13 cycles
 SCF Done:  E(UB3LYP) =  -1315.28901769     A.U. after   12 cycles
 SCF Done:  E(UB3LYP) =  -1315.28901778     A.U. after   11 cycles
 Optimization completed.
    -- Stationary point found.
 Normal termination of Gaussian 16 at Sun Feb 11 03:35:07 2024.

 ----------------------------------------------------------------------
 #P Geom=AllCheck Guess=TCheck SCRF=Check GenChk UB3LYP/6-311++G(d,p) F
 req
 ----------------------------------------------------------------------

 Structure from the checkpoint file:  "268-an.chk"
 -------
 Reduced
 -------
 Charge = -2 Multiplicity = 1

                          Input orientation:
 ---------------------------------------------------------------------
 Center     Atomic      Atomic             Coordinates (Angstroms)
 Number     Number       Type             X           Y           Z
 ---------------------------------------------------------------------
      1          6           0        1.500532    3.401007   -0.325761
      2          6           0        0.785132    3.102979   -1.470835
      3          6           0        0.121403    1.862687   -1.573377
      4          6           0        1.585488    2.494194    0.754675
      5          6           0        0.912823    1.235143    0.653300
      6          6           0        0.189635    0.957483   -0.531273
      7          6           0        2.366878    2.873152    1.941927
      8          6           0        2.375502    1.875581    2.948438
      9          6           0        1.710059    0.610624    2.845266
     10          6           0        0.956680    0.238992    1.730716
     11          8           0        2.981730    3.996537    2.009887
     12          8           0        0.321275   -0.896059    1.620250
     13         16           0        3.307871    2.182911    4.416406
     14          8           0        2.912888    3.444292    5.095519
     15          8           0        3.256821    0.961255    5.265635
     16          6           0        5.044821    2.367551    3.935361
     17          6           0        5.558887    3.626274    3.625360
     18          6           0        5.847387    1.226351    3.879999
     19          6           0        6.900219    3.739268    3.259702
     20          6           0        7.712164    2.606223    3.199429
     21          6           0        7.184704    1.350716    3.508577
     22          1           0        2.017703    4.348785   -0.227279
     23          1           0        0.733828    3.817463   -2.286109
     24          1           0       -0.441380    1.621253   -2.469782
     25          1           0       -0.312512   -0.000723   -0.594316
     26          1           0        1.783432   -0.079709    3.676895
     27          1           0        4.911704    4.490101    3.661057
     28          1           0        5.431807    0.259726    4.134947
     29          1           0        7.309838    4.714375    3.021106
     30          1           0        8.753598    2.700326    2.913047
     31          1           0        7.814726    0.469495    3.468125
 ---------------------------------------------------------------------

 SCF Done:  E(UB3LYP) =  -1315.28901778     A.U. after    2 cycles

 Alpha  occ. eigenvalues --  -89.03056 -19.09707 -19.09641 -19.03452 -19.01831
 Alpha  occ. eigenvalues --  -10.20172 -10.19891 -10.18575 -10.18246 -10.18195
 Alpha  occ. eigenvalues --  -10.18094 -10.18024 -10.17836 -10.16077 -10.16031
 Alpha  occ. eigenvalues --  -10.15866 -10.15648 -10.15440 -10.15390 -10.15343
 Alpha  occ. eigenvalues --  -10.12928  -8.09419  -6.05734  -6.05605  -6.05469
 Alpha  occ. eigenvalues --   -1.08482  -0.97883  -0.95503  -0.92844  -0.86779
 Alpha  occ. eigenvalues --   -0.83795  -0.78985  -0.76780  -0.75595  -0.73261
 Alpha  occ. eigenvalues --   -0.73002  -0.68002  -0.64638  -0.61456  -0.61146
 Alpha  occ. eigenvalues --   -0.59428  -0.57087  -0.54493  -0.52559  -0.49434
 Alpha  occ. eigenvalues --   -0.48714  -0.46974  -0.46593  -0.45537  -0.44823
 Alpha  occ. eigenvalues --   -0.43957  -0.43257  -0.43007  -0.41425  -0.40781
 Alpha  occ. eigenvalues --   -0.38996  -0.38701  -0.37863  -0.37240  -0.36743
 Alpha  occ. eigenvalues --   -0.36102  -0.35304  -0.33618  -0.33234  -0.32377
 Alpha  occ. eigenvalues --   -0.32192  -0.31494  -0.30592  -0.28836  -0.28425
 Alpha  occ. eigenvalues --   -0.26786  -0.26375  -0.23851  -0.23415  -0.22991
 Alpha  occ. eigenvalues --   -0.21077  -0.19923  -0.12924
 Alpha virt. eigenvalues --   -0.03731  -0.01904  -0.01653  -0.00447  -0.00156
 Alpha virt. eigenvalues --    0.00545   0.01331   0.01896   0.02336   0.02982
 Alpha virt. eigenvalues --    0.03453   0.03857   0.04412   0.04950   0.05447

  Beta  occ. eigenvalues --  -89.03056 -19.09707 -19.09641 -19.03452 -19.01831
  Beta  occ. eigenvalues --  -10.20172 -10.19891 -10.18575 -10.18246 -10.18195
  Beta  occ. eigenvalues --  -10.18094 -10.18024 -10.17836 -10.16077 -10.16031
  Beta  occ. eigenvalues --  -10.15866 -10.15648 -10.15440 -10.15390 -10.15343
  Beta  occ. eigenvalues --  -10.12928  -8.09419  -6.05734  -6.05605  -6.05469
  Beta  occ. eigenvalues --   -1.08482  -0.97883  -0.95503  -0.92844  -0.86779
  Beta  occ. eigenvalues --   -0.83795  -0.78985  -0.76780  -0.75595  -0.73261
  Beta  occ. eigenvalues --   -0.73002  -0.68002  -0.64638  -0.61456  -0.61146
  Beta  occ. eigenvalues --   -0.59428  -0.57087  -0.54493  -0.52559  -0.49434
  Beta  occ. eigenvalues --   -0.48714  -0.46974  -0.46593  -0.45537  -0.44823
  Beta  occ. eigenvalues --   -0.43957  -0.43257  -0.43007  -0.41425  -0.40781
  Beta  occ. eigenvalues --   -0.38996  -0.38701  -0.37863  -0.37240  -0.36743
  Beta  occ. eigenvalues --   -0.36102  -0.35304  -0.33618  -0.33234  -0.32377
  Beta  occ. eigenvalues --   -0.32192  -0.31494  -0.30592  -0.28836  -0.28425
  Beta  occ. eigenvalues --   -0.26786  -0.26375  -0.23851  -0.23415  -0.22991
  Beta  occ. eigenvalues --   -0.21077  -0.19923  -0.12924
  Beta virt. eigenvalues --   -0.03731  -0.01904  -0.01653  -0.00447  -0.00156
  Beta virt. eigenvalues --    0.00545   0.01331   0.01896   0.02336   0.02982
  Beta virt. eigenvalues --    0.03453   0.03857   0.04412   0.04950   0.05447

 Mulliken charges and spin densities:
               1          2
     1  C    0.154215   0.000000
     2  C   -0.439339  -0.000000
     3  C   -0.360048   0.000000
     4  C    0.163998  -0.000000
     5  C    0.402854  -0.000000
     6  C   -0.021127   0.000000
     7  C   -0.618797   0.000000
     8  C    0.138842  -0.000000
     9  C   -0.194639   0.000000
    10  C   -0.551504   0.000000
    11  O   -0.526190  -0.000000
    12  O   -0.704340   0.000000
    13  S    0.306271   0.000000
    14  O   -0.285184  -0.000000
    15  O   -0.304687  -0.000000
    16  C    0.298368   0.000000
    17  C   -0.199876  -0.000000
    18  C    0.090965  -0.000000
    19  C   -0.449658   0.000000
    20  C   -0.321747  -0.000000
    21  C   -0.519595   0.000000
    22  H    0.153399  -0.000000
    23  H    0.167957  -0.000000
    24  H    0.171703  -0.000000
    25  H    0.148761  -0.000000
    26  H    0.202262  -0.000000
    27  H    0.269046  -0.000000
    28  H    0.236483  -0.000000
    29  H    0.206410   0.000000
    30  H    0.184269   0.000000
    31  H    0.200929   0.000000
 Sum of Mulliken charges =  -2.00000   0.00000

 Dipole moment (field-independent basis, Debye):
    X=            -15.1560    Y=            -14.4692    Z=            -26.3535  Tot=             33.6685
 Quadrupole moment (field-independent basis, Debye-Ang):
   XX=           -160.5783   YY=           -200.4009   ZZ=           -244.0984
   XY=            -42.0688   XZ=            -55.0238   YZ=            -49.9937

  Exact polarizability: 384.250  50.630 364.144  93.916 -36.983 392.064
 Approx polarizability: 397.139  56.571 445.477  80.524 -48.402 429.120

                      1                      2                      3
                      A                      A                      A
 Frequencies --     21.4646                33.9005                40.1172
 Red. masses --      4.8188                 7.7068                 4.5754
 Frc consts  --      0.0013                 0.0052                 0.0043
 IR Inten    --      3.5467                 3.6531                 3.2028

                      4                      5                      6
                      A                      A                      A
 Frequencies --     85.6459               134.8036               148.9564
 Red. masses --      7.0465                 4.6849                 7.2277
 Frc consts  --      0.0305                 0.0502                 0.0945
 IR Inten    --      9.9283                 1.1460                13.0188

                      7                      8                      9
                      A                      A                      A
 Frequencies --    160.8769               175.8239               202.0243
 Red. masses --      9.3765                 6.4469                 6.1294
 Frc consts  --      0.1430                 0.1174                 0.1474
 IR Inten    --      9.8287                 1.2214                 1.4344

                     10                     11                     12
                      A                      A                      A
 Frequencies --    226.4949               267.5523               277.9496
 Red. masses --      6.1184                 7.8175                 7.9695
 Frc consts  --      0.1849                 0.3297                 0.3628
 IR Inten    --      2.4460                 9.4958                 3.5524

                     13                     14                     15
                      A                      A                      A
 Frequencies --    288.2691               301.6714               358.1764
 Red. masses --     11.0125                 8.2148                10.6530
 Frc consts  --      0.5392                 0.4405                 0.8052
 IR Inten    --     10.4429                 7.1574                19.4764

                     16                     17                     18
                      A                      A                      A
 Frequencies --    373.0748               410.0850               414.6492
 Red. masses --      8.7960                 3.0694                 7.1633
 Frc consts  --      0.7213                 0.3041                 0.7256
 IR Inten    --      3.7322                 0.1125                 2.5638

                     19                     20                     21
                      A                      A                      A
 Frequencies --    436.7209               453.8472               471.6168
 Red. masses --      3.2750                 5.1556                10.2414
 Frc consts  --      0.3680                 0.6257                 1.3421
 IR Inten    --     11.4612                12.3764                16.5649

                     22                     23                     24
                      A                      A                      A
 Frequencies --    479.6204               499.4224               537.0238
 Red. masses --      5.5115                 6.7222                 7.5616
 Frc consts  --      0.7470                 0.9879                 1.2849
 IR Inten    --     18.7415                15.3346               110.3521

                     25                     26                     27
                      A                      A                      A
 Frequencies --    568.9724               612.4844               625.7316
 Red. masses --      8.4519                 7.7977                 6.4457
 Frc consts  --      1.6121                 1.7235                 1.4870
 IR Inten    --    200.9888               229.7331                 0.5787

                     28                     29                     30
                      A                      A                      A
 Frequencies --    633.9911               667.6937               689.5580
 Red. masses --      2.7566                 6.2018                 3.2778
 Frc consts  --      0.6528                 1.6290                 0.9183
 IR Inten    --      4.2126                14.6287                38.6527

                     31                     32                     33
                      A                      A                      A
 Frequencies --    697.0085               710.6367               720.7706
 Red. masses --      1.9795                 6.8543                 6.2868
 Frc consts  --      0.5666                 2.0394                 1.9243
 IR Inten    --     85.7138                62.5363                76.2873

                     34                     35                     36
                      A                      A                      A
 Frequencies --    759.8146               777.2266               793.0521
 Red. masses --      1.7254                 1.5637                 3.2035
 Frc consts  --      0.5869                 0.5565                 1.1871
 IR Inten    --     16.1667               121.8738                 2.1221

                     37                     38                     39
                      A                      A                      A
 Frequencies --    815.6131               827.4983               836.8467
 Red. masses --      1.8730                 9.2805                 4.9629
 Frc consts  --      0.7341                 3.7442                 2.0478
 IR Inten    --     41.4266               187.8565                23.4758

                     40                     41                     42
                      A                      A                      A
 Frequencies --    845.6823               881.7628               929.0333
 Red. masses --      1.2574                 1.5163                 1.3677
 Frc consts  --      0.5298                 0.6946                 0.6955
 IR Inten    --      0.9549                 1.0119                 4.5834

                     43                     44                     45
                      A                      A                      A
 Frequencies --    981.8189               985.9341               993.3326
 Red. masses --      1.3617                 1.3813                 1.2613
 Frc consts  --      0.7734                 0.7911                 0.7332
 IR Inten    --      4.1924                 0.3918                 0.1176

                     46                     47                     48
                      A                      A                      A
 Frequencies --   1005.6015              1008.2081              1018.8725
 Red. masses --      1.4388                 4.7230                 8.9791
 Frc consts  --      0.8573                 2.8286                 5.4919
 IR Inten    --     11.4253               153.1842               276.6960

                     49                     50                     51
                      A                      A                      A
 Frequencies --   1026.1119              1042.6352              1067.4525
 Red. masses --      2.4422                 2.6571                 2.7886
 Frc consts  --      1.5151                 1.7018                 1.8721
 IR Inten    --    193.6293                65.3367               327.6789

                     52                     53                     54
                      A                      A                      A
 Frequencies --   1090.6696              1092.1477              1093.7021
 Red. masses --      2.8704                 1.6474                 3.0106
 Frc consts  --      2.0118                 1.1577                 2.1218
 IR Inten    --     65.2936                52.0750                73.8619

                     55                     56                     57
                      A                      A                      A
 Frequencies --   1138.9435              1153.1990              1160.5474
 Red. masses --      1.5630                 2.2206                 3.7789
 Frc consts  --      1.1946                 1.7399                 2.9988
 IR Inten    --      7.6375               140.3161               199.1373

                     58                     59                     60
                      A                      A                      A
 Frequencies --   1176.7927              1190.3168              1202.6387
 Red. masses --      1.1130                 1.1553                 1.8032
 Frc consts  --      0.9081                 0.9644                 1.5366
 IR Inten    --      2.1904                 1.3486               120.9383

                     61                     62                     63
                      A                      A                      A
 Frequencies --   1239.3024              1271.2001              1314.8109
 Red. masses --      2.9415                 2.8117                 3.9340
 Frc consts  --      2.6618                 2.6770                 4.0069
 IR Inten    --     98.3148                77.5850               440.1090

                     64                     65                     66
                      A                      A                      A
 Frequencies --   1325.8116              1338.5834              1354.6272
 Red. masses --      2.7166                 1.9638                 9.4233
 Frc consts  --      2.8135                 2.0732                10.1881
 IR Inten    --      0.5044                14.6575               153.2716

                     67                     68                     69
                      A                      A                      A
 Frequencies --   1375.7442              1426.5447              1449.0297
 Red. masses --      6.1197                 2.4229                 3.2230
 Frc consts  --      6.8243                 2.9050                 3.9872
 IR Inten    --    889.2170               560.6292                96.2049

                     70                     71                     72
                      A                      A                      A
 Frequencies --   1469.8354              1501.1932              1508.2195
 Red. masses --      2.1020                 2.0339                 4.9231
 Frc consts  --      2.6756                 2.7006                 6.5980
 IR Inten    --     17.5664                17.6915               452.7476

                     73                     74                     75
                      A                      A                      A
 Frequencies --   1519.6427              1596.1927              1614.7268
 Red. masses --      4.0239                 7.4682                 5.5099
 Frc consts  --      5.4750                11.2107                 8.4643
 IR Inten    --    129.5712                51.1088                17.1509

                     76                     77                     78
                      A                      A                      A
 Frequencies --   1615.6041              1623.2445              3146.5855
 Red. masses --      5.6672                 5.8636                 1.0853
 Frc consts  --      8.7155                 9.1030                 6.3312
 IR Inten    --      1.3859                18.7588                14.2543

                     79                     80                     81
                      A                      A                      A
 Frequencies --   3161.4473              3166.4266              3176.0131
 Red. masses --      1.0896                 1.0862                 1.0880
 Frc consts  --      6.4165                 6.4165                 6.4663
 IR Inten    --     28.6245                 0.7631                32.2167

                     82                     83                     84
                      A                      A                      A
 Frequencies --   3176.1848              3176.6241              3182.6039
 Red. masses --      1.0899                 1.0922                 1.0932
 Frc consts  --      6.4781                 6.4934                 6.5238
 IR Inten    --     14.5410                53.8243                55.3661

                     85                     86                     87
                      A                      A                      A
 Frequencies --   3187.3192              3199.6406              3228.8364
 Red. masses --      1.0950                 1.0941                 1.0923
 Frc consts  --      6.5539                 6.5995                 6.7094
 IR Inten    --     27.1896                10.9342                 2.8084

 - Thermochemistry -
 -------------------
 Temperature   298.150 Kelvin.  Pressure   1.00000 Atm.
 Atom     1 has atomic number  6 and mass  12.00000

 Molecular mass:   298.02998 amu.
 Principal axes and moments of inertia in atomic units:
                           1         2         3
     Eigenvalues --  3494.637119308.06437**********
           X            0.77524   0.39540  -0.49260
           Y            0.14029   0.65260   0.74460
           Z            0.61589  -0.64635   0.45046
 This molecule is an asymmetric top.
 Rotational symmetry number  1.
 Warning -- assumption of classical behavior for rotation
           may cause significant error
 Rotational temperatures (Kelvin)      0.02478     0.00931     0.00823
 Rotational constants (GHZ):           0.51643     0.19389     0.17146
 Zero-point vibrational energy     574016.6 (Joules/Mol)
                                  137.19326 (Kcal/Mol)
 Warning -- explicit consideration of  26 degrees of freedom as
           vibrations may cause significant error
 Vibrational temperatures:     30.88    48.78    57.72   123.23   193.95
          (Kelvin)            214.32   231.47   252.97   290.67   325.88
                              384.95   399.91   414.75   434.04   515.34
                              536.77   590.02   596.59   628.34   652.98
                              678.55   690.07   718.56   772.66   818.62
                              881.23   900.29   912.17   960.66   992.12
                             1002.84  1022.45  1037.03  1093.20  1118.26
                             1141.03  1173.49  1190.59  1204.04  1216.75
                             1268.66  1336.67  1412.62  1418.54  1429.18
                             1446.84  1450.59  1465.93  1476.35  1500.12
                             1535.83  1569.23  1571.36  1573.59  1638.69
                             1659.20  1669.77  1693.14  1712.60  1730.33
                             1783.08  1828.97  1891.72  1907.55  1925.92
                             1949.01  1979.39  2052.48  2084.83  2114.77
                             2159.88  2169.99  2186.43  2296.57  2323.23
                             2324.49  2335.49  4527.23  4548.62  4555.78
                             4569.57  4569.82  4570.45  4579.06  4585.84
                             4603.57  4645.58

 Zero-point correction=                           0.218631 (Hartree/Particle)
 Thermal correction to Energy=                    0.235413
 Thermal correction to Enthalpy=                  0.236358
 Thermal correction to Gibbs Free Energy=         0.172846
 Sum of electronic and zero-point Energies=          -1315.070386
 Sum of electronic and thermal Energies=             -1315.053604
 Sum of electronic and thermal Enthalpies=           -1315.052660
 Sum of electronic and thermal Free Energies=        -1315.116172

                     E (Thermal)             CV                S
                      KCal/Mol        Cal/Mol-Kelvin    Cal/Mol-Kelvin
 Total                  147.724             66.479            133.671
 Electronic               0.000              0.000              0.000
 Translational            0.889              2.981             42.973
 Rotational               0.889              2.981             34.192
 Vibrational            145.947             60.518             56.506
 Vibration     1          0.593              1.985              6.494
 Vibration     2          0.594              1.983              5.587
 Vibration     3          0.594              1.981              5.253
 Vibration     4          0.601              1.959              3.757
 Vibration     5          0.613              1.919              2.876
 Vibration     6          0.618              1.904              2.686
 Vibration     7          0.622              1.890              2.539
 Vibration     8          0.628              1.872              2.372
 Vibration     9          0.639              1.837              2.115
 Vibration    10          0.650              1.801              1.907
 Vibration    11          0.673              1.733              1.612
 Vibration    12          0.679              1.714              1.546
 Vibration    13          0.685              1.696              1.484
 Vibration    14          0.694              1.671              1.408
 Vibration    15          0.733              1.558              1.130
 Vibration    16          0.744              1.527              1.067
 Vibration    17          0.774              1.448              0.926
 Vibration    18          0.778              1.438              0.910
 Vibration    19          0.797              1.390              0.837
 Vibration    20          0.812              1.352              0.784
 Vibration    21          0.829              1.313              0.733
 Vibration    22          0.836              1.295              0.711
 Vibration    23          0.855              1.251              0.660
 Vibration    24          0.892              1.168              0.572
 Vibration    25          0.925              1.098              0.506
 Vibration    26          0.972              1.005              0.429

 Optimization completed.
    -- Stationary point found.
 Normal termination of Gaussian 16 at Sun Feb 11 04:40:32 2024.
