 Gaussian 16, Revision A.03,
 Gaussian 16:  ES64L-G16RevA.03 25-Dec-2016

 --------------------------------------
 #P UB3LYP/6-311++G(d,p) nosym opt freq
 --------------------------------------

 -------
 Reduced
 -------
 Symbolic Z-matrix:
 Charge = -2 Multiplicity = 1

 SCF Done:  E(UB3LYP) =  -3777.41140055     A.U. after   37 cycles
 SCF Done:  E(UB3LYP) =  -3777.44484913     A.U. after   42 cycles
 SCF Done:  E(UB3LYP) =  -3777.45483157     A.U. after   21 cycles
 SCF Done:  E(UB3LYP) =  -3777.45820867     A.U. after   18 cycles
 SCF Done:  E(UB3LYP) =  -3777.46359175     A.U. after   20 cycles
 SCF Done:  E(UB3LYP) =  -3777.46312640     A.U. after   20 cycles
 SCF Done:  E(UB3LYP) =  -3777.46662148     A.U. after   19 cycles
 SCF Done:  E(UB3LYP) =  -3777.46899159     A.U. after   19 cycles
 SCF Done:  E(UB3LYP) =  -3777.47217082     A.U. after   20 cycles
 SCF Done:  E(UB3LYP) =  -3777.47277521     A.U. after   20 cycles
 SCF Done:  E(UB3LYP) =  -3777.47372548     A.U. after   23 cycles
 SCF Done:  E(UB3LYP) =  -3777.47375707     A.U. after   23 cycles
 SCF Done:  E(UB3LYP) =  -3777.47391985     A.U. after   23 cycles
 SCF Done:  E(UB3LYP) =  -3777.47385579     A.U. after   23 cycles
 SCF Done:  E(UB3LYP) =  -3777.47395393     A.U. after   23 cycles
 SCF Done:  E(UB3LYP) =  -3777.47397679     A.U. after   23 cycles
 SCF Done:  E(UB3LYP) =  -3777.47398014     A.U. after   18 cycles
 SCF Done:  E(UB3LYP) =  -3777.47398140     A.U. after   19 cycles
 SCF Done:  E(UB3LYP) =  -3777.47398192     A.U. after   19 cycles
 Optimization completed.
    -- Stationary point found.
 Normal termination of Gaussian 16 at Thu Dec 21 11:48:08 2023.

 ----------------------------------------------------------------------
 #P Geom=AllCheck Guess=TCheck SCRF=Check GenChk UB3LYP/6-311++G(d,p) F
 req
 ----------------------------------------------------------------------

 Structure from the checkpoint file:  "161-an.chk"
 -------
 Reduced
 -------
 Charge = -2 Multiplicity = 1

                          Input orientation:
 ---------------------------------------------------------------------
 Center     Atomic      Atomic             Coordinates (Angstroms)
 Number     Number       Type             X           Y           Z
 ---------------------------------------------------------------------
      1          7           0       -4.557981    1.037155   -0.499369
      2          6           0       -3.277834    0.462857   -0.324341
      3          6           0       -3.144297   -0.958146   -0.252879
      4         17           0       -4.651182   -1.961666   -0.202318
      5          6           0       -1.930113   -1.577095   -0.195328
      6          6           0       -0.729200   -0.838904   -0.141309
      7          6           0        0.501209   -1.601576   -0.101125
      8          8           0        0.526608   -2.882273   -0.184219
      9          6           0        1.692082   -0.803255    0.076634
     10          6           0        2.957742   -1.440386    0.129972
     11          6           0        4.128346   -0.732275    0.306767
     12          6           0        4.074798    0.682775    0.442701
     13          6           0        2.855983    1.328371    0.403468
     14          6           0        1.633462    0.631805    0.220482
     15          6           0        0.396533    1.401252    0.205136
     16          8           0        0.405051    2.667375    0.398983
     17          6           0       -0.791624    0.623714   -0.054782
     18          6           0       -2.100941    1.183600   -0.227822
     19         35           0       -2.318803    3.112697   -0.620866
     20          1           0       -4.487721    1.977513   -0.872714
     21          1           0       -5.164566    0.455870   -1.066216
     22          1           0       -1.834242   -2.656640   -0.177662
     23          1           0        2.958562   -2.521109    0.026170
     24          1           0        5.085330   -1.250044    0.343842
     25          1           0        4.992679    1.252647    0.578145
     26          1           0        2.780119    2.405741    0.511238
 ---------------------------------------------------------------------

 SCF Done:  E(UB3LYP) =  -3777.47398192     A.U. after    2 cycles

 Alpha  occ. eigenvalues -- -482.59363-101.34330 -62.24632 -56.06642 -56.06304
 Alpha  occ. eigenvalues --  -56.06277 -18.79088 -18.78025 -14.10804  -9.99705
 Alpha  occ. eigenvalues --   -9.99527  -9.98862  -9.95116  -9.94827  -9.94106
 Alpha  occ. eigenvalues --   -9.93741  -9.93696  -9.92923  -9.92658  -9.92625
 Alpha  occ. eigenvalues --   -9.91949  -9.91404  -9.91349  -9.25766  -8.45585
 Alpha  occ. eigenvalues --   -7.02148  -7.01293  -7.01271  -6.28629  -6.27504
 Alpha  occ. eigenvalues --   -6.27437  -2.39735  -2.39427  -2.39378  -2.38483
 Alpha  occ. eigenvalues --   -2.38481  -0.71347  -0.70875  -0.70218  -0.64543
 Alpha  occ. eigenvalues --   -0.60606  -0.60150  -0.55774  -0.52743  -0.50309
 Alpha  occ. eigenvalues --   -0.49161  -0.48235  -0.41492  -0.39304  -0.37308
 Alpha  occ. eigenvalues --   -0.35161  -0.31592  -0.30013  -0.28681  -0.27645
 Alpha  occ. eigenvalues --   -0.24870  -0.22673  -0.21717  -0.20872  -0.18591
 Alpha  occ. eigenvalues --   -0.18493  -0.17859  -0.17188  -0.15962  -0.14790
 Alpha  occ. eigenvalues --   -0.14564  -0.13063  -0.12641  -0.11566  -0.10970
 Alpha  occ. eigenvalues --   -0.10668  -0.09864  -0.09489  -0.08049  -0.07184
 Alpha  occ. eigenvalues --   -0.06016  -0.05651  -0.01025  -0.00056   0.00617
 Alpha  occ. eigenvalues --    0.01722   0.03061   0.04488   0.12433
 Alpha virt. eigenvalues --    0.15494   0.15734   0.17535   0.17949   0.18437
 Alpha virt. eigenvalues --    0.19199   0.19860   0.20804   0.21555   0.21826
 Alpha virt. eigenvalues --    0.22097   0.22782   0.23143   0.23352   0.24101

  Beta  occ. eigenvalues -- -482.59363-101.34330 -62.24632 -56.06642 -56.06304
  Beta  occ. eigenvalues --  -56.06277 -18.79088 -18.78025 -14.10804  -9.99705
  Beta  occ. eigenvalues --   -9.99527  -9.98862  -9.95116  -9.94827  -9.94106
  Beta  occ. eigenvalues --   -9.93741  -9.93696  -9.92923  -9.92658  -9.92625
  Beta  occ. eigenvalues --   -9.91949  -9.91404  -9.91349  -9.25766  -8.45585
  Beta  occ. eigenvalues --   -7.02148  -7.01293  -7.01271  -6.28629  -6.27504
  Beta  occ. eigenvalues --   -6.27437  -2.39735  -2.39427  -2.39378  -2.38483
  Beta  occ. eigenvalues --   -2.38481  -0.71347  -0.70875  -0.70218  -0.64543
  Beta  occ. eigenvalues --   -0.60606  -0.60150  -0.55774  -0.52743  -0.50309
  Beta  occ. eigenvalues --   -0.49161  -0.48235  -0.41492  -0.39304  -0.37308
  Beta  occ. eigenvalues --   -0.35161  -0.31592  -0.30013  -0.28681  -0.27645
  Beta  occ. eigenvalues --   -0.24870  -0.22673  -0.21717  -0.20872  -0.18591
  Beta  occ. eigenvalues --   -0.18493  -0.17859  -0.17188  -0.15962  -0.14790
  Beta  occ. eigenvalues --   -0.14564  -0.13063  -0.12641  -0.11566  -0.10970
  Beta  occ. eigenvalues --   -0.10668  -0.09864  -0.09489  -0.08049  -0.07184
  Beta  occ. eigenvalues --   -0.06016  -0.05651  -0.01025  -0.00056   0.00617
  Beta  occ. eigenvalues --    0.01722   0.03061   0.04488   0.12433
  Beta virt. eigenvalues --    0.15494   0.15734   0.17535   0.17949   0.18437
  Beta virt. eigenvalues --    0.19199   0.19860   0.20804   0.21555   0.21826
  Beta virt. eigenvalues --    0.22097   0.22782   0.23143   0.23352   0.24101

 Mulliken charges and spin densities:
               1          2
     1  N   -0.103702   0.000000
     2  C   -2.493905  -0.000000
     3  C    1.491766   0.000000
     4  Cl   0.334671   0.000000
     5  C   -0.223900  -0.000000
     6  C   -0.218787  -0.000000
     7  C   -1.022452   0.000000
     8  O   -0.487434  -0.000000
     9  C    0.414705   0.000000
    10  C    0.001263  -0.000000
    11  C   -0.492871   0.000000
    12  C   -0.424205   0.000000
    13  C    0.058879  -0.000000
    14  C    0.530931   0.000000
    15  C   -1.513784  -0.000000
    16  O   -0.410746   0.000000
    17  C    1.173102   0.000000
    18  C    0.767622   0.000000
    19  Br  -0.318412   0.000000
    20  H    0.187948   0.000000
    21  H    0.136420  -0.000000
    22  H    0.184882   0.000000
    23  H    0.130563  -0.000000
    24  H    0.076000  -0.000000
    25  H    0.077014   0.000000
    26  H    0.144434  -0.000000
 Sum of Mulliken charges =  -2.00000   0.00000

 Dipole moment (field-independent basis, Debye):
    X=              1.8236    Y=             -0.6068    Z=             -0.6744  Tot=              2.0368
 Quadrupole moment (field-independent basis, Debye-Ang):
   XX=           -206.4279   YY=           -197.7699   ZZ=           -143.3436
   XY=              1.9690   XZ=             -1.4128   YZ=             -3.3970

  Exact polarizability: 833.862 -86.824 354.317 145.034 -31.688 186.176
 Approx polarizability:1162.830 -93.542 605.511 151.209 -12.501 258.509

                      1                      2                      3
                      A                      A                      A
 Frequencies --     27.2661                44.2534                82.5337
 Red. masses --     12.5299                 8.0507                 6.9879
 Frc consts  --      0.0055                 0.0093                 0.0280
 IR Inten    --      7.8317                 5.0642                 7.9601

                      4                      5                      6
                      A                      A                      A
 Frequencies --    125.1308               133.4579               142.8123
 Red. masses --      5.1832                10.7257                 7.7919
 Frc consts  --      0.0478                 0.1126                 0.0936
 IR Inten    --      2.1510                 4.7746                 3.0483

                      7                      8                      9
                      A                      A                      A
 Frequencies --    169.5562               191.4252               219.1153
 Red. masses --     22.2146                 6.4630                12.9472
 Frc consts  --      0.3763                 0.1395                 0.3662
 IR Inten    --      3.6794                 6.9187                 4.6540

                     10                     11                     12
                      A                      A                      A
 Frequencies --    250.0154               271.5783               293.3042
 Red. masses --      7.3736                 8.3180                 6.7831
 Frc consts  --      0.2716                 0.3615                 0.3438
 IR Inten    --    111.3061                 9.6742                 1.8628

                     13                     14                     15
                      A                      A                      A
 Frequencies --    303.0912               315.0500               321.3563
 Red. masses --      1.4208                 6.2470                 3.0317
 Frc consts  --      0.0769                 0.3653                 0.1845
 IR Inten    --     30.4542                 6.0511                10.2100

                     16                     17                     18
                      A                      A                      A
 Frequencies --    361.4203               368.6768               404.6363
 Red. masses --      7.3794                10.4247                 7.2861
 Frc consts  --      0.5679                 0.8348                 0.7029
 IR Inten    --      1.8196                 2.6197                13.0864

                     19                     20                     21
                      A                      A                      A
 Frequencies --    436.9504               474.0280               480.8634
 Red. masses --      4.0332                 7.1906                 6.1858
 Frc consts  --      0.4537                 0.9520                 0.8427
 IR Inten    --     57.3407                10.5480               134.2352

                     22                     23                     24
                      A                      A                      A
 Frequencies --    497.7868               526.9958               545.4206
 Red. masses --      5.5717                 5.3278                 5.3652
 Frc consts  --      0.8134                 0.8718                 0.9404
 IR Inten    --     13.3840                21.8190                 5.2023

                     25                     26                     27
                      A                      A                      A
 Frequencies --    605.2433               625.5636               660.1081
 Red. masses --      7.4449                 5.0546                 6.6771
 Frc consts  --      1.6068                 1.1654                 1.7142
 IR Inten    --     24.6443                82.0192                71.5229

                     28                     29                     30
                      A                      A                      A
 Frequencies --    688.5456               691.4246               701.9593
 Red. masses --      2.0950                 5.4904                 5.5549
 Frc consts  --      0.5852                 1.5465                 1.6127
 IR Inten    --     74.1185                40.2380                 5.8233

                     31                     32                     33
                      A                      A                      A
 Frequencies --    717.5508               742.9756               756.3862
 Red. masses --      7.1105                 3.9801                 2.5977
 Frc consts  --      2.1570                 1.2945                 0.8757
 IR Inten    --     63.9934                33.6786                21.5512

                     34                     35                     36
                      A                      A                      A
 Frequencies --    780.0426               789.4145               821.5490
 Red. masses --      1.8833                 1.8757                 2.8913
 Frc consts  --      0.6752                 0.6887                 1.1498
 IR Inten    --      5.8682                41.7581                14.2368

                     37                     38                     39
                      A                      A                      A
 Frequencies --    871.9538               932.4721               941.6226
 Red. masses --      5.3141                 1.4102                 7.5659
 Frc consts  --      2.3805                 0.7225                 3.9524
 IR Inten    --     27.9932                22.8577                29.8477

                     40                     41                     42
                      A                      A                      A
 Frequencies --    958.0973               968.4772               999.4943
 Red. masses --      1.2810                 1.3224                 3.9330
 Frc consts  --      0.6928                 0.7308                 2.3149
 IR Inten    --      1.7434                 2.6924                76.9215

                     43                     44                     45
                      A                      A                      A
 Frequencies --   1016.1556              1091.4254              1105.7126
 Red. masses --      2.0401                 2.9916                 2.3320
 Frc consts  --      1.2411                 2.0996                 1.6798
 IR Inten    --    147.9775                78.6092                97.0518

                     46                     47                     48
                      A                      A                      A
 Frequencies --   1119.0928              1138.7654              1172.1778
 Red. masses --      1.7670                 2.0962                 1.7773
 Frc consts  --      1.3038                 1.6016                 1.4388
 IR Inten    --     98.0306                26.9419                 0.9613

                     49                     50                     51
                      A                      A                      A
 Frequencies --   1201.8254              1213.3656              1249.0570
 Red. masses --      2.2675                 2.1498                 3.8165
 Frc consts  --      1.9297                 1.8648                 3.5082
 IR Inten    --    209.6684               199.0178                46.2323

                     52                     53                     54
                      A                      A                      A
 Frequencies --   1289.6280              1319.1471              1348.1689
 Red. masses --      2.7837                 4.8534                 8.1739
 Frc consts  --      2.7278                 4.9760                 8.7532
 IR Inten    --    146.9484               402.1056                46.2687

                     55                     56                     57
                      A                      A                      A
 Frequencies --   1363.3230              1421.0570              1456.6700
 Red. masses --      2.7100                 5.4011                 4.0299
 Frc consts  --      2.9677                 6.4263                 5.0381
 IR Inten    --    417.8550               276.4437                73.0338

                     58                     59                     60
                      A                      A                      A
 Frequencies --   1465.0346              1470.6738              1479.7051
 Red. masses --      3.7711                 6.2039                 4.4051
 Frc consts  --      4.7688                 7.9059                 5.6827
 IR Inten    --    208.6578               161.6854               403.7498

                     61                     62                     63
                      A                      A                      A
 Frequencies --   1508.4680              1560.6026              1573.8721
 Red. masses --      6.1751                 5.5154                 7.7638
 Frc consts  --      8.2788                 7.9142                11.3309
 IR Inten    --     68.9880               709.3680               132.8778

                     64                     65                     66
                      A                      A                      A
 Frequencies --   1589.7467              1613.1835              3091.8684
 Red. masses --      5.3242                 1.2244                 1.0827
 Frc consts  --      7.9279                 1.8773                 6.0980
 IR Inten    --      1.6455                10.1203                41.2150

                     67                     68                     69
                      A                      A                      A
 Frequencies --   3115.6492              3158.7228              3162.7996
 Red. masses --      1.0906                 1.0906                 1.0910
 Frc consts  --      6.2377                 6.4113                 6.4300
 IR Inten    --    180.0917                44.1501                76.1074

                     70                     71                     72
                      A                      A                      A
 Frequencies --   3179.7446              3476.8685              3580.8715
 Red. masses --      1.0896                 1.0465                 1.0968
 Frc consts  --      6.4908                 7.4538                 8.2861
 IR Inten    --      3.0173               851.2102               121.4021

 - Thermochemistry -
 -------------------
 Temperature   298.150 Kelvin.  Pressure   1.00000 Atm.
 Atom     1 has atomic number  7 and mass  14.00307

 Molecular mass:   334.93487 amu.
 Principal axes and moments of inertia in atomic units:
                           1         2         3
     Eigenvalues --  4616.547148584.57537**********
           X            0.98237   0.15841  -0.09930
           Y           -0.15421   0.98684   0.04873
           Z            0.10572  -0.03256   0.99386
 This molecule is an asymmetric top.
 Rotational symmetry number  1.
 Warning -- assumption of classical behavior for rotation
           may cause significant error
 Rotational temperatures (Kelvin)      0.01876     0.01009     0.00661
 Rotational constants (GHZ):           0.39093     0.21023     0.13781
 Zero-point vibrational energy     447241.8 (Joules/Mol)
                                  106.89335 (Kcal/Mol)
 Warning -- explicit consideration of  25 degrees of freedom as
           vibrations may cause significant error
 Vibrational temperatures:     39.23    63.67   118.75   180.04   192.02
          (Kelvin)            205.47   243.95   275.42   315.26   359.72
                              390.74   422.00   436.08   453.29   462.36
                              520.00   530.44   582.18   628.67   682.02
                              691.86   716.20   758.23   784.74   870.81
                              900.05   949.75   990.66   994.81  1009.96
                             1032.40  1068.98  1088.27  1122.31  1135.79
                             1182.03  1254.55  1341.62  1354.78  1378.49
                             1393.42  1438.05  1462.02  1570.32  1590.87
                             1610.12  1638.43  1686.50  1729.16  1745.76
                             1797.11  1855.49  1897.96  1939.71  1961.52
                             2044.58  2095.82  2107.86  2115.97  2128.97
                             2170.35  2245.36  2264.45  2287.29  2321.01
                             4448.51  4482.72  4544.70  4550.56  4574.94
                             5002.44  5152.08

 Zero-point correction=                           0.170345 (Hartree/Particle)
 Thermal correction to Energy=                    0.186238
 Thermal correction to Enthalpy=                  0.187182
 Thermal correction to Gibbs Free Energy=         0.125820
 Sum of electronic and zero-point Energies=          -3777.303637
 Sum of electronic and thermal Energies=             -3777.287744
 Sum of electronic and thermal Enthalpies=           -3777.286800
 Sum of electronic and thermal Free Energies=        -3777.348162

                     E (Thermal)             CV                S
                      KCal/Mol        Cal/Mol-Kelvin    Cal/Mol-Kelvin
 Total                  116.866             61.269            129.146
 Electronic               0.000              0.000              0.000
 Translational            0.889              2.981             43.321
 Rotational               0.889              2.981             34.606
 Vibrational            115.088             55.308             51.219
 Vibration     1          0.593              1.984              6.019
 Vibration     2          0.595              1.980              5.059
 Vibration     3          0.600              1.961              3.830
 Vibration     4          0.610              1.928              3.020
 Vibration     5          0.613              1.920              2.896
 Vibration     6          0.616              1.910              2.766
 Vibration     7          0.625              1.880              2.440
 Vibration     8          0.634              1.852              2.214
 Vibration     9          0.647              1.812              1.966
 Vibration    10          0.663              1.763              1.730
 Vibration    11          0.675              1.726              1.586
 Vibration    12          0.688              1.686              1.455
 Vibration    13          0.695              1.668              1.400
 Vibration    14          0.702              1.645              1.336
 Vibration    15          0.707              1.633              1.303
 Vibration    16          0.736              1.552              1.116
 Vibration    17          0.741              1.537              1.085
 Vibration    18          0.770              1.460              0.946
 Vibration    19          0.797              1.390              0.836
 Vibration    20          0.831              1.308              0.726
 Vibration    21          0.837              1.292              0.708
 Vibration    22          0.853              1.255              0.664
 Vibration    23          0.882              1.190              0.594
 Vibration    24          0.901              1.150              0.554
 Vibration    25          0.964              1.021              0.441

                           ! Non-Optimized Parameters !
 Normal termination of Gaussian 16 at Thu Dec 21 13:07:27 2023.
