 Gaussian 16, Revision A.03,
 Gaussian 16:  ES64L-G16RevA.03 25-Dec-2016

 --------------------------------------
 #P UB3LYP/6-311++G(d,p) nosym opt freq
 --------------------------------------

 --------
 Oxidized
 --------
 Symbolic Z-matrix:
 Charge =  0 Multiplicity = 1

 SCF Done:  E(UB3LYP) =  -803.492240268     A.U. after   16 cycles
 SCF Done:  E(UB3LYP) =  -803.510446519     A.U. after   13 cycles
 SCF Done:  E(UB3LYP) =  -803.512566889     A.U. after   13 cycles
 SCF Done:  E(UB3LYP) =  -803.513134752     A.U. after   12 cycles
 SCF Done:  E(UB3LYP) =  -803.513349528     A.U. after   12 cycles
 SCF Done:  E(UB3LYP) =  -803.513451863     A.U. after   11 cycles
 SCF Done:  E(UB3LYP) =  -803.513514317     A.U. after   12 cycles
 SCF Done:  E(UB3LYP) =  -803.513541734     A.U. after   11 cycles
 SCF Done:  E(UB3LYP) =  -803.513546925     A.U. after   10 cycles
 SCF Done:  E(UB3LYP) =  -803.513547226     A.U. after    8 cycles
 SCF Done:  E(UB3LYP) =  -803.513547266     A.U. after    8 cycles
 Optimization completed.
    -- Stationary point found.
 Normal termination of Gaussian 16 at Thu Dec 21 06:07:18 2023.

 ----------------------------------------------------------------------
 #P Geom=AllCheck Guess=TCheck SCRF=Check GenChk UB3LYP/6-311++G(d,p) F
 req
 ----------------------------------------------------------------------

 Structure from the checkpoint file:  "138.chk"
 --------
 Oxidized
 --------
 Charge =  0 Multiplicity = 1

                          Input orientation:
 ---------------------------------------------------------------------
 Center     Atomic      Atomic             Coordinates (Angstroms)
 Number     Number       Type             X           Y           Z
 ---------------------------------------------------------------------
      1          6           0        4.714789   -0.711571    0.883207
      2          8           0        4.258941    0.348795    0.044469
      3          6           0        2.926840    0.500136   -0.150980
      4          6           0        2.550818    1.565676   -0.989039
      5          6           0        1.216362    1.803846   -1.251235
      6          6           0        0.218456    0.992160   -0.689641
      7          6           0       -1.206434    1.273110   -0.990228
      8          8           0       -1.538148    2.197286   -1.717757
      9          6           0       -2.229627    0.378776   -0.366743
     10          6           0       -3.583102    0.611536   -0.625926
     11          6           0       -4.554528   -0.205406   -0.058596
     12          6           0       -4.182081   -1.264095    0.774207
     13          6           0       -2.838604   -1.503391    1.037809
     14          6           0       -1.854913   -0.686564    0.471293
     15          6           0       -0.420878   -0.965192    0.770534
     16          8           0       -0.090639   -1.888765    1.497423
     17          6           0        0.598901   -0.069386    0.145708
     18          6           0        1.947947   -0.315937    0.415142
     19          1           0        4.418835   -1.686389    0.483958
     20          1           0        4.333991   -0.600460    1.902968
     21          1           0        5.800181   -0.634725    0.889340
     22          1           0        3.329355    2.185608   -1.416968
     23          1           0        0.914615    2.620932   -1.894806
     24          1           0       -3.848935    1.437391   -1.274110
     25          1           0       -5.602943   -0.020073   -0.263202
     26          1           0       -4.941233   -1.899842    1.215538
     27          1           0       -2.527005   -2.317817    1.680038
     28          1           0        2.189038   -1.145638    1.064671
 ---------------------------------------------------------------------

 SCF Done:  E(UB3LYP) =  -803.513547266     A.U. after    1 cycles

 Alpha  occ. eigenvalues --  -19.17809 -19.12705 -19.12058 -10.27892 -10.27376
 Alpha  occ. eigenvalues --  -10.26335 -10.24126 -10.21061 -10.20727 -10.20656
 Alpha  occ. eigenvalues --  -10.20112 -10.20087 -10.20026 -10.19863 -10.19779
 Alpha  occ. eigenvalues --  -10.19679 -10.19666 -10.19634  -1.09415  -1.06095
 Alpha  occ. eigenvalues --   -1.05419  -0.89306  -0.88164  -0.81360  -0.78035
 Alpha  occ. eigenvalues --   -0.77781  -0.77694  -0.72854  -0.68838  -0.66073
 Alpha  occ. eigenvalues --   -0.64089  -0.61812  -0.58760  -0.56670  -0.56256
 Alpha  occ. eigenvalues --   -0.52226  -0.51235  -0.49699  -0.49165  -0.48845
 Alpha  occ. eigenvalues --   -0.46266  -0.45750  -0.45117  -0.45030  -0.44945
 Alpha  occ. eigenvalues --   -0.44658  -0.43047  -0.41840  -0.41219  -0.40198
 Alpha  occ. eigenvalues --   -0.38543  -0.38391  -0.37751  -0.36863  -0.35571
 Alpha  occ. eigenvalues --   -0.34018  -0.28534  -0.28132  -0.28073  -0.27668
 Alpha  occ. eigenvalues --   -0.26851  -0.25139
 Alpha virt. eigenvalues --   -0.11360  -0.06996  -0.03480  -0.02385  -0.01166
 Alpha virt. eigenvalues --   -0.00637   0.00632   0.01348   0.01597   0.02585
 Alpha virt. eigenvalues --    0.02595   0.03060   0.03664   0.04050   0.04132

  Beta  occ. eigenvalues --  -19.17809 -19.12705 -19.12058 -10.27892 -10.27376
  Beta  occ. eigenvalues --  -10.26335 -10.24126 -10.21061 -10.20727 -10.20656
  Beta  occ. eigenvalues --  -10.20112 -10.20087 -10.20026 -10.19863 -10.19779
  Beta  occ. eigenvalues --  -10.19679 -10.19666 -10.19634  -1.09415  -1.06095
  Beta  occ. eigenvalues --   -1.05419  -0.89306  -0.88164  -0.81360  -0.78035
  Beta  occ. eigenvalues --   -0.77781  -0.77694  -0.72854  -0.68838  -0.66073
  Beta  occ. eigenvalues --   -0.64089  -0.61812  -0.58760  -0.56670  -0.56256
  Beta  occ. eigenvalues --   -0.52226  -0.51235  -0.49699  -0.49165  -0.48845
  Beta  occ. eigenvalues --   -0.46266  -0.45750  -0.45117  -0.45030  -0.44945
  Beta  occ. eigenvalues --   -0.44658  -0.43047  -0.41840  -0.41219  -0.40198
  Beta  occ. eigenvalues --   -0.38543  -0.38391  -0.37751  -0.36863  -0.35571
  Beta  occ. eigenvalues --   -0.34018  -0.28534  -0.28132  -0.28073  -0.27668
  Beta  occ. eigenvalues --   -0.26851  -0.25139
  Beta virt. eigenvalues --   -0.11360  -0.06996  -0.03480  -0.02385  -0.01166
  Beta virt. eigenvalues --   -0.00637   0.00632   0.01348   0.01597   0.02585
  Beta virt. eigenvalues --    0.02595   0.03060   0.03664   0.04050   0.04132

 Mulliken charges and spin densities:
               1          2
     1  C   -0.339294   0.000000
     2  O   -0.152270  -0.000000
     3  C   -0.710219   0.000000
     4  C   -0.273995   0.000000
     5  C    0.245897   0.000000
     6  C    0.197159   0.000000
     7  C   -0.807623  -0.000000
     8  O   -0.220330   0.000000
     9  C    0.054234  -0.000000
    10  C    0.202965  -0.000000
    11  C   -0.383532  -0.000000
    12  C   -0.379855   0.000000
    13  C    0.151693   0.000000
    14  C    0.348196  -0.000000
    15  C   -0.786576   0.000000
    16  O   -0.213383  -0.000000
    17  C    0.720557  -0.000000
    18  C    0.549596  -0.000000
    19  H    0.165202  -0.000000
    20  H    0.165185  -0.000000
    21  H    0.189339  -0.000000
    22  H    0.205756  -0.000000
    23  H    0.192604  -0.000000
    24  H    0.184923   0.000000
    25  H    0.175064  -0.000000
    26  H    0.176303  -0.000000
    27  H    0.182126  -0.000000
    28  H    0.160276   0.000000
 Sum of Mulliken charges =  -0.00000   0.00000

 Dipole moment (field-independent basis, Debye):
    X=              0.8184    Y=             -1.2036    Z=              0.9704  Tot=              1.7493
 Quadrupole moment (field-independent basis, Debye-Ang):
   XX=            -78.8590   YY=           -108.9993   ZZ=           -107.7520
   XY=              2.2540   XZ=             -0.0587   YZ=              2.3802

  Exact polarizability: 283.727   7.395 160.873   5.844 -52.712 132.146
 Approx polarizability: 406.812  -5.362 295.825  19.668-114.431 235.552

                      1                      2                      3
                      A                      A                      A
 Frequencies --     37.7331                66.1663               115.6123
 Red. masses --      6.9453                 4.0577                 4.5018
 Frc consts  --      0.0058                 0.0105                 0.0355
 IR Inten    --      4.8550                 0.0016                 0.1405

                      4                      5                      6
                      A                      A                      A
 Frequencies --    129.5656               141.8783               147.0200
 Red. masses --      4.6743                 5.2761                 4.3779
 Frc consts  --      0.0462                 0.0626                 0.0558
 IR Inten    --      6.5946                 1.4790                 1.3938

                      7                      8                      9
                      A                      A                      A
 Frequencies --    189.5771               231.6756               244.4600
 Red. masses --      2.8726                 1.4455                 4.4582
 Frc consts  --      0.0608                 0.0457                 0.1570
 IR Inten    --      0.0317                 0.2614                 2.2772

                     10                     11                     12
                      A                      A                      A
 Frequencies --    299.9643               304.0055               345.7035
 Red. masses --      6.9554                 4.5305                 6.4746
 Frc consts  --      0.3687                 0.2467                 0.4559
 IR Inten    --      0.7796                 0.7683                 1.8957

                     13                     14                     15
                      A                      A                      A
 Frequencies --    390.3310               417.5354               421.5006
 Red. masses --     11.4503                 3.4727                 7.5568
 Frc consts  --      1.0279                 0.3567                 0.7910
 IR Inten    --     19.6103                 0.2394                 5.3205

                     16                     17                     18
                      A                      A                      A
 Frequencies --    449.6332               458.5523               468.2495
 Red. masses --      3.8297                 3.9577                 8.6948
 Frc consts  --      0.4562                 0.4903                 1.1232
 IR Inten    --      0.0057                 0.1607                 0.7536

                     19                     20                     21
                      A                      A                      A
 Frequencies --    496.6192               561.8054               581.5457
 Red. masses --      5.1222                 4.5386                 6.6033
 Frc consts  --      0.7443                 0.8440                 1.3158
 IR Inten    --      0.5350                 4.3795                22.4005

                     22                     23                     24
                      A                      A                      A
 Frequencies --    649.0626               676.0681               681.6437
 Red. masses --      6.9797                 3.5839                 6.4262
 Frc consts  --      1.7325                 0.9651                 1.7592
 IR Inten    --     10.2131                 8.7716                 4.8600

                     25                     26                     27
                      A                      A                      A
 Frequencies --    704.0268               724.4298               736.1436
 Red. masses --      6.5889                 4.0654                 2.3049
 Frc consts  --      1.9242                 1.2570                 0.7359
 IR Inten    --      2.4985                 8.3885                68.2044

                     28                     29                     30
                      A                      A                      A
 Frequencies --    750.5811               798.2448               810.2546
 Red. masses --      6.7289                 4.5566                 1.9231
 Frc consts  --      2.2335                 1.7107                 0.7439
 IR Inten    --     12.8223                 0.0780                 5.1022

                     31                     32                     33
                      A                      A                      A
 Frequencies --    855.7238               865.0325               904.4506
 Red. masses --      6.4280                 1.5520                 1.4757
 Frc consts  --      2.7733                 0.6842                 0.7113
 IR Inten    --     19.0807                24.9217                17.3740

                     34                     35                     36
                      A                      A                      A
 Frequencies --    917.2447               942.8026               996.3238
 Red. masses --      1.3985                 7.1650                 4.3784
 Frc consts  --      0.6932                 3.7524                 2.5608
 IR Inten    --      0.2234                65.8467                21.9155

                     37                     38                     39
                      A                      A                      A
 Frequencies --    999.7870              1003.7254              1017.8696
 Red. masses --      1.3235                 1.3778                 1.3236
 Frc consts  --      0.7794                 0.8179                 0.8080
 IR Inten    --      0.0014                 2.6291                 0.0126

                     40                     41                     42
                      A                      A                      A
 Frequencies --   1049.4837              1057.9158              1105.2217
 Red. masses --      3.9769                 1.9454                 2.6582
 Frc consts  --      2.5807                 1.2828                 1.9131
 IR Inten    --     36.8788                 2.8984                52.1233

                     43                     44                     45
                      A                      A                      A
 Frequencies --   1112.5158              1167.5249              1168.1182
 Red. masses --      2.0816                 1.2736                 1.5267
 Frc consts  --      1.5180                 1.0228                 1.2274
 IR Inten    --      4.8771                 0.6493                20.2780

                     46                     47                     48
                      A                      A                      A
 Frequencies --   1180.8026              1193.1247              1205.0930
 Red. masses --      1.3007                 1.9850                 1.4724
 Frc consts  --      1.0685                 1.6649                 1.2598
 IR Inten    --     15.9876                 2.7492                 0.3382

                     49                     50                     51
                      A                      A                      A
 Frequencies --   1237.0097              1260.9598              1292.0084
 Red. masses --      1.7712                 2.5059                 1.9315
 Frc consts  --      1.5968                 2.3476                 1.8997
 IR Inten    --      8.6833                82.7299                19.3585

                     52                     53                     54
                      A                      A                      A
 Frequencies --   1313.8260              1314.2267              1355.6702
 Red. masses --      2.2724                 6.4069                 7.2800
 Frc consts  --      2.3110                 6.5199                 7.8829
 IR Inten    --      7.3478              1060.0024                16.5091

                     55                     56                     57
                      A                      A                      A
 Frequencies --   1375.5577              1450.6299              1477.4749
 Red. masses --      8.7116                 3.2475                 1.3331
 Frc consts  --      9.7119                 4.0264                 1.7146
 IR Inten    --     67.3908                11.6458                 4.1415

                     58                     59                     60
                      A                      A                      A
 Frequencies --   1482.0537              1494.0709              1503.3207
 Red. masses --      2.3647                 1.0447                 1.1643
 Frc consts  --      3.0602                 1.3740                 1.5503
 IR Inten    --      0.2918                10.7509                42.1422

                     61                     62                     63
                      A                      A                      A
 Frequencies --   1504.4458              1524.2638              1600.2995
 Red. masses --      2.1971                 2.7521                 7.6147
 Frc consts  --      2.9299                 3.7673                11.4896
 IR Inten    --      3.1574                37.4805                15.0954

                     64                     65                     66
                      A                      A                      A
 Frequencies --   1613.8143              1627.2912              1632.4667
 Red. masses --      6.8644                 6.1833                 5.9436
 Frc consts  --     10.5331                 9.6472                 9.3322
 IR Inten    --     62.2076               241.9928               109.0316

                     67                     68                     69
                      A                      A                      A
 Frequencies --   1713.1314              1724.7830              3016.8597
 Red. masses --     12.5311                11.9976                 1.0337
 Frc consts  --     21.6680                21.0287                 5.5429
 IR Inten    --     23.7285               292.8936                45.1633

                     70                     71                     72
                      A                      A                      A
 Frequencies --   3080.9683              3143.2239              3169.5661
 Red. masses --      1.1068                 1.1007                 1.0869
 Frc consts  --      6.1901                 6.4069                 6.4336
 IR Inten    --     27.7405                20.4166                 3.4490

                     73                     74                     75
                      A                      A                      A
 Frequencies --   3184.0319              3188.9141              3199.6849
 Red. masses --      1.0918                 1.0885                 1.0925
 Frc consts  --      6.5215                 6.5215                 6.5897
 IR Inten    --     11.0415                 0.9258                 0.3837

                     76                     77                     78
                      A                      A                      A
 Frequencies --   3202.2278              3203.5027              3218.5225
 Red. masses --      1.0949                 1.0947                 1.0897
 Frc consts  --      6.6147                 6.6190                 6.6510
 IR Inten    --     14.2683                 2.2313                 6.7918

 - Thermochemistry -
 -------------------
 Temperature   298.150 Kelvin.  Pressure   1.00000 Atm.
 Atom     1 has atomic number  6 and mass  12.00000

 Molecular mass:   238.06299 amu.
 Principal axes and moments of inertia in atomic units:
                           1         2         3
     Eigenvalues --  1888.267216594.791558471.54179
           X            0.99700  -0.06110  -0.04746
           Y            0.07736   0.79078   0.60720
           Z            0.00043  -0.60905   0.79313
 This molecule is an asymmetric top.
 Rotational symmetry number  1.
 Warning -- assumption of classical behavior for rotation
           may cause significant error
 Rotational temperatures (Kelvin)      0.04587     0.01313     0.01022
 Rotational constants (GHZ):           0.95577     0.27366     0.21304
 Zero-point vibrational energy     555528.8 (Joules/Mol)
                                  132.77456 (Kcal/Mol)
 Warning -- explicit consideration of  21 degrees of freedom as
           vibrations may cause significant error
 Vibrational temperatures:     54.29    95.20   166.34   186.42   204.13
          (Kelvin)            211.53   272.76   333.33   351.72   431.58
                              437.40   497.39   561.60   600.74   606.45
                              646.92   659.75   673.71   714.52   808.31
                              836.71   933.86   972.71   980.73  1012.94
                             1042.29  1059.15  1079.92  1148.50  1165.78
                             1231.20  1244.59  1301.30  1319.71  1356.48
                             1433.49  1438.47  1444.14  1464.49  1509.97
                             1522.10  1590.17  1600.66  1679.81  1680.66
                             1698.91  1716.64  1733.86  1779.78  1814.24
                             1858.91  1890.30  1890.88  1950.51  1979.12
                             2087.13  2125.76  2132.34  2149.63  2162.94
                             2164.56  2193.08  2302.47  2321.92  2341.31
                             2348.76  2464.81  2481.58  4340.59  4432.83
                             4522.40  4560.30  4581.11  4588.14  4603.63
                             4607.29  4609.13  4630.74

 Zero-point correction=                           0.211590 (Hartree/Particle)
 Thermal correction to Energy=                    0.225497
 Thermal correction to Enthalpy=                  0.226441
 Thermal correction to Gibbs Free Energy=         0.170548
 Sum of electronic and zero-point Energies=           -803.301958
 Sum of electronic and thermal Energies=              -803.288051
 Sum of electronic and thermal Enthalpies=            -803.287106
 Sum of electronic and thermal Free Energies=         -803.343000

                     E (Thermal)             CV                S
                      KCal/Mol        Cal/Mol-Kelvin    Cal/Mol-Kelvin
 Total                  141.501             54.928            117.637
 Electronic               0.000              0.000              0.000
 Translational            0.889              2.981             42.303
 Rotational               0.889              2.981             33.022
 Vibrational            139.724             48.967             42.311
 Vibration     1          0.594              1.982              5.375
 Vibration     2          0.598              1.970              4.264
 Vibration     3          0.608              1.936              3.172
 Vibration     4          0.612              1.924              2.952
 Vibration     5          0.615              1.911              2.778
 Vibration     6          0.617              1.906              2.710
 Vibration     7          0.633              1.854              2.232
 Vibration     8          0.653              1.793              1.866
 Vibration     9          0.660              1.772              1.770
 Vibration    10          0.692              1.674              1.417
 Vibration    11          0.695              1.666              1.395
 Vibration    12          0.724              1.584              1.186
 Vibration    13          0.758              1.491              0.999
 Vibration    14          0.781              1.432              0.900
 Vibration    15          0.784              1.423              0.887
 Vibration    16          0.809              1.362              0.797
 Vibration    17          0.817              1.342              0.770
 Vibration    18          0.825              1.320              0.742
 Vibration    19          0.852              1.258              0.667
 Vibration    20          0.918              1.114              0.520
 Vibration    21          0.938              1.071              0.483

 Optimization completed.
    -- Stationary point found.
 Normal termination of Gaussian 16 at Thu Dec 21 06:40:15 2023.
