 Gaussian 16, Revision A.03,
 Gaussian 16:  ES64L-G16RevA.03 25-Dec-2016

 ----------------------------------------------------------------
 #P UB3LYP/6-311++G(d,p) SCRF=(PCM,Solvent=n,n-DiMethylFormamide)
 ----------------------------------------------------------------

 ------------------
 Quinone PCM in DMF
 ------------------
 Symbolic Z-matrix:
 Charge =  0 Multiplicity = 1

                         Standard orientation:
 ---------------------------------------------------------------------
 Center     Atomic      Atomic             Coordinates (Angstroms)
 Number     Number       Type             X           Y           Z
 ---------------------------------------------------------------------
      1          6           0        3.767009   -0.341542    0.001316
      2          8           0        2.397242   -0.731186    0.000482
      3          6           0        1.435277    0.210275   -0.000044
      4          6           0        1.722339    1.583867   -0.000277
      5          6           0        0.697381    2.522598   -0.000444
      6          6           0       -0.631050    2.117933   -0.000317
      7          6           0       -0.934091    0.757884   -0.000190
      8          6           0       -2.383739    0.374906    0.000199
      9          8           0       -3.270028    1.214488   -0.000371
     10          6           0       -2.709288   -1.063951    0.001567
     11          6           0       -1.746225   -1.991922    0.001156
     12          6           0       -0.292500   -1.666375   -0.000684
     13          8           0        0.505800   -2.588934   -0.002587
     14          6           0        0.083200   -0.223172   -0.000250
     15          1           0        4.329297   -1.273055    0.001963
     16          1           0        4.019036    0.235306   -0.894300
     17          1           0        4.017765    0.235800    0.896988
     18          1           0        2.748895    1.922159   -0.000370
     19          1           0        0.944670    3.578210   -0.000638
     20          1           0       -1.443883    2.832106   -0.000315
     21          1           0       -3.764615   -1.314104    0.002557
     22          1           0       -1.965156   -3.054369    0.001739
 ---------------------------------------------------------------------

 SCF Done:  E(UB3LYP) =  -649.819554051     A.U. after   15 cycles

 The electronic state is 1-A.
 Alpha  occ. eigenvalues --  -19.17431 -19.13710 -19.13132 -10.28560 -10.28433
 Alpha  occ. eigenvalues --  -10.26908 -10.22977 -10.21224 -10.21195 -10.21106
 Alpha  occ. eigenvalues --  -10.20939 -10.20222 -10.19798 -10.19317  -1.09524
 Alpha  occ. eigenvalues --   -1.06991  -1.06394  -0.89005  -0.84086  -0.78737
 Alpha  occ. eigenvalues --   -0.77965  -0.72055  -0.70037  -0.65026  -0.64291
 Alpha  occ. eigenvalues --   -0.58786  -0.54907  -0.54223  -0.51985  -0.50711
 Alpha  occ. eigenvalues --   -0.48921  -0.48711  -0.47171  -0.46330  -0.45094
 Alpha  occ. eigenvalues --   -0.44101  -0.43001  -0.42581  -0.41973  -0.39625
 Alpha  occ. eigenvalues --   -0.39256  -0.38696  -0.35550  -0.34535  -0.30948
 Alpha  occ. eigenvalues --   -0.28750  -0.28504  -0.27154  -0.25114
 Alpha virt. eigenvalues --   -0.12709  -0.04881  -0.03724  -0.00622   0.00408
 Alpha virt. eigenvalues --    0.00841   0.02051   0.02514   0.02579   0.03228
 Alpha virt. eigenvalues --    0.03261   0.04518   0.05376   0.05695   0.05775

  Beta  occ. eigenvalues --  -19.17431 -19.13710 -19.13132 -10.28560 -10.28433
  Beta  occ. eigenvalues --  -10.26908 -10.22977 -10.21224 -10.21195 -10.21106
  Beta  occ. eigenvalues --  -10.20939 -10.20222 -10.19798 -10.19317  -1.09524
  Beta  occ. eigenvalues --   -1.06991  -1.06394  -0.89005  -0.84086  -0.78737
  Beta  occ. eigenvalues --   -0.77965  -0.72055  -0.70037  -0.65026  -0.64291
  Beta  occ. eigenvalues --   -0.58786  -0.54907  -0.54223  -0.51985  -0.50711
  Beta  occ. eigenvalues --   -0.48921  -0.48711  -0.47171  -0.46330  -0.45094
  Beta  occ. eigenvalues --   -0.44101  -0.43001  -0.42581  -0.41973  -0.39625
  Beta  occ. eigenvalues --   -0.39256  -0.38696  -0.35550  -0.34535  -0.30948
  Beta  occ. eigenvalues --   -0.28750  -0.28504  -0.27154  -0.25114
  Beta virt. eigenvalues --   -0.12709  -0.04881  -0.03724  -0.00622   0.00408
  Beta virt. eigenvalues --    0.00841   0.02051   0.02514   0.02579   0.03228
  Beta virt. eigenvalues --    0.03261   0.04518   0.05376   0.05695   0.05775

 Mulliken charges and spin densities:
               1          2
     1  C   -0.282865   0.000000
     2  O   -0.142164  -0.000000
     3  C    0.331012  -0.000000
     4  C    0.020123  -0.000000
     5  C   -0.397182  -0.000000
     6  C    0.071415  -0.000000
     7  C   -0.042082   0.000000
     8  C   -0.291164  -0.000000
     9  O   -0.300165   0.000000
    10  C   -0.189380   0.000000
    11  C    0.022763  -0.000000
    12  C   -0.382653   0.000000
    13  O   -0.301360  -0.000000
    14  C    0.262632  -0.000000
    15  H    0.202166   0.000000
    16  H    0.171465  -0.000000
    17  H    0.171410  -0.000000
    18  H    0.208609   0.000000
    19  H    0.222803  -0.000000
    20  H    0.178422  -0.000000
    21  H    0.234830   0.000000
    22  H    0.231362   0.000000
 Sum of Mulliken charges =  -0.00000  -0.00000

 Dipole moment (field-independent basis, Debye):
    X=              3.8639    Y=              2.4040    Z=              0.0081  Tot=              4.5507
 Quadrupole moment (field-independent basis, Debye-Ang):
   XX=            -72.1350   YY=            -82.5999   ZZ=            -81.6651
   XY=             17.6708   XZ=             -0.0005   YZ=             -0.0184

 Normal termination of Gaussian 16 at Sun Jan 21 08:02:36 2024.
