 Gaussian 16, Revision A.03,
 Gaussian 16:  ES64L-G16RevA.03 25-Dec-2016

 ----------------------------------------------------------------------
 #P UB3LYP/6-311++G(d,p) nosym opt freq SCRF=(PCM,Solvent=n,n-DiMethylF
 ormamide)
 ----------------------------------------------------------------------

 --------
 Oxidized
 --------
 Symbolic Z-matrix:
 Charge =  0 Multiplicity = 1

 SCF Done:  E(UB3LYP) =  -1357.59423192     A.U. after   16 cycles
 SCF Done:  E(UB3LYP) =  -1357.59444304     A.U. after   17 cycles
 SCF Done:  E(UB3LYP) =  -1357.59421755     A.U. after   16 cycles
 SCF Done:  E(UB3LYP) =  -1357.59460030     A.U. after   16 cycles
 SCF Done:  E(UB3LYP) =  -1357.59461893     A.U. after   13 cycles
 SCF Done:  E(UB3LYP) =  -1357.59464219     A.U. after   12 cycles
 SCF Done:  E(UB3LYP) =  -1357.59464622     A.U. after   11 cycles
 SCF Done:  E(UB3LYP) =  -1357.59464989     A.U. after   11 cycles
 SCF Done:  E(UB3LYP) =  -1357.59465532     A.U. after   12 cycles
 SCF Done:  E(UB3LYP) =  -1357.59466059     A.U. after   12 cycles
 SCF Done:  E(UB3LYP) =  -1357.59466272     A.U. after   11 cycles
 SCF Done:  E(UB3LYP) =  -1357.59466565     A.U. after   12 cycles
 SCF Done:  E(UB3LYP) =  -1357.59466597     A.U. after   10 cycles
 SCF Done:  E(UB3LYP) =  -1357.59466599     A.U. after    9 cycles
 Optimization completed.
    -- Stationary point found.
 Normal termination of Gaussian 16 at Sun Feb 11 17:04:14 2024.

 ----------------------------------------------------------------------
 #P Geom=AllCheck Guess=TCheck SCRF=Check GenChk UB3LYP/6-311++G(d,p) F
 req
 ----------------------------------------------------------------------

 Structure from the checkpoint file:  "314.chk"
 --------
 Oxidized
 --------
 Charge =  0 Multiplicity = 1

                          Input orientation:
 ---------------------------------------------------------------------
 Center     Atomic      Atomic             Coordinates (Angstroms)
 Number     Number       Type             X           Y           Z
 ---------------------------------------------------------------------
      1          6           0       -4.982985   -0.831300   -2.548661
      2          6           0       -4.429205   -1.986370   -3.093063
      3          6           0       -3.099093   -2.319042   -2.826266
      4          6           0       -4.210896   -0.005894   -1.727249
      5          6           0       -2.874687   -0.338648   -1.462232
      6          6           0       -2.321574   -1.495136   -2.017344
      7          6           0       -4.805779    1.220567   -1.137244
      8          6           0       -4.003444    2.015846   -0.152996
      9          6           0       -2.713309    1.674103    0.107694
     10          6           0       -2.030609    0.550370   -0.618516
     11          8           0       -5.944709    1.571160   -1.418695
     12          8           0       -0.825034    0.383183   -0.539327
     13          1           0       -6.011411   -0.559825   -2.750072
     14          1           0       -5.031739   -2.627458   -3.725582
     15          1           0       -2.669447   -3.218403   -3.251378
     16          1           0       -1.287460   -1.737700   -1.808538
     17          6           0       -4.718110    3.174621    0.473031
     18         16           0       -1.704290    2.686158    1.172478
     19          6           0       -0.958511    1.494968    2.291470
     20          6           0       -1.679237    0.461311    2.846203
     21          6           0       -1.068888   -0.429696    3.767179
     22          6           0        0.297309   -0.221392    4.139667
     23          6           0        1.001088    0.869528    3.563454
     24          6           0        0.396272    1.704953    2.656730
     25          6           0       -1.780107   -1.516459    4.344541
     26          6           0       -1.166865   -2.357383    5.243519
     27          6           0        0.185929   -2.152877    5.609265
     28          6           0        0.900359   -1.108338    5.069843
     29          1           0       -4.697914    4.040803   -0.197549
     30          1           0       -4.246411    3.467214    1.409900
     31          1           0       -5.766630    2.927520    0.640109
     32          1           0       -2.721912    0.312409    2.588838
     33          1           0        2.037487    1.031543    3.839773
     34          1           0        0.951752    2.520560    2.209092
     35          1           0       -2.816389   -1.673059    4.064505
     36          1           0       -1.718978   -3.183534    5.677041
     37          1           0        0.656006   -2.824258    6.318750
     38          1           0        1.936431   -0.948889    5.349264
 ---------------------------------------------------------------------

 SCF Done:  E(UB3LYP) =  -1357.59466599     A.U. after    2 cycles

 Alpha  occ. eigenvalues --  -88.87473 -19.13824 -19.13770 -10.29151 -10.28705
 Alpha  occ. eigenvalues --  -10.24092 -10.22690 -10.22317 -10.21172 -10.21080
 Alpha  occ. eigenvalues --  -10.20110 -10.20086 -10.20043 -10.20000 -10.19899
 Alpha  occ. eigenvalues --  -10.19667 -10.19110 -10.19101 -10.18948 -10.18573
 Alpha  occ. eigenvalues --  -10.18563 -10.18491 -10.18425 -10.17728  -7.96075
 Alpha  occ. eigenvalues --   -5.92470  -5.92066  -5.91476  -1.07285  -1.06935
 Alpha  occ. eigenvalues --   -0.89588  -0.89294  -0.86643  -0.84263  -0.80024
 Alpha  occ. eigenvalues --   -0.78933  -0.78149  -0.77844  -0.74844  -0.73316
 Alpha  occ. eigenvalues --   -0.70855  -0.68477  -0.64924  -0.63599  -0.62503
 Alpha  occ. eigenvalues --   -0.61130  -0.60786  -0.58976  -0.55495  -0.52834
 Alpha  occ. eigenvalues --   -0.52715  -0.51873  -0.50718  -0.49720  -0.47598
 Alpha  occ. eigenvalues --   -0.46746  -0.46500  -0.46133  -0.45668  -0.45444
 Alpha  occ. eigenvalues --   -0.45280  -0.43750  -0.43239  -0.43046  -0.42256
 Alpha  occ. eigenvalues --   -0.41798  -0.41432  -0.40759  -0.40194  -0.39212
 Alpha  occ. eigenvalues --   -0.38399  -0.38053  -0.37316  -0.37022  -0.35258
 Alpha  occ. eigenvalues --   -0.34819  -0.34541  -0.31091  -0.30277  -0.29439
 Alpha  occ. eigenvalues --   -0.28743  -0.28299  -0.28091  -0.27009  -0.24660
 Alpha  occ. eigenvalues --   -0.22657
 Alpha virt. eigenvalues --   -0.12912  -0.06337  -0.05958  -0.04144  -0.03142
 Alpha virt. eigenvalues --   -0.00947  -0.00497  -0.00169   0.00242   0.00618
 Alpha virt. eigenvalues --    0.01160   0.01420   0.01804   0.02175   0.02498

  Beta  occ. eigenvalues --  -88.87473 -19.13824 -19.13770 -10.29151 -10.28705
  Beta  occ. eigenvalues --  -10.24092 -10.22690 -10.22317 -10.21172 -10.21080
  Beta  occ. eigenvalues --  -10.20110 -10.20086 -10.20043 -10.20000 -10.19899
  Beta  occ. eigenvalues --  -10.19667 -10.19110 -10.19101 -10.18948 -10.18573
  Beta  occ. eigenvalues --  -10.18563 -10.18491 -10.18425 -10.17728  -7.96075
  Beta  occ. eigenvalues --   -5.92470  -5.92066  -5.91476  -1.07285  -1.06935
  Beta  occ. eigenvalues --   -0.89588  -0.89294  -0.86643  -0.84263  -0.80024
  Beta  occ. eigenvalues --   -0.78933  -0.78149  -0.77844  -0.74844  -0.73316
  Beta  occ. eigenvalues --   -0.70855  -0.68477  -0.64924  -0.63599  -0.62503
  Beta  occ. eigenvalues --   -0.61130  -0.60786  -0.58976  -0.55495  -0.52834
  Beta  occ. eigenvalues --   -0.52715  -0.51873  -0.50718  -0.49720  -0.47598
  Beta  occ. eigenvalues --   -0.46746  -0.46500  -0.46133  -0.45668  -0.45444
  Beta  occ. eigenvalues --   -0.45280  -0.43750  -0.43239  -0.43046  -0.42256
  Beta  occ. eigenvalues --   -0.41798  -0.41432  -0.40759  -0.40194  -0.39212
  Beta  occ. eigenvalues --   -0.38399  -0.38053  -0.37316  -0.37022  -0.35258
  Beta  occ. eigenvalues --   -0.34819  -0.34541  -0.31091  -0.30277  -0.29439
  Beta  occ. eigenvalues --   -0.28743  -0.28299  -0.28091  -0.27009  -0.24660
  Beta  occ. eigenvalues --   -0.22657
  Beta virt. eigenvalues --   -0.12912  -0.06337  -0.05958  -0.04144  -0.03142
  Beta virt. eigenvalues --   -0.00947  -0.00497  -0.00169   0.00242   0.00618
  Beta virt. eigenvalues --    0.01160   0.01420   0.01804   0.02175   0.02498

 Mulliken charges and spin densities:
               1          2
     1  C    0.035827  -0.000000
     2  C   -0.502795   0.000000
     3  C   -0.455063   0.000000
     4  C    0.534635   0.000000
     5  C    0.218969   0.000000
     6  C   -0.080991  -0.000000
     7  C   -0.497310  -0.000000
     8  C    0.638720  -0.000000
     9  C    0.808779   0.000000
    10  C   -0.805599  -0.000000
    11  O   -0.268578  -0.000000
    12  O   -0.192079  -0.000000
    13  H    0.196616   0.000000
    14  H    0.209802  -0.000000
    15  H    0.210954  -0.000000
    16  H    0.207067  -0.000000
    17  C   -0.391361  -0.000000
    18  S   -0.624177   0.000000
    19  C    0.953972  -0.000000
    20  C   -0.397771  -0.000000
    21  C   -0.133109  -0.000000
    22  C    0.088611   0.000000
    23  C   -0.036126   0.000000
    24  C   -0.401490   0.000000
    25  C   -0.350769  -0.000000
    26  C   -0.340566  -0.000000
    27  C   -0.315597  -0.000000
    28  C   -0.207482  -0.000000
    29  H    0.223501  -0.000000
    30  H    0.163818  -0.000000
    31  H    0.176949  -0.000000
    32  H    0.215113   0.000000
    33  H    0.185389  -0.000000
    34  H    0.212759  -0.000000
    35  H    0.168517   0.000000
    36  H    0.195672  -0.000000
    37  H    0.194218   0.000000
    38  H    0.160975   0.000000
 Sum of Mulliken charges =  -0.00000  -0.00000

 Dipole moment (field-independent basis, Debye):
    X=             -0.3737    Y=             -3.1825    Z=              0.4873  Tot=              3.2412
 Quadrupole moment (field-independent basis, Debye-Ang):
   XX=           -146.7761   YY=           -135.5663   ZZ=           -133.0918
   XY=             13.1413   XZ=              4.8624   YZ=              3.4563

  Exact polarizability: 452.525 -19.144 408.141 107.396 -31.459 375.762
 Approx polarizability: 565.804 -17.714 468.421 105.848 -42.279 396.385

                      1                      2                      3
                      A                      A                      A
 Frequencies --     18.8085                20.1928                23.9641
 Red. masses --      5.3348                 5.2622                 6.2017
 Frc consts  --      0.0011                 0.0013                 0.0021
 IR Inten    --      0.7339                 2.0236                 0.1363

                      4                      5                      6
                      A                      A                      A
 Frequencies --     55.2869                76.5345               102.4004
 Red. masses --      7.7084                 4.3046                 1.4208
 Frc consts  --      0.0139                 0.0149                 0.0088
 IR Inten    --     10.8596                 2.7359                 0.5480

                      7                      8                      9
                      A                      A                      A
 Frequencies --    105.0867               117.4074               164.6221
 Red. masses --      2.4213                 5.6676                 6.2969
 Frc consts  --      0.0158                 0.0460                 0.1005
 IR Inten    --      2.4955                 0.6229                 2.4045

                     10                     11                     12
                      A                      A                      A
 Frequencies --    180.1636               194.6817               204.5679
 Red. masses --      3.7796                 5.6571                 7.2580
 Frc consts  --      0.0723                 0.1263                 0.1790
 IR Inten    --      2.7207                 0.2161                 3.7055

                     13                     14                     15
                      A                      A                      A
 Frequencies --    262.6367               268.9096               282.7096
 Red. masses --      5.6249                 4.8994                 6.0067
 Frc consts  --      0.2286                 0.2087                 0.2829
 IR Inten    --      3.0204                 0.3586                 4.7375

                     16                     17                     18
                      A                      A                      A
 Frequencies --    336.8671               360.9755               375.7632
 Red. masses --      4.8301                 4.7328                 8.8287
 Frc consts  --      0.3229                 0.3634                 0.7345
 IR Inten    --      0.5641                 0.3876                 2.4124

                     19                     20                     21
                      A                      A                      A
 Frequencies --    393.1865               402.4325               408.6568
 Red. masses --      7.8098                 3.4320                 5.4944
 Frc consts  --      0.7114                 0.3275                 0.5406
 IR Inten    --     23.9298                 0.7697                19.2592

                     22                     23                     24
                      A                      A                      A
 Frequencies --    416.4296               432.6206               443.3098
 Red. masses --      4.7882                 4.0560                 4.9354
 Frc consts  --      0.4892                 0.4473                 0.5715
 IR Inten    --     13.2968                 6.2017                 2.3851

                     25                     26                     27
                      A                      A                      A
 Frequencies --    481.9911               493.3966               514.4306
 Red. masses --      2.5682                 9.5933                 3.9200
 Frc consts  --      0.3515                 1.3760                 0.6112
 IR Inten    --     40.4606                 1.9057                 0.0902

                     28                     29                     30
                      A                      A                      A
 Frequencies --    523.4066               538.2361               581.2856
 Red. masses --      6.7305                 4.8779                 6.7783
 Frc consts  --      1.0864                 0.8326                 1.3494
 IR Inten    --      0.1795                 7.8883                 4.9165

                     31                     32                     33
                      A                      A                      A
 Frequencies --    608.8687               640.5309               652.9518
 Red. masses --      7.1358                 3.8304                 5.8699
 Frc consts  --      1.5586                 0.9259                 1.4745
 IR Inten    --      8.3352                 5.7328                 4.9955

                     34                     35                     36
                      A                      A                      A
 Frequencies --    663.2289               695.9558               702.1276
 Red. masses --      6.3460                 5.3910                 4.5931
 Frc consts  --      1.6447                 1.5385                 1.3341
 IR Inten    --     13.5641                 0.6957                 5.4435

                     37                     38                     39
                      A                      A                      A
 Frequencies --    721.2850               756.6950               770.9876
 Red. masses --      2.6533                 1.2714                 3.1834
 Frc consts  --      0.8133                 0.4289                 1.1149
 IR Inten    --    141.9346                55.3471                 3.4623

                     40                     41                     42
                      A                      A                      A
 Frequencies --    776.9929               796.4145               806.8645
 Red. masses --      4.8042                 2.6421                 2.4983
 Frc consts  --      1.7089                 0.9874                 0.9583
 IR Inten    --      3.0081                29.4911                18.6109

                     43                     44                     45
                      A                      A                      A
 Frequencies --    807.7545               827.5412               844.5783
 Red. masses --      5.3280                 1.4007                 5.9801
 Frc consts  --      2.0482                 0.5652                 2.5133
 IR Inten    --     16.0799                63.6017                83.2551

                     46                     47                     48
                      A                      A                      A
 Frequencies --    860.7475               871.0447               903.6014
 Red. masses --      5.9809                 1.4311                 1.5544
 Frc consts  --      2.6108                 0.6397                 0.7478
 IR Inten    --      5.7665                34.4486                20.8309

                     49                     50                     51
                      A                      A                      A
 Frequencies --    913.6361               953.4658               963.4570
 Red. masses --      1.4067                 5.0548                 5.9036
 Frc consts  --      0.6918                 2.7075                 3.2288
 IR Inten    --      1.1950                32.5250                52.5206

                     52                     53                     54
                      A                      A                      A
 Frequencies --    974.0129               986.6277               999.4048
 Red. masses --      1.3176                 1.3601                 1.3852
 Frc consts  --      0.7365                 0.7801                 0.8151
 IR Inten    --      1.6725                 4.1105                 2.2246

                     55                     56                     57
                      A                      A                      A
 Frequencies --   1001.8979              1022.5447              1034.9690
 Red. masses --      1.2943                 1.3319                 1.8571
 Frc consts  --      0.7655                 0.8205                 1.1720
 IR Inten    --      0.0100                 0.0514               112.1972

                     58                     59                     60
                      A                      A                      A
 Frequencies --   1037.7109              1048.0616              1052.4801
 Red. masses --      2.3856                 2.2473                 1.8642
 Frc consts  --      1.5136                 1.4544                 1.2167
 IR Inten    --     13.6986                12.7339                39.4582

                     61                     62                     63
                      A                      A                      A
 Frequencies --   1086.2242              1108.4788              1116.6861
 Red. masses --      2.5843                 3.2359                 2.1198
 Frc consts  --      1.7965                 2.3426                 1.5575
 IR Inten    --      6.4743                25.3836                11.8979

                     64                     65                     66
                      A                      A                      A
 Frequencies --   1152.7652              1169.6617              1176.8495
 Red. masses --      1.6223                 1.2531                 1.1820
 Frc consts  --      1.2702                 1.0101                 0.9645
 IR Inten    --     27.6740                 2.5393                 1.7912

                     67                     68                     69
                      A                      A                      A
 Frequencies --   1180.1800              1198.6477              1218.8264
 Red. masses --      1.1215                 2.5358                 2.0587
 Frc consts  --      0.9203                 2.1466                 1.8019
 IR Inten    --     10.7933                63.6826                 5.1255

                     70                     71                     72
                      A                      A                      A
 Frequencies --   1258.1814              1266.7531              1282.9270
 Red. masses --      2.5499                 1.5386                 3.5645
 Frc consts  --      2.3783                 1.4547                 3.4567
 IR Inten    --    186.0793                12.3283               642.8172

                     73                     74                     75
                      A                      A                      A
 Frequencies --   1288.4412              1317.7936              1360.1127
 Red. masses --      1.8836                 2.9363                 7.8530
 Frc consts  --      1.8423                 3.0043                 8.5592
 IR Inten    --      4.6552               178.4522                21.6698

                     76                     77                     78
                      A                      A                      A
 Frequencies --   1370.5724              1387.4911              1396.2820
 Red. masses --      2.3257                 2.6719                 8.2794
 Frc consts  --      2.5740                 3.0306                 9.5104
 IR Inten    --      1.2752                 8.6850                 0.1421

                     79                     80                     81
                      A                      A                      A
 Frequencies --   1401.5008              1455.6420              1461.1925
 Red. masses --      1.2422                 1.0899                 2.2698
 Frc consts  --      1.4376                 1.3606                 2.8553
 IR Inten    --     26.0862                 5.6943                 6.3586

                     82                     83                     84
                      A                      A                      A
 Frequencies --   1469.4593              1481.0338              1485.9994
 Red. masses --      1.0807                 2.2957                 2.0175
 Frc consts  --      1.3749                 2.9668                 2.6248
 IR Inten    --     27.2378                 1.4988                 8.2626

                     85                     86                     87
                      A                      A                      A
 Frequencies --   1506.3764              1533.3681              1595.0923
 Red. masses --      2.6196                 3.1436                 6.6366
 Frc consts  --      3.5023                 4.3548                 9.9488
 IR Inten    --     15.6807                38.5117               102.9279

                     88                     89                     90
                      A                      A                      A
 Frequencies --   1601.9935              1620.2317              1622.3820
 Red. masses --      6.8611                 6.0320                 5.4014
 Frc consts  --     10.3745                 9.3297                 8.3764
 IR Inten    --     17.1197               220.8790                27.9066

                     91                     92                     93
                      A                      A                      A
 Frequencies --   1624.4123              1656.3365              1685.4862
 Red. masses --      7.2099                 6.0050                12.0586
 Frc consts  --     11.2091                 9.7064                20.1835
 IR Inten    --     61.8808                10.8291               664.4017

                     94                     95                     96
                      A                      A                      A
 Frequencies --   1703.9141              3032.0239              3095.9975
 Red. masses --     12.6592                 1.0465                 1.0864
 Frc consts  --     21.6547                 5.6682                 6.1355
 IR Inten    --    411.0916                 9.8384                13.8784

                     97                     98                     99
                      A                      A                      A
 Frequencies --   3139.9285              3162.7149              3166.8464
 Red. masses --      1.1034                 1.0862                 1.0885
 Frc consts  --      6.4095                 6.4014                 6.4321
 IR Inten    --      2.5817                 3.9661                 0.4586

                    100                    101                    102
                      A                      A                      A
 Frequencies --   3168.6288              3175.1128              3178.4089
 Red. masses --      1.0881                 1.0907                 1.0938
 Frc consts  --      6.4365                 6.4787                 6.5104
 IR Inten    --      8.8349                 1.3177                40.7637

                    103                    104                    105
                      A                      A                      A
 Frequencies --   3179.5162              3188.0858              3189.9494
 Red. masses --      1.0875                 1.0951                 1.0973
 Frc consts  --      6.4772                 6.5577                 6.5788
 IR Inten    --      3.3298                23.0699                33.1653

                    106                    107                    108
                      A                      A                      A
 Frequencies --   3191.6293              3203.6422              3206.7366
 Red. masses --      1.0914                 1.0927                 1.0956
 Frc consts  --      6.5501                 6.6078                 6.6380
 IR Inten    --      9.7141                 3.3849                16.5540

 - Thermochemistry -
 -------------------
 Temperature   298.150 Kelvin.  Pressure   1.00000 Atm.
 Atom     1 has atomic number  6 and mass  12.00000

 Molecular mass:   330.07145 amu.
 Principal axes and moments of inertia in atomic units:
                           1         2         3
     Eigenvalues --  4754.73521********************
           X            0.55582  -0.05531   0.82946
           Y           -0.09277   0.98742   0.12801
           Z            0.82611   0.14810  -0.54370
 This molecule is an asymmetric top.
 Rotational symmetry number  1.
 Warning -- assumption of classical behavior for rotation
           may cause significant error
 Rotational temperatures (Kelvin)      0.01822     0.00656     0.00573
 Rotational constants (GHZ):           0.37957     0.13676     0.11937
 Zero-point vibrational energy     753634.9 (Joules/Mol)
                                  180.12307 (Kcal/Mol)
 Warning -- explicit consideration of  31 degrees of freedom as
           vibrations may cause significant error
 Vibrational temperatures:     27.06    29.05    34.48    79.55   110.12
          (Kelvin)            147.33   151.20   168.92   236.85   259.22
                              280.10   294.33   377.88   386.90   406.76
                              484.68   519.36   540.64   565.71   579.01
                              587.97   599.15   622.44   637.82   693.48
                              709.89   740.15   753.07   774.40   836.34
                              876.03   921.58   939.45   954.24  1001.33
                             1010.21  1037.77  1088.72  1109.28  1117.92
                             1145.86  1160.90  1162.18  1190.65  1215.16
                             1238.42  1253.24  1300.08  1314.52  1371.82
                             1386.20  1401.39  1419.54  1437.92  1441.51
                             1471.21  1489.09  1493.03  1507.93  1514.28
                             1562.83  1594.85  1606.66  1658.57  1682.88
                             1693.22  1698.02  1724.59  1753.62  1810.24
                             1822.58  1845.85  1853.78  1896.01  1956.90
                             1971.95  1996.29  2008.94  2016.45  2094.34
                             2102.33  2114.22  2130.88  2138.02  2167.34
                             2206.17  2294.98  2304.91  2331.15  2334.25
                             2337.17  2383.10  2425.04  2451.55  4362.41
                             4454.45  4517.66  4550.44  4556.39  4558.95
                             4568.28  4573.02  4574.61  4586.94  4589.63
                             4592.04  4609.33  4613.78

 Zero-point correction=                           0.287044 (Hartree/Particle)
 Thermal correction to Energy=                    0.306602
 Thermal correction to Enthalpy=                  0.307546
 Thermal correction to Gibbs Free Energy=         0.236492
 Sum of electronic and zero-point Energies=          -1357.307622
 Sum of electronic and thermal Energies=             -1357.288064
 Sum of electronic and thermal Enthalpies=           -1357.287120
 Sum of electronic and thermal Free Energies=        -1357.358174

                     E (Thermal)             CV                S
                      KCal/Mol        Cal/Mol-Kelvin    Cal/Mol-Kelvin
 Total                  192.396             76.820            149.547
 Electronic               0.000              0.000              0.000
 Translational            0.889              2.981             43.278
 Rotational               0.889              2.981             35.205
 Vibrational            190.618             70.858             71.065
 Vibration     1          0.593              1.986              6.756
 Vibration     2          0.593              1.986              6.615
 Vibration     3          0.593              1.985              6.275
 Vibration     4          0.596              1.975              4.619
 Vibration     5          0.599              1.965              3.978
 Vibration     6          0.604              1.947              3.408
 Vibration     7          0.605              1.945              3.358
 Vibration     8          0.608              1.935              3.143
 Vibration     9          0.623              1.886              2.496
 Vibration    10          0.629              1.867              2.327
 Vibration    11          0.635              1.847              2.183
 Vibration    12          0.640              1.833              2.092
 Vibration    13          0.670              1.741              1.644
 Vibration    14          0.673              1.730              1.603
 Vibration    15          0.682              1.706              1.517
 Vibration    16          0.718              1.602              1.227
 Vibration    17          0.735              1.553              1.118
 Vibration    18          0.747              1.522              1.056
 Vibration    19          0.760              1.485              0.988
 Vibration    20          0.768              1.465              0.954
 Vibration    21          0.773              1.451              0.931
 Vibration    22          0.780              1.435              0.904
 Vibration    23          0.794              1.399              0.850
 Vibration    24          0.803              1.376              0.816
 Vibration    25          0.838              1.290              0.705
 Vibration    26          0.849              1.265              0.675
 Vibration    27          0.869              1.218              0.623
 Vibration    28          0.878              1.198              0.602
 Vibration    29          0.893              1.165              0.569
 Vibration    30          0.938              1.072              0.483
 Vibration    31          0.968              1.013              0.435

 Optimization completed.
    -- Stationary point found.
 Normal termination of Gaussian 16 at Sun Feb 11 20:21:56 2024.
