 Q-Chem 5.4, Q-Chem, Inc., Pleasanton, CA (2021)
 Q-Chem 5.4.0 for Intel X86 EM64T Linux

User input:
--------------------------------------------------------------
$molecule
0 1
C                  0.2640470000      0.7400240000     -0.5544590000
C                 -0.7005280000     -0.1266280000     -1.2817150000
C                 -1.1548400000     -1.2761130000     -0.7680940000
C                 -0.7066220000     -1.7371020000      0.5667170000
C                  0.2600320000     -0.8769590000      1.2942970000
C                  0.7416740000      0.2719880000      0.7846820000
O                  0.6171770000      1.8005380000     -1.0429610000
O                 -1.1107800000     -2.7795620000      1.0531120000
C                  1.7552940000      1.0522110000      1.6098070000
C                  2.7884430000      1.8973200000      0.9102360000
O                  1.7285110000      0.9368670000      2.8167870000
H                 -1.0151320000      0.2471750000     -2.2498900000
H                 -1.8625900000     -1.9132600000     -1.2865690000
H                  0.5731550000     -1.2223500000      2.2736510000
H                  2.3127240000      2.7785090000      0.4743000000
H                  3.2467110000      1.3527820000      0.0800860000
H                  3.5453840000      2.1951290000      1.6346240000
$end

$rem
BASIS  =  6-311++G(d,p)
GUI  =  2
JOB_TYPE  =  SP
METHOD  =  B3LYP
SCF_CONVERGENCE  = 8
SOLVENT_METHOD = sm12
$end

$smx
solvent dimethylformamide
charges CM5
$end

--------------------------------------------------------------

             Standard Nuclear Orientation (Angstroms)
    I     Atom           X                Y                Z
 ----------------------------------------------------------------
    1      C       0.2640470000     0.7400240000    -0.5544590000
    2      C      -0.7005280000    -0.1266280000    -1.2817150000
    3      C      -1.1548400000    -1.2761130000    -0.7680940000
    4      C      -0.7066220000    -1.7371020000     0.5667170000
    5      C       0.2600320000    -0.8769590000     1.2942970000
    6      C       0.7416740000     0.2719880000     0.7846820000
    7      O       0.6171770000     1.8005380000    -1.0429610000
    8      O      -1.1107800000    -2.7795620000     1.0531120000
    9      C       1.7552940000     1.0522110000     1.6098070000
   10      C       2.7884430000     1.8973200000     0.9102360000
   11      O       1.7285110000     0.9368670000     2.8167870000
   12      H      -1.0151320000     0.2471750000    -2.2498900000
   13      H      -1.8625900000    -1.9132600000    -1.2865690000
   14      H       0.5731550000    -1.2223500000     2.2736510000
   15      H       2.3127240000     2.7785090000     0.4743000000
   16      H       3.2467110000     1.3527820000     0.0800860000
   17      H       3.5453840000     2.1951290000     1.6346240000
 ----------------------------------------------------------------

   15    -534.2446364380      7.01e-09  Convergence criterion met
 Total energy in the final basis set =     -534.2621404083

                    Orbital Energies (a.u.)
 --------------------------------------------------------------

 Alpha MOs
 -- Occupied --
-19.1470 -19.1464 -19.1320 -10.2953 -10.2910 -10.2856 -10.2272 -10.2236
-10.2152 -10.2139 -10.1738  -1.0795  -1.0755  -1.0678  -0.8729  -0.8089
 -0.7564  -0.7156  -0.6562  -0.6256  -0.5599  -0.5311  -0.5116  -0.4909
 -0.4784  -0.4674  -0.4529  -0.4486  -0.4443  -0.4327  -0.4254  -0.4132
 -0.3985  -0.3779  -0.3185  -0.3092  -0.2950  -0.2926  -0.2711

          Ground-State Mulliken Net Atomic Charges

     Atom                 Charge (a.u.)
  ----------------------------------------
      1 C                    -1.690813
      2 C                     0.919475
      3 C                     0.556812
      4 C                    -0.831409
      5 C                    -0.384827
      6 C                     1.469678
      7 O                    -0.272114
      8 O                    -0.325176
      9 C                    -0.237476
     10 C                    -0.400407
     11 O                    -0.333789
     12 H                     0.345209
     13 H                     0.343191
     14 H                     0.244464
     15 H                     0.203500
     16 H                     0.210349
     17 H                     0.183332
  ----------------------------------------
  Sum of atomic charges =     0.000000

                    Cartesian Multipole Moments
 -----------------------------------------------------------------
    Charge (ESU x 10^10)
                -0.0000
    Dipole Moment (Debye)
         X       0.0538      Y       0.2982      Z      -3.4520
       Tot       3.4653
    Quadrupole Moments (Debye-Ang)
        XX     -59.0965     XY      -2.2320     YY     -73.2065
        XZ       0.9549     YZ       4.7043     ZZ     -72.4671

 Total job time:  169.01s(wall), 1166.55s(cpu)
        *  Thank you very much for using Q-Chem.  Have a nice day.  *
