 Gaussian 16, Revision A.03,
 Gaussian 16:  ES64L-G16RevA.03 25-Dec-2016

 --------------------------------------
 #P UB3LYP/6-311++G(d,p) nosym opt freq
 --------------------------------------

 --------
 Oxidized
 --------
 Symbolic Z-matrix:
 Charge =  0 Multiplicity = 1

 SCF Done:  E(UB3LYP) =  -534.245712529     A.U. after   15 cycles
 Optimization completed.
    -- Stationary point found.
 Normal termination of Gaussian 16 at Sat Jan  6 05:38:39 2024.

 ----------------------------------------------------------------------
 #P Geom=AllCheck Guess=TCheck SCRF=Check GenChk UB3LYP/6-311++G(d,p) F
 req
 ----------------------------------------------------------------------

 Structure from the checkpoint file:  "056.chk"
 --------
 Oxidized
 --------
 Charge =  0 Multiplicity = 1

                          Input orientation:
 ---------------------------------------------------------------------
 Center     Atomic      Atomic             Coordinates (Angstroms)
 Number     Number       Type             X           Y           Z
 ---------------------------------------------------------------------
      1          6           0        0.264047    0.740024   -0.554459
      2          6           0       -0.700528   -0.126628   -1.281715
      3          6           0       -1.154840   -1.276113   -0.768094
      4          6           0       -0.706622   -1.737102    0.566717
      5          6           0        0.260032   -0.876959    1.294297
      6          6           0        0.741674    0.271988    0.784682
      7          8           0        0.617177    1.800538   -1.042961
      8          8           0       -1.110780   -2.779562    1.053112
      9          6           0        1.755294    1.052211    1.609807
     10          6           0        2.788443    1.897320    0.910236
     11          8           0        1.728511    0.936867    2.816787
     12          1           0       -1.015132    0.247175   -2.249890
     13          1           0       -1.862590   -1.913260   -1.286569
     14          1           0        0.573155   -1.222350    2.273651
     15          1           0        2.312724    2.778509    0.474300
     16          1           0        3.246711    1.352782    0.080086
     17          1           0        3.545384    2.195129    1.634624
 ---------------------------------------------------------------------

 SCF Done:  E(UB3LYP) =  -534.245712529     A.U. after    1 cycles

 Alpha  occ. eigenvalues --  -19.15818 -19.15628 -19.13883 -10.30688 -10.30102
 Alpha  occ. eigenvalues --  -10.29278 -10.23741 -10.23382 -10.23225 -10.23113
 Alpha  occ. eigenvalues --  -10.18616  -1.09027  -1.08491  -1.07426  -0.88516
 Alpha  occ. eigenvalues --   -0.82222  -0.76737  -0.72782  -0.66923  -0.63865
 Alpha  occ. eigenvalues --   -0.57019  -0.54330  -0.52459  -0.50103  -0.49240
 Alpha  occ. eigenvalues --   -0.47750  -0.46389  -0.45886  -0.45374  -0.44455
 Alpha  occ. eigenvalues --   -0.43495  -0.42651  -0.41062  -0.38672  -0.32955
 Alpha  occ. eigenvalues --   -0.32304  -0.30442  -0.30085  -0.27827
 Alpha virt. eigenvalues --   -0.15595  -0.08086  -0.03005  -0.01386  -0.00419
 Alpha virt. eigenvalues --   -0.00079   0.01253   0.02225   0.02663   0.03279
 Alpha virt. eigenvalues --    0.04618   0.05090   0.05364   0.06394   0.06892

  Beta  occ. eigenvalues --  -19.15818 -19.15628 -19.13883 -10.30688 -10.30102
  Beta  occ. eigenvalues --  -10.29278 -10.23741 -10.23382 -10.23225 -10.23113
  Beta  occ. eigenvalues --  -10.18616  -1.09027  -1.08491  -1.07426  -0.88516
  Beta  occ. eigenvalues --   -0.82222  -0.76737  -0.72782  -0.66923  -0.63865
  Beta  occ. eigenvalues --   -0.57019  -0.54330  -0.52459  -0.50103  -0.49240
  Beta  occ. eigenvalues --   -0.47750  -0.46389  -0.45886  -0.45374  -0.44455
  Beta  occ. eigenvalues --   -0.43495  -0.42651  -0.41062  -0.38672  -0.32955
  Beta  occ. eigenvalues --   -0.32304  -0.30442  -0.30085  -0.27827
  Beta virt. eigenvalues --   -0.15595  -0.08086  -0.03005  -0.01386  -0.00419
  Beta virt. eigenvalues --   -0.00079   0.01253   0.02225   0.02663   0.03279
  Beta virt. eigenvalues --    0.04618   0.05090   0.05364   0.06394   0.06892

 Mulliken charges and spin densities:
               1          2
     1  C   -1.451989   0.000000
     2  C    0.316412   0.000000
     3  C    0.104618  -0.000000
     4  C   -0.455328   0.000000
     5  C   -0.258621  -0.000000
     6  C    1.559812  -0.000000
     7  O   -0.199365  -0.000000
     8  O   -0.208775  -0.000000
     9  C    0.135298   0.000000
    10  C   -0.587105  -0.000000
    11  O   -0.221636  -0.000000
    12  H    0.230190  -0.000000
    13  H    0.229018  -0.000000
    14  H    0.257109   0.000000
    15  H    0.209196   0.000000
    16  H    0.159917  -0.000000
    17  H    0.181251  -0.000000
 Sum of Mulliken charges =  -0.00000   0.00000

 Dipole moment (field-independent basis, Debye):
    X=              0.1466    Y=              0.1963    Z=             -2.8972  Tot=              2.9076
 Quadrupole moment (field-independent basis, Debye-Ang):
   XX=            -59.5909   YY=            -72.4766   ZZ=            -71.9701
   XY=             -2.2034   XZ=              0.8413   YZ=              4.3282

  Exact polarizability:  86.491  35.581 120.345   7.804 -16.779  97.397
 Approx polarizability: 123.311  63.288 230.065  -7.543 -56.002 155.731

                      1                      2                      3
                      A                      A                      A
 Frequencies --     37.5460                70.1086               127.6428
 Red. masses --      4.2855                 6.8483                 2.0919
 Frc consts  --      0.0036                 0.0198                 0.0201
 IR Inten    --      3.7641                 8.2935                 5.2453

                      4                      5                      6
                      A                      A                      A
 Frequencies --    139.0793               200.9275               233.4984
 Red. masses --      1.9260                 3.7465                 5.1319
 Frc consts  --      0.0219                 0.0891                 0.1649
 IR Inten    --      2.1589                 2.3272                 0.8325

                      7                      8                      9
                      A                      A                      A
 Frequencies --    313.6567               328.8760               396.3697
 Red. masses --      3.9091                 6.6422                 4.0503
 Frc consts  --      0.2266                 0.4233                 0.3749
 IR Inten    --      3.3185                 0.7725                 0.4202

                     10                     11                     12
                      A                      A                      A
 Frequencies --    431.1908               468.6611               526.1031
 Red. masses --      8.3914                 9.8422                 2.7415
 Frc consts  --      0.9192                 1.2737                 0.4471
 IR Inten    --     20.8450                 4.3027                 4.1043

                     13                     14                     15
                      A                      A                      A
 Frequencies --    554.7261               594.6698               640.7911
 Red. masses --      4.9395                 3.7259                 2.5757
 Frc consts  --      0.8955                 0.7763                 0.6231
 IR Inten    --     15.5537                 6.5024                 0.5028

                     16                     17                     18
                      A                      A                      A
 Frequencies --    667.6023               784.1161               791.6795
 Red. masses --      5.3224                 4.5874                 4.0613
 Frc consts  --      1.3976                 1.6618                 1.4997
 IR Inten    --      7.7191                 0.6307                 3.3217

                     19                     20                     21
                      A                      A                      A
 Frequencies --    839.4483               843.3091               949.5948
 Red. masses --      4.9854                 2.0500                 1.5796
 Frc consts  --      2.0699                 0.8590                 0.8392
 IR Inten    --      3.2240                22.3501                39.6964

                     22                     23                     24
                      A                      A                      A
 Frequencies --    989.4263              1014.1888              1020.2487
 Red. masses --      1.9821                 1.2531                 3.0517
 Frc consts  --      1.1433                 0.7594                 1.8716
 IR Inten    --     13.8090                 0.0939                20.3324

                     25                     26                     27
                      A                      A                      A
 Frequencies --   1046.4079              1111.7616              1197.5127
 Red. masses --      1.8820                 1.5090                 1.9343
 Frc consts  --      1.2142                 1.0989                 1.6343
 IR Inten    --      3.3214                36.8159                17.5423

                     28                     29                     30
                      A                      A                      A
 Frequencies --   1240.4843              1286.7334              1349.2024
 Red. masses --      2.2545                 3.2069                 2.3206
 Frc consts  --      2.0440                 3.1284                 2.4889
 IR Inten    --    117.7373               102.4480                39.7995

                     31                     32                     33
                      A                      A                      A
 Frequencies --   1389.8215              1392.6242              1453.3462
 Red. masses --      1.8849                 1.3293                 1.0519
 Frc consts  --      2.1451                 1.5189                 1.3091
 IR Inten    --      0.6737                47.7087                21.3691

                     34                     35                     36
                      A                      A                      A
 Frequencies --   1469.6688              1635.0024              1671.8095
 Red. masses --      1.0595                 8.6752                 8.6232
 Frc consts  --      1.3483                13.6636                14.2001
 IR Inten    --     10.9497                 1.1959                17.1065

                     37                     38                     39
                      A                      A                      A
 Frequencies --   1721.1382              1726.2210              1763.3616
 Red. masses --     10.5948                10.4469                10.6801
 Frc consts  --     18.4915                18.3414                19.5662
 IR Inten    --    154.6306               314.6978               148.2579

                     40                     41                     42
                      A                      A                      A
 Frequencies --   3042.4125              3104.8457              3144.8844
 Red. masses --      1.0362                 1.0967                 1.1048
 Frc consts  --      5.6512                 6.2292                 6.4381
 IR Inten    --      1.9061                 4.9964                10.8558

                     43                     44                     45
                      A                      A                      A
 Frequencies --   3177.5612              3188.7782              3195.2132
 Red. masses --      1.0875                 1.0918                 1.0994
 Frc consts  --      6.4696                 6.5407                 6.6130
 IR Inten    --      0.5051                 1.1518                 2.1135

 - Thermochemistry -
 -------------------
 Temperature   298.150 Kelvin.  Pressure   1.00000 Atm.
 Atom     1 has atomic number  6 and mass  12.00000

 Molecular mass:   150.03169 amu.
 Principal axes and moments of inertia in atomic units:
                           1         2         3
     Eigenvalues --   982.034701999.870142900.52264
           X            0.65056   0.15616   0.74323
           Y            0.72057  -0.43604  -0.53911
           Z            0.23989   0.88627  -0.39620
 This molecule is an asymmetric top.
 Rotational symmetry number  1.
 Warning -- assumption of classical behavior for rotation
           may cause significant error
 Rotational temperatures (Kelvin)      0.08820     0.04331     0.02986
 Rotational constants (GHZ):           1.83776     0.90243     0.62221
 Zero-point vibrational energy     318638.8 (Joules/Mol)
                                   76.15651 (Kcal/Mol)
 Warning -- explicit consideration of  14 degrees of freedom as
           vibrations may cause significant error
 Vibrational temperatures:     54.02   100.87   183.65   200.10   289.09
          (Kelvin)            335.95   451.28   473.18   570.29   620.39
                              674.30   756.95   798.13   855.60   921.96
                              960.53  1128.17  1139.05  1207.78  1213.33
                             1366.26  1423.56  1459.19  1467.91  1505.55
                             1599.58  1722.95  1784.78  1851.32  1941.20
                             1999.64  2003.68  2091.04  2114.53  2352.40
                             2405.36  2476.33  2483.65  2537.08  4377.35
                             4467.18  4524.79  4571.80  4587.94  4597.20

 Zero-point correction=                           0.121363 (Hartree/Particle)
 Thermal correction to Energy=                    0.131311
 Thermal correction to Enthalpy=                  0.132255
 Thermal correction to Gibbs Free Energy=         0.085032
 Sum of electronic and zero-point Energies=           -534.124349
 Sum of electronic and thermal Energies=              -534.114402
 Sum of electronic and thermal Enthalpies=            -534.113458
 Sum of electronic and thermal Free Energies=         -534.160681

                     E (Thermal)             CV                S
                      KCal/Mol        Cal/Mol-Kelvin    Cal/Mol-Kelvin
 Total                   82.399             35.942             99.389
 Electronic               0.000              0.000              0.000
 Translational            0.889              2.981             40.927
 Rotational               0.889              2.981             30.122
 Vibrational             80.621             29.980             28.339
 Vibration     1          0.594              1.982              5.385
 Vibration     2          0.598              1.968              4.150
 Vibration     3          0.611              1.926              2.981
 Vibration     4          0.615              1.914              2.817
 Vibration     5          0.638              1.839              2.125
 Vibration     6          0.654              1.790              1.852
 Vibration     7          0.702              1.648              1.343
 Vibration     8          0.712              1.618              1.266
 Vibration     9          0.763              1.478              0.976
 Vibration    10          0.792              1.402              0.855
 Vibration    11          0.826              1.320              0.741
 Vibration    12          0.881              1.192              0.596
 Vibration    13          0.910              1.129              0.534
 Vibration    14          0.952              1.043              0.459

 Optimization completed.
    -- Stationary point found.
 Normal termination of Gaussian 16 at Sat Jan  6 05:53:16 2024.
