 Gaussian 16, Revision A.03,
 Gaussian 16:  ES64L-G16RevA.03 25-Dec-2016

 ----------------------------------------------------------------
 #P UB3LYP/6-311++G(d,p) SCRF=(PCM,Solvent=n,n-DiMethylFormamide)
 ----------------------------------------------------------------

 ------------------
 Radical PCM in DMF
 ------------------
 Symbolic Z-matrix:
 Charge = -1 Multiplicity = 2

                         Standard orientation:
 ---------------------------------------------------------------------
 Center     Atomic      Atomic             Coordinates (Angstroms)
 Number     Number       Type             X           Y           Z
 ---------------------------------------------------------------------
      1          6           0        0.328540    1.613638   -0.031860
      2          6           0       -1.013428    1.100957   -0.093760
      3          6           0       -1.304661   -0.242582   -0.152479
      4          6           0       -0.220811   -1.232685   -0.250378
      5          6           0        1.418010    0.619255   -0.084220
      6          6           0        1.123672   -0.716652   -0.228787
      7          8           0        0.618096    2.836663    0.037703
      8          8           0       -0.511988   -2.451464   -0.368271
      9          7           0        2.691096    1.215324   -0.081338
     10          7           0       -2.589564   -0.805530   -0.226973
     11          6           0        3.749390    0.908654    0.909288
     12          6           0        3.279696    0.251320    2.210219
     13          6           0        4.961926    0.171534    0.296242
     14          6           0       -3.575174   -0.573180    0.845148
     15          6           0       -3.576894   -1.698446    1.888431
     16          6           0       -4.996213   -0.350984    0.288218
     17          7           0        5.010076    0.199896   -1.058122
     18          7           0       -5.064197   -0.236197   -1.059181
     19          6           0       -6.282706    0.101477   -1.762957
     20          6           0        6.008777   -0.527338   -1.812834
     21          8           0        5.846206   -0.302798    1.002517
     22          8           0       -5.969562   -0.277519    1.033657
     23         17           0       -2.301664    2.310937   -0.151417
     24         17           0        2.403506   -1.914675   -0.438983
     25          1           0        2.497047    2.216870   -0.083789
     26          1           0       -2.434899   -1.806254   -0.365452
     27          1           0        4.169998    1.885666    1.180035
     28          1           0        4.134847    0.128451    2.875818
     29          1           0        2.843935   -0.731226    2.031340
     30          1           0        2.531520    0.882457    2.695330
     31          1           0       -3.324104    0.364413    1.343673
     32          1           0       -2.596560   -1.767433    2.364487
     33          1           0       -3.795008   -2.662743    1.418296
     34          1           0       -4.338202   -1.507380    2.646049
     35          1           0        4.143188    0.485084   -1.498343
     36          1           0       -4.166215   -0.242855   -1.529612
     37          1           0       -7.126938   -0.106572   -1.105526
     38          1           0       -6.376368   -0.499006   -2.672011
     39          1           0       -6.311542    1.162131   -2.039266
     40          1           0        6.232726    0.001368   -2.742776
     41          1           0        5.675265   -1.543445   -2.056645
     42          1           0        6.915367   -0.599288   -1.211959
 ---------------------------------------------------------------------

 SCF Done:  E(UB3LYP) =  -1985.17336938     A.U. after   19 cycles

 The electronic state is 2-A.
 Alpha  occ. eigenvalues -- -101.55148-101.55049 -19.09361 -19.09328 -19.09185
 Alpha  occ. eigenvalues --  -19.09144 -14.33659 -14.33327 -14.32665 -14.32581
 Alpha  occ. eigenvalues --  -10.27253 -10.27147 -10.24093 -10.24067 -10.22285
 Alpha  occ. eigenvalues --  -10.22275 -10.22222 -10.22206 -10.22173 -10.21965
 Alpha  occ. eigenvalues --  -10.19822 -10.19708 -10.16518 -10.16154  -9.46616
 Alpha  occ. eigenvalues --   -9.46536  -7.23050  -7.22969  -7.22124  -7.22065
 Alpha  occ. eigenvalues --   -7.22043  -7.21982  -1.04378  -1.04368  -1.02501
 Alpha  occ. eigenvalues --   -1.02096  -0.94314  -0.93956  -0.91980  -0.91786
 Alpha  occ. eigenvalues --   -0.87088  -0.86024  -0.80751  -0.77883  -0.75819
 Alpha  occ. eigenvalues --   -0.71427  -0.71321  -0.70711  -0.68479  -0.64614
 Alpha  occ. eigenvalues --   -0.63385  -0.59453  -0.58638  -0.57672  -0.56791
 Alpha  occ. eigenvalues --   -0.54634  -0.52089  -0.52057  -0.50498  -0.49067
 Alpha  occ. eigenvalues --   -0.48720  -0.47288  -0.46041  -0.45293  -0.44894
 Alpha  occ. eigenvalues --   -0.44398  -0.44213  -0.43838  -0.43245  -0.43034
 Alpha  occ. eigenvalues --   -0.42551  -0.42306  -0.40980  -0.40433  -0.39751
 Alpha  occ. eigenvalues --   -0.39428  -0.39244  -0.39116  -0.38918  -0.38039
 Alpha  occ. eigenvalues --   -0.37392  -0.37135  -0.36282  -0.35663  -0.35059
 Alpha  occ. eigenvalues --   -0.33837  -0.32108  -0.31592  -0.31341  -0.31120
 Alpha  occ. eigenvalues --   -0.27269  -0.26893  -0.26542  -0.26173  -0.26055
 Alpha  occ. eigenvalues --   -0.25799  -0.24490  -0.21793  -0.16552
 Alpha virt. eigenvalues --   -0.01363  -0.01195  -0.00498   0.00392   0.00421
 Alpha virt. eigenvalues --    0.00959   0.01311   0.01632   0.01926   0.02029
 Alpha virt. eigenvalues --    0.02188   0.02553   0.02936   0.03367   0.03814

  Beta  occ. eigenvalues -- -101.55149-101.55049 -19.09361 -19.09328 -19.08596
  Beta  occ. eigenvalues --  -19.08539 -14.33655 -14.33324 -14.32583 -14.32501
  Beta  occ. eigenvalues --  -10.27253 -10.27145 -10.23902 -10.23879 -10.22285
  Beta  occ. eigenvalues --  -10.22280 -10.22157 -10.22037 -10.22022 -10.21948
  Beta  occ. eigenvalues --  -10.19822 -10.19708 -10.16514 -10.16152  -9.46616
  Beta  occ. eigenvalues --   -9.46536  -7.23053  -7.22971  -7.22122  -7.22066
  Beta  occ. eigenvalues --   -7.22041  -7.21983  -1.04375  -1.04365  -1.01533
  Beta  occ. eigenvalues --   -1.01076  -0.94107  -0.93741  -0.91903  -0.91704
  Beta  occ. eigenvalues --   -0.86953  -0.85966  -0.80401  -0.77718  -0.75713
  Beta  occ. eigenvalues --   -0.71420  -0.71306  -0.70583  -0.67614  -0.64545
  Beta  occ. eigenvalues --   -0.63255  -0.59134  -0.58434  -0.57622  -0.56684
  Beta  occ. eigenvalues --   -0.54474  -0.51959  -0.51943  -0.50271  -0.48913
  Beta  occ. eigenvalues --   -0.48624  -0.47201  -0.45966  -0.45263  -0.44802
  Beta  occ. eigenvalues --   -0.44157  -0.43758  -0.43559  -0.43195  -0.42889
  Beta  occ. eigenvalues --   -0.41992  -0.41713  -0.40815  -0.40267  -0.39363
  Beta  occ. eigenvalues --   -0.39234  -0.39090  -0.38989  -0.38061  -0.37534
  Beta  occ. eigenvalues --   -0.37222  -0.37081  -0.35808  -0.35535  -0.34985
  Beta  occ. eigenvalues --   -0.33039  -0.31831  -0.31449  -0.30570  -0.30352
  Beta  occ. eigenvalues --   -0.26619  -0.26488  -0.26309  -0.26007  -0.25866
  Beta  occ. eigenvalues --   -0.25366  -0.23384  -0.21208
  Beta virt. eigenvalues --   -0.09772  -0.01329  -0.00502  -0.00063   0.00402
  Beta virt. eigenvalues --    0.00489   0.01027   0.01412   0.01797   0.02085
  Beta virt. eigenvalues --    0.02162   0.02575   0.02848   0.03399   0.03832

 Mulliken charges and spin densities:
               1          2
     1  C   -0.676413   0.126596
     2  C    0.128382  -0.028461
     3  C   -0.171334   0.156377
     4  C   -0.613582   0.120823
     5  C   -0.269015   0.139245
     6  C    0.048840  -0.033352
     7  O   -0.412775   0.216094
     8  O   -0.409918   0.222333
     9  N   -0.098192   0.033327
    10  N    0.090411   0.030611
    11  C    0.338493   0.004159
    12  C   -0.579018  -0.000556
    13  C   -0.407613   0.001503
    14  C    0.111767   0.007682
    15  C   -0.624065  -0.000178
    16  C   -0.165092  -0.000621
    17  N   -0.152734  -0.000033
    18  N   -0.246685  -0.000837
    19  C   -0.290515  -0.000483
    20  C   -0.327112  -0.000382
    21  O   -0.434951   0.000107
    22  O   -0.455582  -0.000108
    23  Cl   0.424419   0.001974
    24  Cl   0.506612   0.003301
    25  H    0.298728  -0.002743
    26  H    0.276949  -0.002652
    27  H    0.234262   0.000276
    28  H    0.180955  -0.000230
    29  H    0.124531   0.000896
    30  H    0.170066   0.000203
    31  H    0.166416   0.001494
    32  H    0.177240  -0.000560
    33  H    0.172534   0.000112
    34  H    0.171177   0.000878
    35  H    0.357715   0.001411
    36  H    0.360962   0.001605
    37  H    0.171207   0.000096
    38  H    0.160404   0.000025
    39  H    0.170821  -0.000047
    40  H    0.158814   0.000055
    41  H    0.171182  -0.000032
    42  H    0.161709   0.000092
 Sum of Mulliken charges =  -1.00000   1.00000

 Dipole moment (field-independent basis, Debye):
    X=             -0.1510    Y=              0.3455    Z=             -4.2831  Tot=              4.2997
 Quadrupole moment (field-independent basis, Debye-Ang):
   XX=           -228.3121   YY=           -193.6053   ZZ=           -155.4776
   XY=              8.8285   XZ=              2.5230   YZ=              0.2650

 Normal termination of Gaussian 16 at Wed Jan 24 23:04:49 2024.
