 Gaussian 16, Revision A.03,
 Gaussian 16:  ES64L-G16RevA.03 25-Dec-2016

 ----------------------------------------------------------------------
 #P UB3LYP/6-311++G(d,p) nosym opt freq SCRF=(PCM,Solvent=n,n-DiMethylF
 ormamide)
 ----------------------------------------------------------------------

 -------
 Radical
 -------
 Symbolic Z-matrix:
 Charge = -1 Multiplicity = 2

 SCF Done:  E(UB3LYP) =  -460.376338567     A.U. after   16 cycles
 SCF Done:  E(UB3LYP) =  -460.376601976     A.U. after   13 cycles
 SCF Done:  E(UB3LYP) =  -460.376634304     A.U. after   11 cycles
 SCF Done:  E(UB3LYP) =  -460.376636953     A.U. after   10 cycles
 Optimization completed.
    -- Stationary point found.
 Normal termination of Gaussian 16 at Sat Feb 10 10:09:00 2024.

 ----------------------------------------------------------------------
 #P Geom=AllCheck Guess=TCheck SCRF=Check GenChk UB3LYP/6-311++G(d,p) F
 req
 ----------------------------------------------------------------------

 Structure from the checkpoint file:  "037-rad.chk"
 -------
 Radical
 -------
 Charge = -1 Multiplicity = 2

                          Input orientation:
 ---------------------------------------------------------------------
 Center     Atomic      Atomic             Coordinates (Angstroms)
 Number     Number       Type             X           Y           Z
 ---------------------------------------------------------------------
      1          6           0       -1.607402   -1.382226   -0.134530
      2          6           0       -0.277262   -0.671296   -0.098757
      3          6           0       -0.207589    0.689009    0.134772
      4          6           0       -1.458937    1.500342    0.362323
      5          6           0        1.073706    1.387080    0.169661
      6          8           0        1.159329    2.639785    0.385246
      7          6           0        2.253932    0.587955   -0.051434
      8          6           0        2.185155   -0.758334   -0.281036
      9          6           0        0.928049   -1.464838   -0.318145
     10          8           0        0.886185   -2.720307   -0.530921
     11          1           0       -1.461944   -2.442304   -0.337939
     12          1           0       -2.264200   -0.968570   -0.908012
     13          1           0       -2.143143   -1.282966    0.816287
     14          1           0       -2.020147    1.140222    1.231938
     15          1           0       -2.138915    1.441256   -0.494988
     16          1           0       -1.202999    2.546170    0.527061
     17          1           0        3.210407    1.102319   -0.027233
     18          1           0        3.085776   -1.343299   -0.444292
 ---------------------------------------------------------------------

 SCF Done:  E(UB3LYP) =  -460.376636953     A.U. after    1 cycles

 Alpha  occ. eigenvalues --  -19.07149 -19.07146 -10.21324 -10.21317 -10.16501
 Alpha  occ. eigenvalues --  -10.16442 -10.15797 -10.15732 -10.15163 -10.15157
 Alpha  occ. eigenvalues --   -0.99011  -0.98747  -0.82402  -0.76855  -0.72041
 Alpha  occ. eigenvalues --   -0.66048  -0.65899  -0.56623  -0.54711  -0.48198
 Alpha  occ. eigenvalues --   -0.45859  -0.43124  -0.42611  -0.39863  -0.39333
 Alpha  occ. eigenvalues --   -0.39258  -0.38622  -0.38308  -0.38078  -0.36118
 Alpha  occ. eigenvalues --   -0.34542  -0.33811  -0.27442  -0.23968  -0.23899
 Alpha  occ. eigenvalues --   -0.23217  -0.15762
 Alpha virt. eigenvalues --   -0.00290  -0.00268   0.01057   0.01680   0.03099
 Alpha virt. eigenvalues --    0.03476   0.03627   0.04141   0.04833   0.06461
 Alpha virt. eigenvalues --    0.06683   0.07091   0.07597   0.08929   0.09041

  Beta  occ. eigenvalues --  -19.06447 -19.06444 -10.21171 -10.21164 -10.16417
  Beta  occ. eigenvalues --  -10.16357 -10.15675 -10.15608 -10.15170 -10.15165
  Beta  occ. eigenvalues --   -0.97784  -0.97486  -0.81863  -0.76562  -0.71756
  Beta  occ. eigenvalues --   -0.65874  -0.64955  -0.56229  -0.54322  -0.47988
  Beta  occ. eigenvalues --   -0.45433  -0.42594  -0.42199  -0.39683  -0.38885
  Beta  occ. eigenvalues --   -0.38768  -0.38471  -0.38014  -0.36601  -0.34281
  Beta  occ. eigenvalues --   -0.33613  -0.33364  -0.24398  -0.23311  -0.22837
  Beta  occ. eigenvalues --   -0.22592
  Beta virt. eigenvalues --   -0.08468  -0.00267   0.01075   0.01089   0.01708
  Beta virt. eigenvalues --    0.03389   0.03497   0.04167   0.04880   0.05274
  Beta virt. eigenvalues --    0.06526   0.06706   0.07625   0.07708   0.08958

 Mulliken charges and spin densities:
               1          2
     1  C   -0.525964   0.005125
     2  C    0.579749   0.060821
     3  C    0.580881   0.060953
     4  C   -0.525530   0.005092
     5  C   -0.675195   0.112372
     6  O   -0.523301   0.246761
     7  C   -0.009047   0.079275
     8  C   -0.008692   0.079342
     9  C   -0.675208   0.112480
    10  O   -0.523503   0.246747
    11  H    0.179892  -0.001980
    12  H    0.146917   0.002803
    13  H    0.147776   0.002871
    14  H    0.147384   0.002850
    15  H    0.147169   0.002835
    16  H    0.180030  -0.001987
    17  H    0.178286  -0.008182
    18  H    0.178354  -0.008180
 Sum of Mulliken charges =  -1.00000   1.00000

 Dipole moment (field-independent basis, Debye):
    X=             -5.6134    Y=              0.2231    Z=              0.4012  Tot=              5.6322
 Quadrupole moment (field-independent basis, Debye-Ang):
   XX=            -65.8537   YY=           -103.6307   ZZ=            -64.7011
   XY=             -1.9489   XZ=             -0.2027   YZ=             -6.8574

  Exact polarizability: 163.880   5.061 244.571  -4.134  26.547  95.253
 Approx polarizability: 166.413   6.546 278.228  -3.307  30.391 106.918

                      1                      2                      3
                      A                      A                      A
 Frequencies --     55.4280               111.3126               116.8954
 Red. masses --      1.0693                 3.5703                 1.2241
 Frc consts  --      0.0019                 0.0261                 0.0099
 IR Inten    --      0.0632                17.9025                 7.0598

                      4                      5                      6
                      A                      A                      A
 Frequencies --    129.6183               251.5017               314.5979
 Red. masses --      2.9538                 3.1695                 2.5605
 Frc consts  --      0.0292                 0.1181                 0.1493
 IR Inten    --      0.0112                 1.3287                 1.6809

                      7                      8                      9
                      A                      A                      A
 Frequencies --    325.4422               334.4860               392.7584
 Red. masses --      3.6324                 5.1288                 9.4628
 Frc consts  --      0.2267                 0.3381                 0.8600
 IR Inten    --      6.5459                 0.0026                30.8475

                     10                     11                     12
                      A                      A                      A
 Frequencies --    467.2726               478.5980               502.8618
 Red. masses --      4.9777                10.8365                 3.6981
 Frc consts  --      0.6404                 1.4625                 0.5510
 IR Inten    --      5.3730                 0.0249                 0.0028

                     13                     14                     15
                      A                      A                      A
 Frequencies --    598.9821               608.1790               644.2223
 Red. masses --      3.8817                 2.2155                 5.4521
 Frc consts  --      0.8205                 0.4828                 1.3332
 IR Inten    --      0.0116                 2.7026                 0.3788

                     16                     17                     18
                      A                      A                      A
 Frequencies --    759.4320               768.0696               820.3241
 Red. masses --      5.4559                 7.0308                 1.8980
 Frc consts  --      1.8540                 2.4437                 0.7525
 IR Inten    --      0.0076                84.8677                78.5985

                     19                     20                     21
                      A                      A                      A
 Frequencies --    841.5492               945.1149               964.9849
 Red. masses --      2.2175                 1.2754                 1.6510
 Frc consts  --      0.9253                 0.6712                 0.9058
 IR Inten    --      7.9953                 0.0010                 2.3186

                     22                     23                     24
                      A                      A                      A
 Frequencies --   1022.8302              1054.7468              1055.9177
 Red. masses --      1.4248                 1.5418                 2.3486
 Frc consts  --      0.8782                 1.0106                 1.5429
 IR Inten    --      0.3210                 0.4220                40.7371

                     25                     26                     27
                      A                      A                      A
 Frequencies --   1107.6206              1154.6000              1172.3327
 Red. masses --      2.4047                 1.5088                 2.6900
 Frc consts  --      1.7382                 1.1851                 2.1783
 IR Inten    --     60.5840                 0.1533                53.5904

                     28                     29                     30
                      A                      A                      A
 Frequencies --   1233.7248              1344.1725              1386.1423
 Red. masses --      4.3558                 1.8628                 1.3914
 Frc consts  --      3.9062                 1.9830                 1.5752
 IR Inten    --     18.8870                21.6234                16.0539

                     31                     32                     33
                      A                      A                      A
 Frequencies --   1389.3094              1421.9356              1461.9952
 Red. masses --      1.2763                 3.9334                 4.7806
 Frc consts  --      1.4515                 4.6857                 6.0204
 IR Inten    --      7.7314               385.8510                 1.2019

                     34                     35                     36
                      A                      A                      A
 Frequencies --   1469.0197              1477.0710              1479.7955
 Red. masses --      1.2577                 1.3015                 1.0460
 Frc consts  --      1.5991                 1.6730                 1.3496
 IR Inten    --      3.6208               464.8833                 1.4914

                     37                     38                     39
                      A                      A                      A
 Frequencies --   1492.6684              1501.9799              1517.6534
 Red. masses --      1.0454                 3.9570                 5.2311
 Frc consts  --      1.3724                 5.2595                 7.0988
 IR Inten    --     24.9572               687.7775                30.2491

                     40                     41                     42
                      A                      A                      A
 Frequencies --   1633.9593              3007.6606              3009.2276
 Red. masses --      7.3820                 1.0402                 1.0412
 Frc consts  --     11.6120                 5.5442                 5.5554
 IR Inten    --      9.9969               130.4245                 8.6900

                     43                     44                     45
                      A                      A                      A
 Frequencies --   3043.4691              3048.8393              3119.7365
 Red. masses --      1.0994                 1.0995                 1.0958
 Frc consts  --      5.9997                 6.0217                 6.2834
 IR Inten    --     83.6627                 0.0403                 5.9808

                     46                     47                     48
                      A                      A                      A
 Frequencies --   3120.2387              3139.4323              3159.4726
 Red. masses --      1.0960                 1.0856                 1.0955
 Frc consts  --      6.2867                 6.3040                 6.4428
 IR Inten    --     21.9610                37.8618                41.0192

 - Thermochemistry -
 -------------------
 Temperature   298.150 Kelvin.  Pressure   1.00000 Atm.
 Atom     1 has atomic number  6 and mass  12.00000

 Molecular mass:   136.05243 amu.
 Principal axes and moments of inertia in atomic units:
                           1         2         3
     Eigenvalues --   899.237271381.391992258.40667
           X            0.05004   0.99653   0.06645
           Y            0.98442  -0.03799  -0.17167
           Z            0.16855  -0.07400   0.98291
 This molecule is an asymmetric top.
 Rotational symmetry number  1.
 Warning -- assumption of classical behavior for rotation
           may cause significant error
 Rotational temperatures (Kelvin)      0.09632     0.06270     0.03835
 Rotational constants (GHZ):           2.00697     1.30647     0.79912
 Zero-point vibrational energy     361614.3 (Joules/Mol)
                                   86.42788 (Kcal/Mol)
 Warning -- explicit consideration of  14 degrees of freedom as
           vibrations may cause significant error
 Vibrational temperatures:     79.75   160.15   168.19   186.49   361.85
          (Kelvin)            452.64   468.24   481.25   565.09   672.30
                              688.60   723.51   861.80   875.03   926.89
                             1092.65  1105.08  1180.26  1210.80  1359.81
                             1388.40  1471.62  1517.55  1519.23  1593.62
                             1661.21  1686.73  1775.05  1933.96  1994.35
                             1998.91  2045.85  2103.49  2113.59  2125.18
                             2129.10  2147.62  2161.01  2183.56  2350.90
                             4327.35  4329.61  4378.87  4386.60  4488.61
                             4489.33  4516.94  4545.78

 Zero-point correction=                           0.137732 (Hartree/Particle)
 Thermal correction to Energy=                    0.147268
 Thermal correction to Enthalpy=                  0.148212
 Thermal correction to Gibbs Free Energy=         0.102121
 Sum of electronic and zero-point Energies=           -460.238905
 Sum of electronic and thermal Energies=              -460.229369
 Sum of electronic and thermal Enthalpies=            -460.228425
 Sum of electronic and thermal Free Energies=         -460.274516

                     E (Thermal)             CV                S
                      KCal/Mol        Cal/Mol-Kelvin    Cal/Mol-Kelvin
 Total                   92.412             35.154             97.008
 Electronic               0.000              0.000              1.377
 Translational            0.889              2.981             40.636
 Rotational               0.889              2.981             29.419
 Vibrational             90.635             29.193             25.576
 Vibration     1          0.596              1.975              4.614
 Vibration     2          0.607              1.940              3.246
 Vibration     3          0.608              1.935              3.151
 Vibration     4          0.612              1.924              2.952
 Vibration     5          0.663              1.760              1.720
 Vibration     6          0.702              1.646              1.338
 Vibration     7          0.710              1.625              1.283
 Vibration     8          0.716              1.607              1.238
 Vibration     9          0.760              1.486              0.990
 Vibration    10          0.825              1.323              0.745
 Vibration    11          0.835              1.298              0.714
 Vibration    12          0.858              1.244              0.651
 Vibration    13          0.957              1.034              0.451
 Vibration    14          0.967              1.014              0.436

                           ! Non-Optimized Parameters !
 Normal termination of Gaussian 16 at Sat Feb 10 10:18:25 2024.
