 Q-Chem 5.4, Q-Chem, Inc., Pleasanton, CA (2021)
 Q-Chem 5.4.0 for Intel X86 EM64T Linux

User input:
--------------------------------------------------------------
$molecule
0 1
O                  4.9783680000      0.5779100000     -0.6554320000
C                  3.7091930000      0.1172350000     -0.4796150000
C                  3.5376510000     -1.2734160000     -0.4198030000
C                  2.2722600000     -1.8040310000     -0.2425830000
C                  1.1530550000     -0.9691430000     -0.1212770000
C                 -0.1921760000     -1.5824740000      0.0683700000
O                 -0.3065240000     -2.7964300000      0.1165030000
C                 -1.3572090000     -0.6580170000      0.1923920000
C                 -2.6578280000     -1.1481230000      0.3723020000
O                 -2.8934870000     -2.4824680000      0.4386300000
C                 -3.7329750000     -0.2436310000      0.4854700000
C                 -3.5447290000      1.1164080000      0.4243950000
C                 -2.2541380000      1.6413050000      0.2447340000
O                 -2.1348780000      2.9743650000      0.1931810000
C                 -1.1590530000      0.7570070000      0.1284930000
C                  0.1787870000      1.3307430000     -0.0586160000
O                  0.3523140000      2.5596610000     -0.1140830000
C                  1.3357520000      0.4181760000     -0.1824880000
C                  2.6108120000      0.9619140000     -0.3612750000
H                  4.9805270000      1.5411830000     -0.6817470000
H                  4.4079120000     -1.9115470000     -0.5144890000
H                  2.1211480000     -2.8751010000     -0.1941100000
H                 -3.8376510000     -2.6300370000      0.5638720000
H                 -4.7354450000     -0.6391240000      0.6246750000
H                 -4.3752710000      1.8057700000      0.5121080000
H                 -1.1732070000      3.1713630000      0.0646600000
H                  2.7167930000      2.0405000000     -0.4042650000
$end

$rem
BASIS  =  6-311++G(d,p)
GUI  =  2
JOB_TYPE  =  SP
METHOD  =  B3LYP
SCF_CONVERGENCE  = 8
SOLVENT_METHOD = sm12
$end

$smx
solvent dimethylformamide
charges CM5
$end

--------------------------------------------------------------

             Standard Nuclear Orientation (Angstroms)
    I     Atom           X                Y                Z
 ----------------------------------------------------------------
    1      O       4.9783680000     0.5779100000    -0.6554320000
    2      C       3.7091930000     0.1172350000    -0.4796150000
    3      C       3.5376510000    -1.2734160000    -0.4198030000
    4      C       2.2722600000    -1.8040310000    -0.2425830000
    5      C       1.1530550000    -0.9691430000    -0.1212770000
    6      C      -0.1921760000    -1.5824740000     0.0683700000
    7      O      -0.3065240000    -2.7964300000     0.1165030000
    8      C      -1.3572090000    -0.6580170000     0.1923920000
    9      C      -2.6578280000    -1.1481230000     0.3723020000
   10      O      -2.8934870000    -2.4824680000     0.4386300000
   11      C      -3.7329750000    -0.2436310000     0.4854700000
   12      C      -3.5447290000     1.1164080000     0.4243950000
   13      C      -2.2541380000     1.6413050000     0.2447340000
   14      O      -2.1348780000     2.9743650000     0.1931810000
   15      C      -1.1590530000     0.7570070000     0.1284930000
   16      C       0.1787870000     1.3307430000    -0.0586160000
   17      O       0.3523140000     2.5596610000    -0.1140830000
   18      C       1.3357520000     0.4181760000    -0.1824880000
   19      C       2.6108120000     0.9619140000    -0.3612750000
   20      H       4.9805270000     1.5411830000    -0.6817470000
   21      H       4.4079120000    -1.9115470000    -0.5144890000
   22      H       2.1211480000    -2.8751010000    -0.1941100000
   23      H      -3.8376510000    -2.6300370000     0.5638720000
   24      H      -4.7354450000    -0.6391240000     0.6246750000
   25      H      -4.3752710000     1.8057700000     0.5121080000
   26      H      -1.1732070000     3.1713630000     0.0646600000
   27      H       2.7167930000     2.0405000000    -0.4042650000
 ----------------------------------------------------------------

   15    -914.6970142735      4.01e-09  Convergence criterion met
 Total energy in the final basis set =     -914.7307053466

                    Orbital Energies (a.u.)
 --------------------------------------------------------------

 Alpha MOs
 -- Occupied --
-19.1744 -19.1706 -19.1603 -19.1392 -19.1151 -10.2889 -10.2744 -10.2657
-10.2656 -10.2635 -10.2123 -10.2118 -10.2108 -10.2069 -10.2018 -10.2011
-10.1986 -10.1985 -10.1964  -1.0915  -1.0870  -1.0868  -1.0603  -1.0511
 -0.8930  -0.8789  -0.8162  -0.7831  -0.7720  -0.7667  -0.6972  -0.6799
 -0.6636  -0.6345  -0.6049  -0.5911  -0.5812  -0.5594  -0.5356  -0.5175
 -0.5046  -0.4905  -0.4859  -0.4683  -0.4607  -0.4566  -0.4542  -0.4405
 -0.4383  -0.4306  -0.4269  -0.4164  -0.4114  -0.4012  -0.3966  -0.3879
 -0.3815  -0.3711  -0.3530  -0.3332  -0.2923  -0.2916  -0.2815  -0.2644
 -0.2538  -0.2340

          Ground-State Mulliken Net Atomic Charges

     Atom                 Charge (a.u.)
  ----------------------------------------
      1 O                    -0.210888
      2 C                     0.059623
      3 C                     0.222498
      4 C                     0.142157
      5 C                    -0.975166
      6 C                    -1.460640
      7 O                    -0.290440
      8 C                    -0.449098
      9 C                    -0.178516
     10 O                    -0.203515
     11 C                     1.451716
     12 C                     0.751138
     13 C                    -0.582119
     14 O                    -0.342453
     15 C                     0.173672
     16 C                    -1.110359
     17 O                    -0.278994
     18 C                     0.206801
     19 C                     0.724919
     20 H                     0.328398
     21 H                     0.287169
     22 H                     0.185019
     23 H                     0.333685
     24 H                     0.383945
     25 H                     0.290551
     26 H                     0.303221
     27 H                     0.237676
  ----------------------------------------
  Sum of atomic charges =     0.000000

                    Cartesian Multipole Moments
 -----------------------------------------------------------------
    Charge (ESU x 10^10)
                 0.0000
    Dipole Moment (Debye)
         X      -1.5143      Y       1.0084      Z       0.1656
       Tot       1.8269
    Quadrupole Moments (Debye-Ang)
        XX     -75.0721     XY      11.3091     YY    -119.6834
        XZ      -4.8523     YZ      -1.2005     ZZ    -109.8656

 Total job time:  593.59s(wall), 4639.85s(cpu)
        *  Thank you very much for using Q-Chem.  Have a nice day.  *
