 Q-Chem 5.4, Q-Chem, Inc., Pleasanton, CA (2021)
 Q-Chem 5.4.0 for Intel X86 EM64T Linux

User input:
--------------------------------------------------------------
$molecule
-1 2
Cl                -3.0876310000      0.6713610000      0.1056380000
C                 -1.3581100000      0.2925840000      0.0464480000
C                 -0.9614530000     -1.0133090000      0.0338630000
C                  0.4327630000     -1.4164130000     -0.0137470000
O                  0.7812060000     -2.6202600000     -0.0248310000
C                  1.3581200000     -0.2924660000     -0.0464460000
C                  0.9614770000      1.0133010000     -0.0338630000
C                 -0.4325710000      1.4164410000      0.0137490000
O                 -0.7812850000      2.6202770000      0.0248320000
Cl                 3.0875910000     -0.6716480000     -0.1056440000
H                 -1.6875800000     -1.8168230000      0.0594660000
H                  1.6874730000      1.8169560000     -0.0594660000
$end
$rem
MAX_SCF_CYCLES=200
BASIS  =  6-311++G(d,p)
GUI  =  2
JOB_TYPE  =  SP
METHOD  =  B3LYP
SOLVENT_METHOD = PCM
$end
$pcm
theory = CPCM
$end
$solvent
dielectric 37.219
opticaldielectric 1.43
$end

--------------------------------------------------------------

             Standard Nuclear Orientation (Angstroms)
    I     Atom           X                Y                Z
 ----------------------------------------------------------------
    1      Cl     -3.0876310000     0.6713610000     0.1056380000
    2      C      -1.3581100000     0.2925840000     0.0464480000
    3      C      -0.9614530000    -1.0133090000     0.0338630000
    4      C       0.4327630000    -1.4164130000    -0.0137470000
    5      O       0.7812060000    -2.6202600000    -0.0248310000
    6      C       1.3581200000    -0.2924660000    -0.0464460000
    7      C       0.9614770000     1.0133010000    -0.0338630000
    8      C      -0.4325710000     1.4164410000     0.0137490000
    9      O      -0.7812850000     2.6202770000     0.0248320000
   10      Cl      3.0875910000    -0.6716480000    -0.1056440000
   11      H      -1.6875800000    -1.8168230000     0.0594660000
   12      H       1.6874730000     1.8169560000    -0.0594660000
 ----------------------------------------------------------------

    9   -1300.9785691353      4.68e-06  Convergence criterion met
 Total energy in the final basis set =    -1300.9785691353

                    Orbital Energies (a.u.)
 --------------------------------------------------------------

 Alpha MOs
 -- Occupied --
********-101.5542 -19.0958 -19.0958 -10.2449 -10.2449 -10.2352 -10.2352
-10.1833 -10.1833  -9.4686  -9.4686  -7.2328  -7.2328  -7.2239  -7.2239
 -7.2232  -7.2232  -1.0234  -1.0208  -0.8833  -0.8689  -0.8091  -0.7390
 -0.6936  -0.6171  -0.5743  -0.5068  -0.4858  -0.4599  -0.4375  -0.4348
 -0.4253  -0.4065  -0.4000  -0.3887  -0.3600  -0.3459  -0.3198  -0.3174
 -0.2887  -0.2640  -0.2605  -0.2574  -0.1796

 Beta MOs
 -- Occupied --
********-101.5541 -19.0889 -19.0889 -10.2436 -10.2436 -10.2339 -10.2339
-10.1823 -10.1823  -9.4686  -9.4686  -7.2328  -7.2328  -7.2237  -7.2237
 -7.2232  -7.2232  -1.0116  -1.0086  -0.8797  -0.8675  -0.8056  -0.7358
 -0.6838  -0.6128  -0.5699  -0.5045  -0.4817  -0.4565  -0.4339  -0.4208
 -0.4188  -0.4019  -0.3867  -0.3776  -0.3494  -0.3346  -0.3193  -0.3170
 -0.2616  -0.2575  -0.2541  -0.2504

          Ground-State Mulliken Net Atomic Charges

     Atom                 Charge (a.u.)    Spin (a.u.)
  --------------------------------------------------------
      1 Cl                    0.211906       0.005064
      2 C                     1.049326       0.089435
      3 C                    -0.556483       0.071573
      4 C                    -0.980605       0.093277
      5 O                    -0.450034       0.246910
      6 C                     1.049603       0.089569
      7 C                    -0.555877       0.071583
      8 C                    -0.980265       0.093330
      9 O                    -0.450159       0.246956
     10 Cl                    0.211867       0.005070
     11 H                     0.225359      -0.006381
     12 H                     0.225361      -0.006384
  --------------------------------------------------------
  Sum of atomic charges =    -1.000000

                    Cartesian Multipole Moments
 -----------------------------------------------------------------
    Charge (ESU x 10^10)
                -4.8032
    Dipole Moment (Debye)
         X       0.0005      Y      -0.0006      Z      -0.0000
       Tot       0.0008
    Quadrupole Moments (Debye-Ang)
        XX     -87.4781     XY      15.9777     YY    -107.6301
        XZ       0.4549     YZ      -0.5241     ZZ     -73.8761

 Total job time:  28.48s(wall), 77.68s(cpu)
        *  Thank you very much for using Q-Chem.  Have a nice day.  *
