 Gaussian 16, Revision A.03,
 Gaussian 16:  ES64L-G16RevA.03 25-Dec-2016

 --------------------------------------
 #P UB3LYP/6-311++G(d,p) nosym opt freq
 --------------------------------------

 --------
 Oxidized
 --------
 Symbolic Z-matrix:
 Charge =  0 Multiplicity = 1

 SCF Done:  E(UB3LYP) =  -2994.41522231     A.U. after   16 cycles
 SCF Done:  E(UB3LYP) =  -2994.42995820     A.U. after   14 cycles
 SCF Done:  E(UB3LYP) =  -2994.43170783     A.U. after   14 cycles
 SCF Done:  E(UB3LYP) =  -2994.43188164     A.U. after   12 cycles
 SCF Done:  E(UB3LYP) =  -2994.43196617     A.U. after   12 cycles
 SCF Done:  E(UB3LYP) =  -2994.43214437     A.U. after   12 cycles
 SCF Done:  E(UB3LYP) =  -2994.43245314     A.U. after   12 cycles
 SCF Done:  E(UB3LYP) =  -2994.43300454     A.U. after   13 cycles
 SCF Done:  E(UB3LYP) =  -2994.43356416     A.U. after   13 cycles
 SCF Done:  E(UB3LYP) =  -2994.43368446     A.U. after   12 cycles
 SCF Done:  E(UB3LYP) =  -2994.43371037     A.U. after   12 cycles
 SCF Done:  E(UB3LYP) =  -2994.43371340     A.U. after   11 cycles
 SCF Done:  E(UB3LYP) =  -2994.43371500     A.U. after   10 cycles
 SCF Done:  E(UB3LYP) =  -2994.43371517     A.U. after    9 cycles
 SCF Done:  E(UB3LYP) =  -2994.43371521     A.U. after    8 cycles
 Optimization completed.
    -- Stationary point found.
 Normal termination of Gaussian 16 at Sun Dec 17 21:13:41 2023.

 ----------------------------------------------------------------------
 #P Geom=AllCheck Guess=TCheck SCRF=Check GenChk UB3LYP/6-311++G(d,p) F
 req
 ----------------------------------------------------------------------

 Structure from the checkpoint file:  "005.chk"
 --------
 Oxidized
 --------
 Charge =  0 Multiplicity = 1

                          Input orientation:
 ---------------------------------------------------------------------
 Center     Atomic      Atomic             Coordinates (Angstroms)
 Number     Number       Type             X           Y           Z
 ---------------------------------------------------------------------
      1          6           0        2.280183   -0.069136    0.078837
      2          6           0        0.789811    0.077014    0.033484
      3          6           0        0.149872    1.257471    0.083185
      4          6           0       -1.322557    1.366666    0.036027
      5          8           0       -1.885285    2.448848    0.081985
      6          6           0       -2.107537    0.112000   -0.069715
      7          6           0       -1.493450   -1.076583   -0.120557
      8         35           0       -2.467024   -2.700159   -0.255188
      9          6           0        0.003081   -1.197678   -0.074332
     10          8           0        0.562641   -2.272560   -0.121311
     11          1           0        2.580390   -0.688481    0.928343
     12          1           0        2.764117    0.904735    0.157356
     13          1           0        2.644133   -0.579310   -0.817080
     14          1           0        0.686130    2.197301    0.161013
     15          1           0       -3.184502    0.219872   -0.102047
 ---------------------------------------------------------------------

 SCF Done:  E(UB3LYP) =  -2994.43371521     A.U. after    2 cycles

 Alpha  occ. eigenvalues -- -482.85352 -62.50622 -56.32670 -56.32280 -56.32238
 Alpha  occ. eigenvalues --  -19.15677 -19.14727 -10.30550 -10.29499 -10.27425
 Alpha  occ. eigenvalues --  -10.23761 -10.22731 -10.21926 -10.19586  -8.71587
 Alpha  occ. eigenvalues --   -6.54767  -6.53462  -6.53339  -2.65856  -2.65502
 Alpha  occ. eigenvalues --   -2.65409  -2.64370  -2.64368  -1.09103  -1.07695
 Alpha  occ. eigenvalues --   -0.89221  -0.84950  -0.78992  -0.74097  -0.70816
 Alpha  occ. eigenvalues --   -0.62910  -0.61176  -0.54783  -0.52045  -0.48076
 Alpha  occ. eigenvalues --   -0.47700  -0.46471  -0.45694  -0.44091  -0.43770
 Alpha  occ. eigenvalues --   -0.42645  -0.41882  -0.40765  -0.36092  -0.31302
 Alpha  occ. eigenvalues --   -0.31283  -0.30328  -0.28846  -0.28788
 Alpha virt. eigenvalues --   -0.14653  -0.04622  -0.03229  -0.01451  -0.01431
 Alpha virt. eigenvalues --    0.00317   0.01160   0.02444   0.02481   0.03479
 Alpha virt. eigenvalues --    0.04964   0.05081   0.05856   0.06284   0.06634

  Beta  occ. eigenvalues -- -482.85352 -62.50622 -56.32670 -56.32280 -56.32238
  Beta  occ. eigenvalues --  -19.15677 -19.14727 -10.30550 -10.29499 -10.27425
  Beta  occ. eigenvalues --  -10.23761 -10.22731 -10.21926 -10.19586  -8.71587
  Beta  occ. eigenvalues --   -6.54767  -6.53462  -6.53339  -2.65856  -2.65502
  Beta  occ. eigenvalues --   -2.65409  -2.64370  -2.64368  -1.09103  -1.07695
  Beta  occ. eigenvalues --   -0.89221  -0.84950  -0.78992  -0.74097  -0.70816
  Beta  occ. eigenvalues --   -0.62910  -0.61176  -0.54783  -0.52045  -0.48076
  Beta  occ. eigenvalues --   -0.47700  -0.46471  -0.45694  -0.44091  -0.43770
  Beta  occ. eigenvalues --   -0.42645  -0.41882  -0.40765  -0.36092  -0.31302
  Beta  occ. eigenvalues --   -0.31283  -0.30328  -0.28846  -0.28788
  Beta virt. eigenvalues --   -0.14653  -0.04622  -0.03229  -0.01451  -0.01431
  Beta virt. eigenvalues --    0.00317   0.01160   0.02444   0.02481   0.03479
  Beta virt. eigenvalues --    0.04964   0.05081   0.05856   0.06284   0.06634

 Mulliken charges and spin densities:
               1          2
     1  C   -0.332355  -0.000000
     2  C    1.600538  -0.000000
     3  C   -0.793936   0.000000
     4  C   -0.427823  -0.000000
     5  O   -0.223870   0.000000
     6  C    0.148186   0.000000
     7  C    0.756025  -0.000000
     8  Br  -0.061667  -0.000000
     9  C   -1.512528   0.000000
    10  O   -0.142212  -0.000000
    11  H    0.187132   0.000000
    12  H    0.153451   0.000000
    13  H    0.187156   0.000000
    14  H    0.195404  -0.000000
    15  H    0.266499  -0.000000
 Sum of Mulliken charges =   0.00000  -0.00000

 Dipole moment (field-independent basis, Debye):
    X=              1.5747    Y=              0.3812    Z=              0.0832  Tot=              1.6224
 Quadrupole moment (field-independent basis, Debye-Ang):
   XX=            -67.4597   YY=            -83.1384   ZZ=            -69.6994
   XY=              8.0933   XZ=              0.5805   YZ=             -0.5388

  Exact polarizability: 116.585  -5.570 150.600   1.697   5.372  60.511
 Approx polarizability: 168.325 -49.193 289.939  -0.311  10.366  93.489

                      1                      2                      3
                      A                      A                      A
 Frequencies --     59.6440               127.7166               141.3258
 Red. masses --      7.6675                 4.2208                 1.3256
 Frc consts  --      0.0161                 0.0406                 0.0156
 IR Inten    --      5.6401                 3.3759                 2.0235

                      4                      5                      6
                      A                      A                      A
 Frequencies --    173.4495               191.0210               264.8463
 Red. masses --      8.8453                 2.5706                15.2110
 Frc consts  --      0.1568                 0.0553                 0.6286
 IR Inten    --      0.4002                 0.0241                 0.5574

                      7                      8                      9
                      A                      A                      A
 Frequencies --    296.7154               297.4099               418.2651
 Red. masses --      4.6743                 3.5790                 8.5268
 Frc consts  --      0.2425                 0.1865                 0.8789
 IR Inten    --      1.1270                 0.0705                22.2722

                     10                     11                     12
                      A                      A                      A
 Frequencies --    436.8722               450.8267               511.0435
 Red. masses --      3.9746                 8.2144                 7.1510
 Frc consts  --      0.4469                 0.9837                 1.1004
 IR Inten    --      0.0440                10.9132                 1.5380

                     13                     14                     15
                      A                      A                      A
 Frequencies --    619.1453               657.6601               774.8406
 Red. masses --      4.4848                 3.3318                 5.2433
 Frc consts  --      1.0129                 0.8490                 1.8547
 IR Inten    --      0.0692                 1.9413                 0.1655

                     16                     17                     18
                      A                      A                      A
 Frequencies --    775.9770               791.6968               877.9059
 Red. masses --      7.8272                 7.9593                 1.3008
 Frc consts  --      2.7768                 2.9393                 0.5907
 IR Inten    --      1.4479                57.7155                 0.1196

                     19                     20                     21
                      A                      A                      A
 Frequencies --    910.1469               926.5241              1021.9496
 Red. masses --      3.6176                 1.5261                 1.7591
 Frc consts  --      1.7656                 0.7719                 1.0824
 IR Inten    --     35.1782                43.8210                25.7306

                     22                     23                     24
                      A                      A                      A
 Frequencies --   1059.3604              1099.7504              1198.6160
 Red. masses --      1.5206                 2.7406                 2.1608
 Frc consts  --      1.0055                 1.9530                 1.8290
 IR Inten    --      1.8510                27.6660                23.4297

                     25                     26                     27
                      A                      A                      A
 Frequencies --   1283.3799              1301.8006              1351.1760
 Red. masses --      5.0233                 1.6246                 2.4695
 Frc consts  --      4.8748                 1.6222                 2.6563
 IR Inten    --    168.7264                18.2412                 0.3688

                     28                     29                     30
                      A                      A                      A
 Frequencies --   1416.6347              1467.3738              1479.4279
 Red. masses --      1.2658                 1.0428                 1.0685
 Frc consts  --      1.4967                 1.3229                 1.3778
 IR Inten    --     12.0822                 9.6944                 8.9446

                     31                     32                     33
                      A                      A                      A
 Frequencies --   1630.6431              1688.1708              1715.5388
 Red. masses --      8.6147                 8.3138                 9.8697
 Frc consts  --     13.4961                13.9600                17.1142
 IR Inten    --    105.1666                 1.8609               253.2340

                     34                     35                     36
                      A                      A                      A
 Frequencies --   1737.6249              3038.3700              3090.2170
 Red. masses --     12.8910                 1.0357                 1.0990
 Frc consts  --     22.9324                 5.6335                 6.1832
 IR Inten    --    230.3876                 6.5872                 4.8661

                     37                     38                     39
                      A                      A                      A
 Frequencies --   3124.8041              3177.7453              3202.8191
 Red. masses --      1.1033                 1.0923                 1.0937
 Frc consts  --      6.3474                 6.4989                 6.6100
 IR Inten    --      9.6885                 3.8780                 0.3917

 - Thermochemistry -
 -------------------
 Temperature   298.150 Kelvin.  Pressure   1.00000 Atm.
 Atom     1 has atomic number  6 and mass  12.00000

 Molecular mass:   199.94729 amu.
 Principal axes and moments of inertia in atomic units:
                           1         2         3
     Eigenvalues --  1242.590742736.727023968.29533
           X            0.56460   0.82458  -0.03603
           Y            0.82231  -0.56573  -0.06139
           Z            0.07100  -0.00504   0.99746
 This molecule is an asymmetric top.
 Rotational symmetry number  1.
 Warning -- assumption of classical behavior for rotation
           may cause significant error
 Rotational temperatures (Kelvin)      0.06970     0.03165     0.02183
 Rotational constants (GHZ):           1.45240     0.65945     0.45479
 Zero-point vibrational energy     267894.3 (Joules/Mol)
                                   64.02828 (Kcal/Mol)
 Warning -- explicit consideration of  13 degrees of freedom as
           vibrations may cause significant error
 Vibrational temperatures:     85.81   183.76   203.34   249.56   274.84
          (Kelvin)            381.05   426.91   427.91   601.79   628.56
                              648.64   735.28   890.81   946.23  1114.82
                             1116.46  1139.08  1263.11  1309.50  1333.06
                             1470.36  1524.18  1582.30  1724.54  1846.50
                             1873.00  1944.04  2038.22  2111.22  2128.57
                             2346.13  2428.90  2468.28  2500.05  4371.54
                             4446.13  4495.90  4572.07  4608.14

 Zero-point correction=                           0.102036 (Hartree/Particle)
 Thermal correction to Energy=                    0.111419
 Thermal correction to Enthalpy=                  0.112363
 Thermal correction to Gibbs Free Energy=         0.066021
 Sum of electronic and zero-point Energies=          -2994.331680
 Sum of electronic and thermal Energies=             -2994.322296
 Sum of electronic and thermal Enthalpies=           -2994.321352
 Sum of electronic and thermal Free Energies=        -2994.367694

                     E (Thermal)             CV                S
                      KCal/Mol        Cal/Mol-Kelvin    Cal/Mol-Kelvin
 Total                   69.917             33.437             97.535
 Electronic               0.000              0.000              0.000
 Translational            0.889              2.981             41.783
 Rotational               0.889              2.981             30.979
 Vibrational             68.139             27.475             24.773
 Vibration     1          0.597              1.974              4.469
 Vibration     2          0.611              1.925              2.980
 Vibration     3          0.615              1.912              2.786
 Vibration     4          0.627              1.875              2.398
 Vibration     5          0.634              1.852              2.218
 Vibration     6          0.671              1.737              1.630
 Vibration     7          0.690              1.680              1.435
 Vibration     8          0.691              1.679              1.431
 Vibration     9          0.781              1.431              0.898
 Vibration    10          0.797              1.390              0.836
 Vibration    11          0.810              1.359              0.793
 Vibration    12          0.866              1.226              0.631
 Vibration    13          0.979              0.991              0.418

 Optimization completed.
    -- Stationary point found.
 Normal termination of Gaussian 16 at Sun Dec 17 21:22:42 2023.
