 Q-Chem 5.4, Q-Chem, Inc., Pleasanton, CA (2021)
 Q-Chem 5.4.0 for Intel X86 EM64T Linux

User input:
--------------------------------------------------------------
$molecule
0 1
C                  0.4493120000      1.6989870000     -2.2719040000
C                 -0.9873170000      2.0807860000     -2.2478930000
C                 -1.9553280000      1.1854780000     -2.0157440000
C                 -1.6286130000     -0.2373290000     -1.7575470000
C                 -0.1937880000     -0.6149340000     -1.7463370000
C                  0.7910190000      0.2806570000     -1.9387410000
O                  1.2976270000      2.5106060000     -2.5977280000
O                 -2.5002460000     -1.0661020000     -1.5543410000
C                  3.3080940000      0.7040960000     -1.3452570000
C                  4.4397660000      0.9675180000     -2.1464900000
C                  3.2084740000      1.2157730000     -0.0361820000
C                  4.2563480000      1.9972370000      0.4567910000
C                  5.4498410000      1.7747480000     -1.6213440000
C                  5.3648080000      2.2846280000     -0.3301860000
H                 -1.1930450000      3.1240370000     -2.4614240000
H                 -3.0082440000      1.4447820000     -2.0153090000
H                  0.0290440000     -1.6591130000     -1.5548040000
H                  4.1990400000      2.3794000000      1.4703500000
H                  6.3148140000      2.0021300000     -2.2348850000
H                  6.1647680000      2.9016370000      0.0637350000
C                  2.2352200000     -0.1891930000     -1.8950240000
O                  2.4842350000     -1.3042890000     -2.3106530000
C                  2.0319320000      0.9215050000      0.8695060000
H                  1.7598410000     -0.1367170000      0.8672080000
H                  1.1416590000      1.4914840000      0.5838040000
H                  2.2713000000      1.1968030000      1.8979870000
C                  4.5743960000      0.4336010000     -3.5536940000
H                  3.6937570000      0.6662000000     -4.1588150000
H                  4.6909620000     -0.6518640000     -3.5584010000
H                  5.4427940000      0.8766670000     -4.0438580000
$end

$rem
BASIS  =  6-311++G(d,p)
GUI  =  2
JOB_TYPE  =  SP
METHOD  =  B3LYP
SCF_CONVERGENCE  = 8
SOLVENT_METHOD = sm12
$end

$smx
solvent dimethylformamide
charges CM5
$end

--------------------------------------------------------------

             Standard Nuclear Orientation (Angstroms)
    I     Atom           X                Y                Z
 ----------------------------------------------------------------
    1      C       0.4493120000     1.6989870000    -2.2719040000
    2      C      -0.9873170000     2.0807860000    -2.2478930000
    3      C      -1.9553280000     1.1854780000    -2.0157440000
    4      C      -1.6286130000    -0.2373290000    -1.7575470000
    5      C      -0.1937880000    -0.6149340000    -1.7463370000
    6      C       0.7910190000     0.2806570000    -1.9387410000
    7      O       1.2976270000     2.5106060000    -2.5977280000
    8      O      -2.5002460000    -1.0661020000    -1.5543410000
    9      C       3.3080940000     0.7040960000    -1.3452570000
   10      C       4.4397660000     0.9675180000    -2.1464900000
   11      C       3.2084740000     1.2157730000    -0.0361820000
   12      C       4.2563480000     1.9972370000     0.4567910000
   13      C       5.4498410000     1.7747480000    -1.6213440000
   14      C       5.3648080000     2.2846280000    -0.3301860000
   15      H      -1.1930450000     3.1240370000    -2.4614240000
   16      H      -3.0082440000     1.4447820000    -2.0153090000
   17      H       0.0290440000    -1.6591130000    -1.5548040000
   18      H       4.1990400000     2.3794000000     1.4703500000
   19      H       6.3148140000     2.0021300000    -2.2348850000
   20      H       6.1647680000     2.9016370000     0.0637350000
   21      C       2.2352200000    -0.1891930000    -1.8950240000
   22      O       2.4842350000    -1.3042890000    -2.3106530000
   23      C       2.0319320000     0.9215050000     0.8695060000
   24      H       1.7598410000    -0.1367170000     0.8672080000
   25      H       1.1416590000     1.4914840000     0.5838040000
   26      H       2.2713000000     1.1968030000     1.8979870000
   27      C       4.5743960000     0.4336010000    -3.5536940000
   28      H       3.6937570000     0.6662000000    -4.1588150000
   29      H       4.6909620000    -0.6518640000    -3.5584010000
   30      H       5.4427940000     0.8766670000    -4.0438580000
 ----------------------------------------------------------------

   15    -804.6705025721      7.73e-09  Convergence criterion met
 Total energy in the final basis set =     -804.6934368157

                    Orbital Energies (a.u.)
 --------------------------------------------------------------

 Alpha MOs
 -- Occupied --
-19.1467 -19.1459 -19.1388 -10.2945 -10.2908 -10.2899 -10.2284 -10.2237
-10.2155 -10.2142 -10.2006 -10.1987 -10.1947 -10.1840 -10.1794 -10.1784
-10.1762 -10.1677  -1.0797  -1.0749  -1.0722  -0.8774  -0.8723  -0.8099
 -0.7950  -0.7799  -0.7259  -0.7118  -0.6894  -0.6689  -0.6295  -0.6220
 -0.5878  -0.5645  -0.5323  -0.5202  -0.5066  -0.4950  -0.4840  -0.4756
 -0.4637  -0.4552  -0.4527  -0.4408  -0.4331  -0.4303  -0.4245  -0.4190
 -0.4161  -0.4134  -0.4114  -0.4030  -0.3804  -0.3634  -0.3577  -0.3525
 -0.3177  -0.3095  -0.2995  -0.2944  -0.2713  -0.2585  -0.2540

          Ground-State Mulliken Net Atomic Charges

     Atom                 Charge (a.u.)
  ----------------------------------------
      1 C                    -1.748230
      2 C                     0.596744
      3 C                     0.802032
      4 C                    -0.753780
      5 C                     0.790460
      6 C                     0.961465
      7 O                    -0.221602
      8 O                    -0.310955
      9 C                    -0.217947
     10 C                    -0.580080
     11 C                     0.251906
     12 C                    -0.213875
     13 C                    -0.252214
     14 C                    -0.204880
     15 H                     0.353296
     16 H                     0.357651
     17 H                     0.300251
     18 H                     0.213896
     19 H                     0.216510
     20 H                     0.273401
     21 C                    -1.200561
     22 O                    -0.205856
     23 C                    -0.071939
     24 H                     0.197164
     25 H                     0.203728
     26 H                     0.234724
     27 C                    -0.322183
     28 H                     0.168271
     29 H                     0.188827
     30 H                     0.193776
  ----------------------------------------
  Sum of atomic charges =     0.000000

                    Cartesian Multipole Moments
 -----------------------------------------------------------------
    Charge (ESU x 10^10)
                 0.0000
    Dipole Moment (Debye)
         X      -0.5736      Y       3.0782      Z       1.3133
       Tot       3.3955
    Quadrupole Moments (Debye-Ang)
        XX    -103.9379     XY      -2.7361     YY    -110.0494
        XZ       5.5614     YZ      -2.4888     ZZ    -103.3342

 Total job time:  787.83s(wall), 6187.77s(cpu)
        *  Thank you very much for using Q-Chem.  Have a nice day.  *
