 Gaussian 16, Revision A.03,
 Gaussian 16:  ES64L-G16RevA.03 25-Dec-2016

 --------------------------------------
 #P UB3LYP/6-311++G(d,p) nosym opt freq
 --------------------------------------

 -------
 Radical
 -------
 Symbolic Z-matrix:
 Charge = -1 Multiplicity = 2

 SCF Done:  E(UB3LYP) =  -807.220726812     A.U. after   23 cycles
 Optimization completed.
    -- Stationary point found.
 Normal termination of Gaussian 16 at Mon Jan  8 01:31:20 2024.

 ----------------------------------------------------------------------
 #P Geom=AllCheck Guess=TCheck SCRF=Check GenChk UB3LYP/6-311++G(d,p) F
 req
 ----------------------------------------------------------------------

 Structure from the checkpoint file:  "283-rad.chk"
 -------
 Radical
 -------
 Charge = -1 Multiplicity = 2

                          Input orientation:
 ---------------------------------------------------------------------
 Center     Atomic      Atomic             Coordinates (Angstroms)
 Number     Number       Type             X           Y           Z
 ---------------------------------------------------------------------
      1          6           0       -1.932566    3.053271    0.229558
      2          6           0       -2.866973    2.238485    0.841419
      3          6           0       -2.562140    0.887012    1.101647
      4          6           0       -0.667048    2.550075   -0.142618
      5          6           0       -0.356967    1.184682    0.119926
      6          6           0       -1.324487    0.377518    0.743294
      7          6           0        0.310541    3.403820   -0.783493
      8          6           0        1.576668    2.798238   -1.126302
      9          6           0        1.906779    1.479707   -0.893927
     10          6           0        0.952771    0.604662   -0.247003
     11          8           0        0.138136    4.635611   -1.064240
     12          8           0        1.216248   -0.602237   -0.005126
     13          1           0       -2.143634    4.095672    0.018913
     14          1           0       -3.836793    2.639152    1.122318
     15          1           0       -3.296662    0.247625    1.582299
     16          1           0       -1.062751   -0.657528    0.932034
     17          6           0        3.252370    0.923019   -1.281435
     18          8           0        2.448064    3.662672   -1.723601
     19          1           0        3.648159    1.482539   -2.135326
     20          1           0        3.115399   -0.119387   -1.586646
     21          1           0        1.921814    4.492388   -1.751109
     22          6           0        4.280386    0.961811   -0.133976
     23          6           0        5.637234    0.363624   -0.520581
     24          6           0        6.671367    0.394024    0.610766
     25          6           0        8.025193   -0.207314    0.218314
     26          1           0        3.867316    0.413777    0.719598
     27          1           0        4.416942    2.001033    0.188632
     28          1           0        6.039300    0.903680   -1.389202
     29          1           0        5.492924   -0.674985   -0.847682
     30          1           0        6.270471   -0.145451    1.477633
     31          1           0        6.815001    1.430977    0.939264
     32          1           0        7.918494   -1.254997   -0.082604
     33          1           0        8.740332   -0.170725    1.046805
     34          1           0        8.466841    0.332810   -0.626108
 ---------------------------------------------------------------------

 SCF Done:  E(UB3LYP) =  -807.220726812     A.U. after    2 cycles

 Alpha  occ. eigenvalues --  -19.01712 -18.95492 -18.94192 -10.09474 -10.09347
 Alpha  occ. eigenvalues --  -10.09099 -10.08358 -10.08017 -10.06679 -10.05730
 Alpha  occ. eigenvalues --  -10.05553 -10.05136 -10.05123 -10.05008 -10.04938
 Alpha  occ. eigenvalues --  -10.04778 -10.04363 -10.03666  -0.93634  -0.86710
 Alpha  occ. eigenvalues --   -0.86458  -0.73618  -0.71054  -0.68543  -0.65483
 Alpha  occ. eigenvalues --   -0.62947  -0.62006  -0.57751  -0.54339  -0.51401
 Alpha  occ. eigenvalues --   -0.49460  -0.48251  -0.46302  -0.44554  -0.41405
 Alpha  occ. eigenvalues --   -0.38488  -0.38117  -0.36025  -0.34750  -0.34253
 Alpha  occ. eigenvalues --   -0.33129  -0.32529  -0.31878  -0.30554  -0.30129
 Alpha  occ. eigenvalues --   -0.29377  -0.28332  -0.27892  -0.26677  -0.26401
 Alpha  occ. eigenvalues --   -0.25944  -0.25552  -0.24369  -0.23969  -0.23484
 Alpha  occ. eigenvalues --   -0.22343  -0.22224  -0.21782  -0.21055  -0.20799
 Alpha  occ. eigenvalues --   -0.14154  -0.13495  -0.12843  -0.10730  -0.10291
 Alpha  occ. eigenvalues --   -0.02162
 Alpha virt. eigenvalues --    0.06157   0.08316   0.08628   0.08911   0.09093
 Alpha virt. eigenvalues --    0.09546   0.10246   0.11034   0.11250   0.11651
 Alpha virt. eigenvalues --    0.12116   0.12205   0.13164   0.13918   0.14198

  Beta  occ. eigenvalues --  -19.01671 -18.94822 -18.93631 -10.09381 -10.09251
  Beta  occ. eigenvalues --  -10.08834 -10.08358 -10.08016 -10.06678 -10.05726
  Beta  occ. eigenvalues --  -10.05453 -10.05128 -10.05083 -10.04982 -10.04974
  Beta  occ. eigenvalues --  -10.04647 -10.04370 -10.03583  -0.93440  -0.85747
  Beta  occ. eigenvalues --   -0.85328  -0.73390  -0.71036  -0.68257  -0.65282
  Beta  occ. eigenvalues --   -0.62747  -0.61876  -0.57564  -0.53601  -0.51277
  Beta  occ. eigenvalues --   -0.49316  -0.48145  -0.46122  -0.44311  -0.41250
  Beta  occ. eigenvalues --   -0.38468  -0.37915  -0.35798  -0.34700  -0.34110
  Beta  occ. eigenvalues --   -0.33047  -0.32469  -0.31683  -0.30497  -0.29343
  Beta  occ. eigenvalues --   -0.28967  -0.28071  -0.27618  -0.26365  -0.26156
  Beta  occ. eigenvalues --   -0.25430  -0.25126  -0.24111  -0.23663  -0.23147
  Beta  occ. eigenvalues --   -0.22114  -0.21609  -0.20917  -0.20597  -0.19906
  Beta  occ. eigenvalues --   -0.12822  -0.12244  -0.12070  -0.10185  -0.09248
  Beta virt. eigenvalues --    0.04397   0.06157   0.08308   0.08627   0.09077
  Beta virt. eigenvalues --    0.09434   0.09686   0.10240   0.11052   0.11630
  Beta virt. eigenvalues --    0.12101   0.12188   0.12418   0.13169   0.13922

 Mulliken charges and spin densities:
               1          2
     1  C    0.116054   0.067650
     2  C   -0.330812   0.001621
     3  C   -0.350289   0.080028
     4  C    0.377181   0.010882
     5  C    0.171541   0.079887
     6  C    0.096459  -0.008769
     7  C   -1.072819   0.140590
     8  C   -0.605181   0.060879
     9  C    2.149961   0.054389
    10  C   -0.968501   0.045761
    11  O   -0.451117   0.246429
    12  O   -0.363253   0.209683
    13  H    0.157269  -0.003776
    14  H    0.122599  -0.000765
    15  H    0.119980  -0.005973
    16  H    0.158823   0.000115
    17  C   -0.465406   0.009217
    18  O   -0.258445   0.014709
    19  H    0.204859  -0.000824
    20  H    0.204533   0.002577
    21  H    0.266694  -0.004239
    22  C   -0.464671  -0.002291
    23  C   -0.158933   0.003196
    24  C   -0.149039  -0.002192
    25  C   -0.647444   0.000033
    26  H    0.170606  -0.002059
    27  H    0.143562   0.002456
    28  H    0.092226  -0.000395
    29  H    0.100749   0.000979
    30  H    0.125076  -0.000066
    31  H    0.121097   0.000160
    32  H    0.131953  -0.000022
    33  H    0.125191   0.000125
    34  H    0.129498   0.000005
 Sum of Mulliken charges =  -1.00000   1.00000

 Dipole moment (field-independent basis, Debye):
    X=             -4.0716    Y=             -8.9691    Z=              2.2494  Tot=             10.1036
 Quadrupole moment (field-independent basis, Debye-Ang):
   XX=           -137.2533   YY=           -156.5522   ZZ=           -118.5132
   XY=             -0.6968   XZ=              3.4730   YZ=              9.5531

  Exact polarizability: 281.322 -20.084 222.342 -39.566 -24.905 149.386
 Approx polarizability: 364.215 -17.870 405.608 -63.184 -53.288 235.285

                      1                      2                      3
                      A                      A                      A
 Frequencies --     20.1474                36.5403                48.4393
 Red. masses --      4.6774                 5.1860                 1.6740
 Frc consts  --      0.0011                 0.0041                 0.0023
 IR Inten    --      0.6311                 1.2524                 0.0464

                      4                      5                      6
                      A                      A                      A
 Frequencies --     90.4802                95.7088               118.3781
 Red. masses --      6.4375                 2.4572                 4.4098
 Frc consts  --      0.0311                 0.0133                 0.0364
 IR Inten    --      4.9575                 0.6613                 0.1148

                      7                      8                      9
                      A                      A                      A
 Frequencies --    135.0455               152.1199               163.3216
 Red. masses --      1.8286                 4.5531                 5.9506
 Frc consts  --      0.0196                 0.0621                 0.0935
 IR Inten    --      0.0133                 0.1896                 1.2410

                     10                     11                     12
                      A                      A                      A
 Frequencies --    193.0434               243.0213               252.5373
 Red. masses --      6.1780                 1.1231                 4.3626
 Frc consts  --      0.1356                 0.0391                 0.1639
 IR Inten    --      0.6542                 0.0390                 2.3895

                     13                     14                     15
                      A                      A                      A
 Frequencies --    287.3941               300.4351               345.7450
 Red. masses --      4.2046                 3.0806                 4.7222
 Frc consts  --      0.2046                 0.1638                 0.3326
 IR Inten    --      1.4161                 1.2069                 4.7523

                     16                     17                     18
                      A                      A                      A
 Frequencies --    355.2080               377.4524               406.7286
 Red. masses --      4.2473                10.1811                 4.3101
 Frc consts  --      0.3157                 0.8546                 0.4201
 IR Inten    --      7.1180                11.3370                 0.5107

                     19                     20                     21
                      A                      A                      A
 Frequencies --    429.6717               437.6875               454.2710
 Red. masses --      8.8421                 4.9000                 3.9681
 Frc consts  --      0.9618                 0.5531                 0.4825
 IR Inten    --      1.5157                 3.8810                 4.1377

                     22                     23                     24
                      A                      A                      A
 Frequencies --    488.5252               529.9510               571.5281
 Red. masses --      5.5147                 7.1437                 5.4883
 Frc consts  --      0.7754                 1.1821                 1.0562
 IR Inten    --      2.6743                 1.1935                 1.7799

                     25                     26                     27
                      A                      A                      A
 Frequencies --    644.0091               675.9088               699.5567
 Red. masses --      6.2171                 5.8007                 3.1278
 Frc consts  --      1.5192                 1.5614                 0.9019
 IR Inten    --     18.0126                 3.1935                 2.1237

                     28                     29                     30
                      A                      A                      A
 Frequencies --    704.6671               711.8496               732.5158
 Red. masses --      3.2204                 5.0299                 1.1262
 Frc consts  --      0.9422                 1.5017                 0.3560
 IR Inten    --     16.6358                 1.4120                 5.3167

                     31                     32                     33
                      A                      A                      A
 Frequencies --    734.3537               756.2542               760.1552
 Red. masses --      1.1268                 1.3072                 2.4759
 Frc consts  --      0.3580                 0.4405                 0.8429
 IR Inten    --    126.3639                 0.1764                 7.2787

                     34                     35                     36
                      A                      A                      A
 Frequencies --    781.1475               826.5347               861.5197
 Red. masses --      2.8406                 1.5736                 1.3862
 Frc consts  --      1.0212                 0.6334                 0.6062
 IR Inten    --      6.2759                 2.5723                 0.0483

                     37                     38                     39
                      A                      A                      A
 Frequencies --    889.0067               892.7765               951.4321
 Red. masses --      2.1573                 2.2009                 4.4835
 Frc consts  --      1.0045                 1.0336                 2.3912
 IR Inten    --     11.1346                 8.1734                26.9613

                     40                     41                     42
                      A                      A                      A
 Frequencies --    969.2133               976.8516               977.9716
 Red. masses --      1.3153                 1.4457                 1.2950
 Frc consts  --      0.7280                 0.8128                 0.7298
 IR Inten    --      1.4361                 1.2855                 1.1333

                     43                     44                     45
                      A                      A                      A
 Frequencies --   1002.1829              1028.9407              1038.9146
 Red. masses --      3.7121                 3.2225                 2.0853
 Frc consts  --      2.1967                 2.0102                 1.3261
 IR Inten    --      2.3179                18.5530                10.6512

                     46                     47                     48
                      A                      A                      A
 Frequencies --   1055.1418              1060.3487              1106.8779
 Red. masses --      2.7173                 2.3804                 2.0785
 Frc consts  --      1.7824                 1.5769                 1.5004
 IR Inten    --     30.1855                 0.7716                 4.2079

                     49                     50                     51
                      A                      A                      A
 Frequencies --   1124.4432              1131.1713              1150.5642
 Red. masses --      2.2747                 1.9731                 1.3097
 Frc consts  --      1.6945                 1.4875                 1.0216
 IR Inten    --     10.4338                40.5028                 0.6690

                     52                     53                     54
                      A                      A                      A
 Frequencies --   1195.9707              1205.1394              1229.9202
 Red. masses --      2.6224                 2.3275                 1.6736
 Frc consts  --      2.2100                 1.9917                 1.4916
 IR Inten    --      9.9638                20.5571                 5.0657

                     55                     56                     57
                      A                      A                      A
 Frequencies --   1253.1567              1260.4230              1286.0558
 Red. masses --      2.4190                 1.3159                 2.1084
 Frc consts  --      2.2382                 1.2317                 2.0546
 IR Inten    --     35.6530                 4.1030                21.1019

                     58                     59                     60
                      A                      A                      A
 Frequencies --   1302.4320              1326.3580              1330.2809
 Red. masses --      1.3727                 1.0565                 1.4289
 Frc consts  --      1.3720                 1.0951                 1.4898
 IR Inten    --     19.4233                 2.9569                18.1723

                     61                     62                     63
                      A                      A                      A
 Frequencies --   1335.1184              1347.5372              1354.9424
 Red. masses --      1.1526                 2.6412                 3.5431
 Frc consts  --      1.2106                 2.8257                 3.8324
 IR Inten    --     17.9108                13.8331                75.1174

                     64                     65                     66
                      A                      A                      A
 Frequencies --   1375.7829              1388.0267              1404.2465
 Red. masses --      1.5028                 1.5866                 1.2422
 Frc consts  --      1.6759                 1.8009                 1.4432
 IR Inten    --      0.3840                 0.5884                 2.6507

                     67                     68                     69
                      A                      A                      A
 Frequencies --   1436.3752              1461.1188              1465.3769
 Red. masses --      2.4143                 1.5222                 2.1996
 Frc consts  --      2.9348                 1.9146                 2.7829
 IR Inten    --    354.6447                51.9367                24.2639

                     70                     71                     72
                      A                      A                      A
 Frequencies --   1482.5877              1486.2097              1488.8408
 Red. masses --      1.2562                 1.8276                 1.0897
 Frc consts  --      1.6268                 2.3785                 1.4232
 IR Inten    --     18.3615                55.9099                 3.2612

                     73                     74                     75
                      A                      A                      A
 Frequencies --   1496.7823              1499.8308              1510.2886
 Red. masses --      1.0405                 1.0757                 1.0905
 Frc consts  --      1.3735                 1.4258                 1.4655
 IR Inten    --      6.5583                 0.2123                 7.4589

                     76                     77                     78
                      A                      A                      A
 Frequencies --   1524.7972              1540.3989              1578.2446
 Red. masses --      5.6233                 5.8608                 5.3943
 Frc consts  --      7.7031                 8.1935                 7.9165
 IR Inten    --    409.1672                74.0350                19.4708

                     79                     80                     81
                      A                      A                      A
 Frequencies --   1621.5352              1639.8345              2982.3866
 Red. masses --      5.8295                 6.1978                 1.0580
 Frc consts  --      9.0310                 9.8195                 5.5443
 IR Inten    --     13.8591                 8.6355                20.7445

                     82                     83                     84
                      A                      A                      A
 Frequencies --   3000.3054              3002.8390              3006.8017
 Red. masses --      1.0613                 1.0924                 1.0352
 Frc consts  --      5.6289                 5.8036                 5.5143
 IR Inten    --     26.5569                 2.6433                64.1801

                     85                     86                     87
                      A                      A                      A
 Frequencies --   3010.7484              3022.2147              3030.0411
 Red. masses --      1.0635                 1.0619                 1.0997
 Frc consts  --      5.6799                 5.7147                 5.9485
 IR Inten    --     17.1276                92.7456                20.4875

                     88                     89                     90
                      A                      A                      A
 Frequencies --   3047.6501              3064.8322              3067.7525
 Red. masses --      1.1012                 1.1006                 1.1035
 Frc consts  --      6.0261                 6.0913                 6.1186
 IR Inten    --      6.9023                65.6823                19.0659

                     91                     92                     93
                      A                      A                      A
 Frequencies --   3071.3375              3132.8533              3152.1444
 Red. masses --      1.1049                 1.0845                 1.0909
 Frc consts  --      6.1408                 6.2716                 6.3862
 IR Inten    --     97.7603                15.6945                48.8416

                     94                     95                     96
                      A                      A                      A
 Frequencies --   3179.0909              3182.0397              3482.1419
 Red. masses --      1.0915                 1.0929                 1.0635
 Frc consts  --      6.4996                 6.5199                 7.5978
 IR Inten    --     14.3796                25.8901               103.1690

 - Thermochemistry -
 -------------------
 Temperature   298.150 Kelvin.  Pressure   1.00000 Atm.
 Atom     1 has atomic number  6 and mass  12.00000

 Molecular mass:   244.10994 amu.
 Principal axes and moments of inertia in atomic units:
                           1         2         3
     Eigenvalues --  2185.812248965.68582**********
           X            0.97132   0.19262   0.13943
           Y           -0.23365   0.88209   0.40905
           Z           -0.04420  -0.42990   0.90180
 This molecule is an asymmetric top.
 Rotational symmetry number  1.
 Warning -- assumption of classical behavior for rotation
           may cause significant error
 Rotational temperatures (Kelvin)      0.03963     0.00966     0.00816
 Rotational constants (GHZ):           0.82566     0.20129     0.17007
 Zero-point vibrational energy     723982.9 (Joules/Mol)
                                  173.03606 (Kcal/Mol)
 Warning -- explicit consideration of  24 degrees of freedom as
           vibrations may cause significant error
 Vibrational temperatures:     28.99    52.57    69.69   130.18   137.70
          (Kelvin)            170.32   194.30   218.87   234.98   277.75
                              349.65   363.34   413.50   432.26   497.45
                              511.07   543.07   585.19   618.20   629.73
                              653.59   702.88   762.48   822.30   926.59
                              972.48  1006.51  1013.86  1024.19  1053.93
                             1056.57  1088.08  1093.69  1123.90  1189.20
                             1239.53  1279.08  1284.51  1368.90  1394.48
                             1405.47  1407.08  1441.92  1480.42  1494.77
                             1518.11  1525.61  1592.55  1617.82  1627.50
                             1655.41  1720.74  1733.93  1769.58  1803.01
                             1813.47  1850.35  1873.91  1908.33  1913.98
                             1920.94  1938.81  1949.46  1979.44  1997.06
                             2020.40  2066.62  2102.22  2108.35  2133.11
                             2138.32  2142.11  2153.54  2157.92  2172.97
                             2193.84  2216.29  2270.74  2333.03  2359.36
                             4290.99  4316.77  4320.42  4326.12  4331.80
                             4348.29  4359.55  4384.89  4409.61  4413.81
                             4418.97  4507.48  4535.23  4574.00  4578.25
                             5010.03

 Zero-point correction=                           0.275751 (Hartree/Particle)
 Thermal correction to Energy=                    0.292455
 Thermal correction to Enthalpy=                  0.293399
 Thermal correction to Gibbs Free Energy=         0.229244
 Sum of electronic and zero-point Energies=           -806.944976
 Sum of electronic and thermal Energies=              -806.928272
 Sum of electronic and thermal Enthalpies=            -806.927328
 Sum of electronic and thermal Free Energies=         -806.991483

                     E (Thermal)             CV                S
                      KCal/Mol        Cal/Mol-Kelvin    Cal/Mol-Kelvin
 Total                  183.518             63.750            135.026
 Electronic               0.000              0.000              1.377
 Translational            0.889              2.981             42.378
 Rotational               0.889              2.981             33.697
 Vibrational            181.741             57.788             57.574
 Vibration     1          0.593              1.986              6.620
 Vibration     2          0.594              1.982              5.438
 Vibration     3          0.595              1.978              4.880
 Vibration     4          0.602              1.956              3.650
 Vibration     5          0.603              1.952              3.540
 Vibration     6          0.609              1.934              3.127
 Vibration     7          0.613              1.918              2.873
 Vibration     8          0.619              1.900              2.646
 Vibration     9          0.623              1.887              2.511
 Vibration    10          0.635              1.850              2.198
 Vibration    11          0.659              1.774              1.781
 Vibration    12          0.664              1.759              1.713
 Vibration    13          0.685              1.697              1.489
 Vibration    14          0.693              1.673              1.414
 Vibration    15          0.724              1.584              1.186
 Vibration    16          0.731              1.565              1.143
 Vibration    17          0.748              1.518              1.049
 Vibration    18          0.771              1.456              0.938
 Vibration    19          0.791              1.406              0.860
 Vibration    20          0.798              1.388              0.834
 Vibration    21          0.813              1.351              0.783
 Vibration    22          0.844              1.275              0.687
 Vibration    23          0.885              1.184              0.587
 Vibration    24          0.928              1.093              0.501

 Optimization completed.
    -- Stationary point found.
 Normal termination of Gaussian 16 at Mon Jan  8 03:20:34 2024.
