 Gaussian 16, Revision A.03,
 Gaussian 16:  ES64L-G16RevA.03 25-Dec-2016

 ----------------------------------------------------------------
 #P UB3LYP/6-311++G(d,p) SCRF=(PCM,Solvent=n,n-DiMethylFormamide)
 ----------------------------------------------------------------

 ------------------
 Radical PCM in DMF
 ------------------
 Symbolic Z-matrix:
 Charge = -1 Multiplicity = 2

                         Standard orientation:
 ---------------------------------------------------------------------
 Center     Atomic      Atomic             Coordinates (Angstroms)
 Number     Number       Type             X           Y           Z
 ---------------------------------------------------------------------
      1          6           0       -3.920681    0.410944    0.531272
      2          6           0       -4.664558   -0.751428    0.614367
      3          6           0       -4.064733   -1.994920    0.329657
      4          6           0       -2.558382    0.373269    0.162519
      5          6           0       -1.950315   -0.882467   -0.125160
      6          6           0       -2.728621   -2.049500   -0.033127
      7          6           0       -1.780401    1.590828    0.075462
      8          6           0       -0.394911    1.450430   -0.309285
      9          6           0        0.222974    0.252890   -0.601882
     10          6           0       -0.527391   -0.981510   -0.514968
     11          8           0       -2.222843    2.763401    0.310341
     12          8           0       -0.000627   -2.097788   -0.761897
     13          1           0       -4.359545    1.378997    0.745263
     14          1           0       -5.711866   -0.707444    0.899321
     15          1           0       -4.649725   -2.907532    0.395144
     16          1           0       -2.241321   -2.991823   -0.256768
     17          6           0        1.676165    0.190209   -0.995563
     18          8           0        0.275578    2.638038   -0.367383
     19          1           0        1.966222    1.130046   -1.476621
     20          1           0        1.798429   -0.620074   -1.721523
     21          1           0       -0.427692    3.278799   -0.120480
     22          6           0        2.618025   -0.077898    0.194395
     23          6           0        4.091775   -0.175313   -0.214140
     24          6           0        5.042205   -0.442614    0.958691
     25          6           0        6.513996   -0.540835    0.543172
     26          1           0        2.308518   -1.010811    0.677548
     27          1           0        2.495371    0.721931    0.934621
     28          1           0        4.393076    0.755021   -0.715655
     29          1           0        4.206940   -0.974136   -0.959223
     30          1           0        4.741978   -1.371448    1.459031
     31          1           0        4.926710    0.354014    1.704250
     32          1           0        6.666722   -1.351818   -0.176936
     33          1           0        7.165700   -0.732071    1.402166
     34          1           0        6.852729    0.386621    0.068914
 ---------------------------------------------------------------------

 SCF Done:  E(UB3LYP) =  -807.294281232     A.U. after   20 cycles

 The electronic state is 2-A.
 Alpha  occ. eigenvalues --  -19.14255 -19.08518 -19.07315 -10.22223 -10.22040
 Alpha  occ. eigenvalues --  -10.21987 -10.17403 -10.17256 -10.17181 -10.17144
 Alpha  occ. eigenvalues --  -10.17064 -10.16913 -10.16145 -10.15972 -10.15745
 Alpha  occ. eigenvalues --  -10.15668 -10.15613 -10.15396  -1.06249  -0.99864
 Alpha  occ. eigenvalues --   -0.99496  -0.85796  -0.81284  -0.79251  -0.76073
 Alpha  occ. eigenvalues --   -0.75045  -0.72697  -0.68469  -0.65893  -0.62125
 Alpha  occ. eigenvalues --   -0.60931  -0.58114  -0.57186  -0.56763  -0.53608
 Alpha  occ. eigenvalues --   -0.50368  -0.48386  -0.47100  -0.45733  -0.45237
 Alpha  occ. eigenvalues --   -0.43716  -0.42914  -0.42652  -0.42097  -0.41533
 Alpha  occ. eigenvalues --   -0.40309  -0.40080  -0.39045  -0.38660  -0.37838
 Alpha  occ. eigenvalues --   -0.36812  -0.36617  -0.35274  -0.34565  -0.34254
 Alpha  occ. eigenvalues --   -0.33797  -0.32881  -0.32370  -0.31772  -0.31709
 Alpha  occ. eigenvalues --   -0.26653  -0.25904  -0.25735  -0.23840  -0.22685
 Alpha  occ. eigenvalues --   -0.15013
 Alpha virt. eigenvalues --   -0.03233  -0.00783  -0.00435   0.00145   0.00769
 Alpha virt. eigenvalues --    0.01377   0.01487   0.02179   0.02807   0.03443
 Alpha virt. eigenvalues --    0.03701   0.04243   0.04799   0.04930   0.05253

  Beta  occ. eigenvalues --  -19.14209 -19.07890 -19.06783 -10.22090 -10.21938
  Beta  occ. eigenvalues --  -10.21701 -10.17387 -10.17252 -10.17071 -10.17055
  Beta  occ. eigenvalues --  -10.17013 -10.16938 -10.16065 -10.15972 -10.15752
  Beta  occ. eigenvalues --  -10.15667 -10.15604 -10.15396  -1.06035  -0.98936
  Beta  occ. eigenvalues --   -0.98432  -0.85561  -0.81059  -0.79082  -0.75902
  Beta  occ. eigenvalues --   -0.74833  -0.72594  -0.68042  -0.65340  -0.61983
  Beta  occ. eigenvalues --   -0.60732  -0.57973  -0.57147  -0.56533  -0.53435
  Beta  occ. eigenvalues --   -0.50140  -0.48161  -0.46979  -0.45632  -0.45136
  Beta  occ. eigenvalues --   -0.43219  -0.42581  -0.42318  -0.41962  -0.41009
  Beta  occ. eigenvalues --   -0.39941  -0.39788  -0.38927  -0.37762  -0.37598
  Beta  occ. eigenvalues --   -0.36554  -0.35771  -0.34994  -0.34105  -0.33661
  Beta  occ. eigenvalues --   -0.33002  -0.32559  -0.32327  -0.31720  -0.31561
  Beta  occ. eigenvalues --   -0.25352  -0.25028  -0.24687  -0.23337  -0.21789
  Beta virt. eigenvalues --   -0.08483  -0.02478  -0.00451   0.00145   0.00338
  Beta virt. eigenvalues --    0.00794   0.01398   0.01493   0.02184   0.02823
  Beta virt. eigenvalues --    0.03460   0.03720   0.04292   0.04819   0.05224

 Mulliken charges and spin densities:
               1          2
     1  C    0.129162   0.075465
     2  C   -0.398838  -0.000978
     3  C   -0.427303   0.072560
     4  C    0.293905  -0.003265
     5  C    0.078529   0.062366
     6  C    0.107592   0.002333
     7  C   -0.850770   0.166705
     8  C   -0.574448   0.060184
     9  C    1.980081   0.047658
    10  C   -0.795029   0.074881
    11  O   -0.524344   0.229624
    12  O   -0.456026   0.197388
    13  H    0.167068  -0.004045
    14  H    0.182045  -0.000626
    15  H    0.178297  -0.005168
    16  H    0.165545  -0.000285
    17  C   -0.394323   0.009867
    18  O   -0.285627   0.015904
    19  H    0.207549  -0.000515
    20  H    0.194021   0.002437
    21  H    0.290741  -0.003581
    22  C   -0.457614  -0.001590
    23  C   -0.187585   0.003524
    24  C   -0.173977  -0.001330
    25  C   -0.665590   0.000049
    26  H    0.163946  -0.001714
    27  H    0.152972   0.001793
    28  H    0.108500  -0.000246
    29  H    0.108800   0.000516
    30  H    0.128995  -0.000046
    31  H    0.129416   0.000087
    32  H    0.140602  -0.000020
    33  H    0.143523   0.000064
    34  H    0.140183   0.000004
 Sum of Mulliken charges =  -1.00000   1.00000

 Dipole moment (field-independent basis, Debye):
    X=              4.2932    Y=             -1.4932    Z=              1.4337  Tot=              4.7662
 Quadrupole moment (field-independent basis, Debye-Ang):
   XX=           -123.8930   YY=           -137.7785   ZZ=           -116.1014
   XY=             11.8076   XZ=              1.1078   YZ=             -4.5892

 Normal termination of Gaussian 16 at Sun Jan 21 08:40:56 2024.
