 Gaussian 16, Revision A.03,
 Gaussian 16:  ES64L-G16RevA.03 25-Dec-2016

 ----------------------------------------------------------------------
 #P UB3LYP/6-311++G(d,p) nosym opt freq SCRF=(PCM,Solvent=n,n-DiMethylF
 ormamide)
 ----------------------------------------------------------------------

 -------
 Radical
 -------
 Symbolic Z-matrix:
 Charge = -1 Multiplicity = 2

 SCF Done:  E(UB3LYP) =  -3301.96629733     A.U. after   19 cycles
 SCF Done:  E(UB3LYP) =  -3301.96653839     A.U. after   14 cycles
 SCF Done:  E(UB3LYP) =  -3301.96656800     A.U. after   12 cycles
 SCF Done:  E(UB3LYP) =  -3301.96656759     A.U. after   10 cycles
 SCF Done:  E(UB3LYP) =  -3301.96656818     A.U. after   10 cycles
 SCF Done:  E(UB3LYP) =  -3301.96656905     A.U. after   10 cycles
 Optimization completed.
    -- Stationary point found.
 Normal termination of Gaussian 16 at Sat Feb 10 16:30:51 2024.

 ----------------------------------------------------------------------
 #P Geom=AllCheck Guess=TCheck SCRF=Check GenChk UB3LYP/6-311++G(d,p) F
 req
 ----------------------------------------------------------------------

 Structure from the checkpoint file:  "120-rad.chk"
 -------
 Radical
 -------
 Charge = -1 Multiplicity = 2

                          Input orientation:
 ---------------------------------------------------------------------
 Center     Atomic      Atomic             Coordinates (Angstroms)
 Number     Number       Type             X           Y           Z
 ---------------------------------------------------------------------
      1          6           0       -3.369511    3.684796    0.036190
      2          6           0       -4.578267    3.018304    0.057492
      3          6           0       -4.603200    1.607237    0.081758
      4          6           0       -2.142809    2.981887    0.038223
      5          6           0       -2.167701    1.555747    0.063084
      6          6           0       -3.418949    0.897720    0.084348
      7          6           0       -0.886487    3.727869    0.014950
      8          6           0        0.337868    2.932357    0.019050
      9          6           0        0.316044    1.509787    0.043547
     10          6           0       -0.938931    0.763884    0.067038
     11          6           0        1.588009    3.587597   -0.001942
     12          6           0        2.755815    2.861966    0.000733
     13          6           0        2.777165    1.443615    0.024026
     14          6           0        1.543498    0.812906    0.044961
     15          8           0       -0.858216    4.990033   -0.007464
     16          8           0       -0.960951   -0.498938    0.089456
     17         35           0        4.425717    3.841159   -0.028803
     18          6           0        4.054699    0.646831    0.026257
     19          1           0       -3.334526    4.767250    0.017279
     20          1           0       -5.508303    3.576389    0.055550
     21          1           0       -5.552520    1.082846    0.098280
     22          1           0       -3.422427   -0.185389    0.102767
     23          1           0        1.599876    4.669178   -0.020014
     24          1           0        1.504517   -0.269977    0.063518
     25          1           0        4.674031    0.886043    0.895886
     26          1           0        4.658707    0.856745   -0.861539
     27          1           0        3.835891   -0.421592    0.045929
 ---------------------------------------------------------------------

 SCF Done:  E(UB3LYP) =  -3301.96656905     A.U. after    1 cycles

 Alpha  occ. eigenvalues -- -482.83058 -62.48345 -56.30365 -56.30005 -56.29985
 Alpha  occ. eigenvalues --  -19.07788 -19.07721 -10.22998 -10.22697 -10.22602
 Alpha  occ. eigenvalues --  -10.19553 -10.18178 -10.17871 -10.17699 -10.17559
 Alpha  occ. eigenvalues --  -10.17514 -10.17504 -10.17403 -10.17356 -10.17159
 Alpha  occ. eigenvalues --  -10.17144 -10.16846  -8.69314  -6.52404  -6.51201
 Alpha  occ. eigenvalues --   -6.51152  -2.63506  -2.63168  -2.63133  -2.62176
 Alpha  occ. eigenvalues --   -2.62175  -1.00247  -0.99962  -0.87808  -0.85756
 Alpha  occ. eigenvalues --   -0.81377  -0.78747  -0.76394  -0.75202  -0.73467
 Alpha  occ. eigenvalues --   -0.70087  -0.66267  -0.63306  -0.60864  -0.59548
 Alpha  occ. eigenvalues --   -0.55982  -0.52621  -0.52249  -0.48194  -0.46873
 Alpha  occ. eigenvalues --   -0.45503  -0.44727  -0.43304  -0.43199  -0.42488
 Alpha  occ. eigenvalues --   -0.41840  -0.41800  -0.41309  -0.40221  -0.38784
 Alpha  occ. eigenvalues --   -0.38158  -0.37423  -0.36980  -0.35320  -0.34783
 Alpha  occ. eigenvalues --   -0.34710  -0.33618  -0.31092  -0.29475  -0.26618
 Alpha  occ. eigenvalues --   -0.25948  -0.25651  -0.24849  -0.24454  -0.23974
 Alpha  occ. eigenvalues --   -0.14489
 Alpha virt. eigenvalues --   -0.05833  -0.02519  -0.01626  -0.00862  -0.00420
 Alpha virt. eigenvalues --    0.00371   0.01237   0.02020   0.02440   0.03550
 Alpha virt. eigenvalues --    0.03910   0.03979   0.04185   0.04624   0.04876

  Beta  occ. eigenvalues -- -482.83057 -62.48345 -56.30366 -56.30002 -56.29984
  Beta  occ. eigenvalues --  -19.07232 -19.07157 -10.22953 -10.22521 -10.22426
  Beta  occ. eigenvalues --  -10.19497 -10.18177 -10.17792 -10.17615 -10.17500
  Beta  occ. eigenvalues --  -10.17485 -10.17440 -10.17358 -10.17311 -10.17155
  Beta  occ. eigenvalues --  -10.17139 -10.16851  -8.69312  -6.52405  -6.51196
  Beta  occ. eigenvalues --   -6.51151  -2.63506  -2.63165  -2.63133  -2.62173
  Beta  occ. eigenvalues --   -2.62172  -0.99273  -0.98958  -0.87640  -0.85568
  Beta  occ. eigenvalues --   -0.81154  -0.78567  -0.76178  -0.74988  -0.73291
  Beta  occ. eigenvalues --   -0.69896  -0.65595  -0.63181  -0.60606  -0.59484
  Beta  occ. eigenvalues --   -0.55731  -0.52377  -0.52107  -0.48056  -0.46624
  Beta  occ. eigenvalues --   -0.45345  -0.44660  -0.43132  -0.42902  -0.42449
  Beta  occ. eigenvalues --   -0.41684  -0.40777  -0.40717  -0.39990  -0.38730
  Beta  occ. eigenvalues --   -0.37322  -0.36771  -0.35751  -0.35255  -0.34674
  Beta  occ. eigenvalues --   -0.33865  -0.33463  -0.30392  -0.29463  -0.25606
  Beta  occ. eigenvalues --   -0.24754  -0.24676  -0.24333  -0.23899  -0.23457
  Beta virt. eigenvalues --   -0.08590  -0.04907  -0.01580  -0.01502  -0.00620
  Beta virt. eigenvalues --   -0.00404   0.00373   0.01247   0.02031   0.02444
  Beta virt. eigenvalues --    0.03626   0.03925   0.03982   0.04615   0.04636

 Mulliken charges and spin densities:
               1          2
     1  C    0.112262   0.028720
     2  C   -0.499822   0.035965
     3  C   -0.479591   0.035001
     4  C    0.109056   0.026830
     5  C    0.298030   0.029235
     6  C    0.018921   0.027162
     7  C   -0.809025   0.096616
     8  C    0.288820   0.042014
     9  C    0.221017   0.058657
    10  C   -0.530880   0.101662
    11  C   -0.060285   0.020043
    12  C   -0.352078   0.030890
    13  C    0.556092   0.043051
    14  C   -0.115367   0.018331
    15  O   -0.454306   0.206197
    16  O   -0.457171   0.209639
    17  Br  -0.224153   0.001343
    18  C   -0.190899  -0.003697
    19  H    0.166636  -0.001471
    20  H    0.182386  -0.002979
    21  H    0.184211  -0.002929
    22  H    0.162516  -0.001585
    23  H    0.219673  -0.001653
    24  H    0.133152  -0.001714
    25  H    0.174016   0.002277
    26  H    0.174175   0.002280
    27  H    0.172617   0.000118
 Sum of Mulliken charges =  -1.00000   1.00000

 Dipole moment (field-independent basis, Debye):
    X=              2.3859    Y=            -12.3308    Z=             -0.1560  Tot=             12.5604
 Quadrupole moment (field-independent basis, Debye-Ang):
   XX=           -125.7157   YY=           -184.6892   ZZ=           -123.6177
   XY=             -2.2320   XZ=              0.2231   YZ=              0.1920

  Exact polarizability: 546.107  12.605 379.759  -3.411  -4.007 152.905
 Approx polarizability: 538.121  10.599 452.903  -3.121  -4.839 176.865

                      1                      2                      3
                      A                      A                      A
 Frequencies --     39.1398                58.7865               124.3474
 Red. masses --      8.4989                 5.0424                 6.1696
 Frc consts  --      0.0077                 0.0103                 0.0562
 IR Inten    --      7.7715                 4.8641                 4.4059

                      4                      5                      6
                      A                      A                      A
 Frequencies --    125.7257               128.9480               162.3873
 Red. masses --     10.6612                 4.5934                 1.0874
 Frc consts  --      0.0993                 0.0450                 0.0169
 IR Inten    --      1.8749                 1.0789                 0.7891

                      7                      8                      9
                      A                      A                      A
 Frequencies --    190.3444               216.6924               218.8850
 Red. masses --      6.1920                12.1734                 3.8671
 Frc consts  --      0.1322                 0.3368                 0.1092
 IR Inten    --      1.5711                 3.5645                 0.2330

                     10                     11                     12
                      A                      A                      A
 Frequencies --    231.2852               283.1955               318.9224
 Red. masses --      3.9626                 6.0274                 5.6816
 Frc consts  --      0.1249                 0.2848                 0.3405
 IR Inten    --      6.0370                 3.2515                 5.7644

                     13                     14                     15
                      A                      A                      A
 Frequencies --    346.7383               379.5720               423.6728
 Red. masses --      6.6672                10.9151                 3.3065
 Frc consts  --      0.4723                 0.9265                 0.3497
 IR Inten    --      5.2500                20.6387                 8.9701

                     16                     17                     18
                      A                      A                      A
 Frequencies --    438.8169               452.2505               462.6797
 Red. masses --      5.8232                 4.8090                 3.1502
 Frc consts  --      0.6607                 0.5795                 0.3973
 IR Inten    --      0.2108                15.9155                 0.1982

                     19                     20                     21
                      A                      A                      A
 Frequencies --    463.7829               494.1574               551.1643
 Red. masses --      6.5137                10.6171                 5.2883
 Frc consts  --      0.8255                 1.5275                 0.9465
 IR Inten    --      5.8492                 1.7194                 0.1104

                     22                     23                     24
                      A                      A                      A
 Frequencies --    599.2586               646.3121               653.7019
 Red. masses --      6.4797                 4.8076                 6.5973
 Frc consts  --      1.3710                 1.1832                 1.6610
 IR Inten    --     53.8775                 0.0282                47.5890

                     25                     26                     27
                      A                      A                      A
 Frequencies --    675.4294               701.5714               706.6999
 Red. masses --      6.4188                 6.7170                 2.5270
 Frc consts  --      1.7253                 1.9479                 0.7436
 IR Inten    --     14.9631                 9.3578               107.3630

                     28                     29                     30
                      A                      A                      A
 Frequencies --    720.2827               745.4036               789.1594
 Red. masses --      4.5226                 6.2078                 1.7606
 Frc consts  --      1.3824                 2.0322                 0.6460
 IR Inten    --      0.5444                12.6292                35.0013

                     31                     32                     33
                      A                      A                      A
 Frequencies --    802.2131               863.3731               885.5038
 Red. masses --      4.2745                 6.3595                 1.4668
 Frc consts  --      1.6207                 2.7930                 0.6776
 IR Inten    --      0.2365                 7.5130                 0.0124

                     34                     35                     36
                      A                      A                      A
 Frequencies --    909.4398               922.8336               946.7465
 Red. masses --      1.3952                 1.4164                 6.6860
 Frc consts  --      0.6799                 0.7107                 3.5309
 IR Inten    --      0.0016                32.7887                13.5526

                     37                     38                     39
                      A                      A                      A
 Frequencies --    983.7425               989.1316              1001.9723
 Red. masses --      2.9457                 1.3644                 1.2899
 Frc consts  --      1.6796                 0.7865                 0.7630
 IR Inten    --    131.5014                 2.9486                 0.0371

                     40                     41                     42
                      A                      A                      A
 Frequencies --   1027.4564              1041.3761              1058.3152
 Red. masses --      1.7558                 1.9122                 1.4965
 Frc consts  --      1.0921                 1.2218                 0.9875
 IR Inten    --      7.8140                26.0814                 5.7178

                     43                     44                     45
                      A                      A                      A
 Frequencies --   1111.1093              1148.1416              1151.4765
 Red. masses --      2.4191                 2.5139                 1.3520
 Frc consts  --      1.7596                 1.9525                 1.0562
 IR Inten    --     56.8686                10.2171                19.3060

                     46                     47                     48
                      A                      A                      A
 Frequencies --   1171.3625              1219.0073              1219.5676
 Red. masses --      2.5677                 2.4741                 1.9839
 Frc consts  --      2.0758                 2.1661                 1.7386
 IR Inten    --     20.4346                 6.2778                19.5959

                     49                     50                     51
                      A                      A                      A
 Frequencies --   1236.6835              1248.6715              1308.3807
 Red. masses --      3.6003                 1.5906                 2.8355
 Frc consts  --      3.2442                 1.4612                 2.8599
 IR Inten    --     73.2379               147.9221               218.6152

                     52                     53                     54
                      A                      A                      A
 Frequencies --   1355.1583              1357.8272              1396.6867
 Red. masses --      8.0953                10.9446                 2.6362
 Frc consts  --      8.7591                11.8888                 3.0299
 IR Inten    --      1.8496                 5.7338               791.2982

                     55                     56                     57
                      A                      A                      A
 Frequencies --   1412.9730              1448.0331              1466.3514
 Red. masses --      1.3418                 2.8749                 2.4738
 Frc consts  --      1.5784                 3.5516                 3.1340
 IR Inten    --     77.8872               544.0216               279.2759

                     58                     59                     60
                      A                      A                      A
 Frequencies --   1470.7319              1481.0078              1485.6203
 Red. masses --      1.0430                 3.0155                 1.8234
 Frc consts  --      1.3293                 3.8969                 2.3711
 IR Inten    --     13.3719                27.7577               101.9964

                     61                     62                     63
                      A                      A                      A
 Frequencies --   1498.0786              1511.6618              1547.2574
 Red. masses --      3.6216                 4.6638                 5.6100
 Frc consts  --      4.7887                 6.2791                 7.9130
 IR Inten    --    986.2662                22.2087                63.3668

                     64                     65                     66
                      A                      A                      A
 Frequencies --   1602.9226              1614.2199              1628.7748
 Red. masses --      8.2162                 6.7644                 6.1502
 Frc consts  --     12.4379                10.3849                 9.6131
 IR Inten    --     15.3448                 4.4971                 3.3403

                     67                     68                     69
                      A                      A                      A
 Frequencies --   3025.5381              3072.9586              3111.2988
 Red. masses --      1.0374                 1.1002                 1.1005
 Frc consts  --      5.5949                 6.1211                 6.2764
 IR Inten    --     57.2253                21.7164                31.0836

                     70                     71                     72
                      A                      A                      A
 Frequencies --   3160.1124              3174.1940              3183.7831
 Red. masses --      1.0861                 1.0905                 1.0890
 Frc consts  --      6.3902                 6.4734                 6.5035
 IR Inten    --     13.3751                22.9570                13.1763

                     73                     74                     75
                      A                      A                      A
 Frequencies --   3191.2877              3194.7561              3205.8914
 Red. masses --      1.0917                 1.0939                 1.0904
 Frc consts  --      6.5509                 6.5783                 6.6030
 IR Inten    --     16.9904                44.2256                 7.4785

 - Thermochemistry -
 -------------------
 Temperature   298.150 Kelvin.  Pressure   1.00000 Atm.
 Atom     1 has atomic number  6 and mass  12.00000

 Molecular mass:   299.97859 amu.
 Principal axes and moments of inertia in atomic units:
                           1         2         3
     Eigenvalues --  2192.87937********************
           X            0.98733  -0.15845   0.00807
           Y            0.15830   0.98724   0.01705
           Z           -0.01067  -0.01555   0.99982
 This molecule is an asymmetric top.
 Rotational symmetry number  1.
 Warning -- assumption of classical behavior for rotation
           may cause significant error
 Rotational temperatures (Kelvin)      0.03950     0.00812     0.00674
 Rotational constants (GHZ):           0.82300     0.16927     0.14052
 Zero-point vibrational energy     509567.0 (Joules/Mol)
                                  121.78943 (Kcal/Mol)
 Warning -- explicit consideration of  22 degrees of freedom as
           vibrations may cause significant error
 Vibrational temperatures:     56.31    84.58   178.91   180.89   185.53
          (Kelvin)            233.64   273.86   311.77   314.93   332.77
                              407.46   458.86   498.88   546.12   609.57
                              631.36   650.69   665.69   667.28   710.98
                              793.00   862.20   929.90   940.53   971.79
                             1009.40  1016.78  1036.33  1072.47  1135.42
                             1154.21  1242.20  1274.04  1308.48  1327.75
                             1362.16  1415.39  1423.14  1441.61  1478.28
                             1498.31  1522.68  1598.64  1651.92  1656.72
                             1685.33  1753.88  1754.69  1779.31  1796.56
                             1882.47  1949.77  1953.61  2009.52  2032.95
                             2083.40  2109.75  2116.06  2130.84  2137.48
                             2155.40  2174.94  2226.16  2306.25  2322.50
                             2343.44  4353.07  4421.30  4476.46  4546.70
                             4566.96  4580.75  4591.55  4596.54  4612.56

 Zero-point correction=                           0.194084 (Hartree/Particle)
 Thermal correction to Energy=                    0.208548
 Thermal correction to Enthalpy=                  0.209493
 Thermal correction to Gibbs Free Energy=         0.151065
 Sum of electronic and zero-point Energies=          -3301.772485
 Sum of electronic and thermal Energies=             -3301.758021
 Sum of electronic and thermal Enthalpies=           -3301.757076
 Sum of electronic and thermal Free Energies=        -3301.815504

                     E (Thermal)             CV                S
                      KCal/Mol        Cal/Mol-Kelvin    Cal/Mol-Kelvin
 Total                  130.866             56.501            122.972
 Electronic               0.000              0.000              1.377
 Translational            0.889              2.981             42.993
 Rotational               0.889              2.981             34.062
 Vibrational            129.089             50.540             44.540
 Vibration     1          0.594              1.981              5.302
 Vibration     2          0.596              1.974              4.498
 Vibration     3          0.610              1.929              3.032
 Vibration     4          0.611              1.927              3.010
 Vibration     5          0.611              1.924              2.962
 Vibration     6          0.622              1.889              2.522
 Vibration     7          0.634              1.853              2.224
 Vibration     8          0.646              1.816              1.987
 Vibration     9          0.647              1.812              1.968
 Vibration    10          0.653              1.793              1.869
 Vibration    11          0.682              1.705              1.514
 Vibration    12          0.705              1.637              1.316
 Vibration    13          0.725              1.582              1.181
 Vibration    14          0.750              1.514              1.041
 Vibration    15          0.786              1.419              0.880
 Vibration    16          0.799              1.386              0.830
 Vibration    17          0.811              1.356              0.789
 Vibration    18          0.820              1.333              0.758
 Vibration    19          0.821              1.330              0.755
 Vibration    20          0.850              1.263              0.673
 Vibration    21          0.906              1.137              0.542
 Vibration    22          0.957              1.033              0.451

 Optimization completed.
    -- Stationary point found.
 Normal termination of Gaussian 16 at Sat Feb 10 17:45:23 2024.
