 Q-Chem 5.4, Q-Chem, Inc., Pleasanton, CA (2021)
 Q-Chem 5.4.0 for Intel X86 EM64T Linux

User input:
--------------------------------------------------------------
$molecule
-1 2
C                  5.0428730000     -2.2495910000      0.7203280000
C                  5.8689310000     -1.4205440000     -0.0114600000
C                  5.3165950000     -0.5500460000     -0.9776570000
C                  3.6435620000     -2.2490420000      0.5246980000
C                  3.0862760000     -1.3703400000     -0.4504040000
C                  3.9522040000     -0.5315250000     -1.1865520000
C                  2.8104730000     -3.1479670000      1.3258130000
C                  1.3709880000     -3.0904560000      1.0667860000
C                  0.8145720000     -2.2116750000      0.0930690000
C                  1.6457330000     -1.3129330000     -0.7088260000
C                  0.5053370000     -3.9296430000      1.8027010000
C                 -0.5840980000     -2.2187310000     -0.0997530000
C                 -1.4053550000     -3.0478980000      0.6352010000
O                  3.3017600000     -3.9216180000      2.1864900000
O                  1.1530710000     -0.5383120000     -1.5668860000
H                  5.4391290000     -2.9274970000      1.4676480000
H                  6.9423210000     -1.4361840000      0.1537460000
H                  5.9658420000      0.1025240000     -1.5540870000
H                 -2.4788440000     -3.0396090000      0.4622010000
H                  3.5006270000      0.1257490000     -1.9208430000
H                  0.9640490000     -4.5892780000      2.5324390000
H                 -0.9861930000     -1.5490430000     -0.8514530000
C                 -0.8643170000     -3.9242260000      1.6102800000
C                 -1.7783460000     -4.7938570000      2.4469560000
C                 -2.3027550000     -4.0530010000      3.6736740000
O                 -3.2013510000     -4.9200920000      4.3898200000
H                 -1.2493810000     -5.6901410000      2.7844630000
H                 -2.6383330000     -5.1278460000      1.8555280000
H                 -2.8249510000     -3.1394400000      3.3615180000
H                 -1.4605000000     -3.7617690000      4.3131390000
H                 -3.4721520000     -4.4715300000      5.1958430000
$end
$rem
MAX_SCF_CYCLES=200
BASIS  =  6-311++G(d,p)
GUI  =  2
JOB_TYPE  =  SP
METHOD  =  B3LYP
SOLVENT_METHOD = COSMO
$end
$solvent
dielectric 37.219
opticaldielectric 1.43
$end

--------------------------------------------------------------

             Standard Nuclear Orientation (Angstroms)
    I     Atom           X                Y                Z
 ----------------------------------------------------------------
    1      C       3.2466565981    -1.7817742959     0.0393160093
    2      C       4.5542627314    -1.3703449788     0.2008602500
    3      C       4.8510753319     0.0066465606     0.3112008515
    4      C       2.1864263003    -0.8496563798    -0.0190841557
    5      C       2.4861589987     0.5400336354     0.0924092163
    6      C       3.8319896240     0.9362089346     0.2571539991
    7      C       0.8165157441    -1.3367206018    -0.1922955650
    8      C      -0.2275148535    -0.3120705791    -0.2434033861
    9      C       0.0723658509     1.0762462026    -0.1310304178
   10      C       1.4409638865     1.5648416025     0.0416407539
   11      C      -1.5731619067    -0.7084323157    -0.4085964370
   12      C      -0.9914643496     2.0024464008    -0.1936912267
   13      C      -2.2965478047     1.5861179784    -0.3535854921
   14      O       0.5522065582    -2.5620458886    -0.2891577364
   15      O       1.7033991274     2.7897037613     0.1409430189
   16      H       2.9899981868    -2.8313065008    -0.0482691234
   17      H       5.3552138057    -2.1027376250     0.2430753257
   18      H       5.8797196625     0.3313266828     0.4381436581
   19      H      -3.0970610261     2.3201256889    -0.4063832560
   20      H       4.0298999135     1.9988647725     0.3390579569
   21      H      -1.7641920116    -1.7733316196    -0.4954845975
   22      H      -0.7408586732     3.0542165218    -0.1150038453
   23      C      -2.6086461662     0.2069217473    -0.4625088880
   24      C      -4.0487444006    -0.2428718261    -0.5871549252
   25      C      -4.7190384122    -0.3896658365     0.7758809951
   26      O      -6.0938661328    -0.7676747593     0.5780309009
   27      H      -4.1050337263    -1.2048184195    -1.1053539392
   28      H      -4.6267010919     0.4777554925    -1.1767104376
   29      H      -4.6614481333     0.5601009257     1.3230100371
   30      H      -4.1925953500    -1.1525667597     1.3623662316
   31      H      -6.4886410139    -0.9250515601     1.4403530344
 ----------------------------------------------------------------

    9    -842.9108141598      9.02e-06  Convergence criterion met
 Total energy in the final basis set =     -842.9108141598
    4    -842.9994436783      8.88e-06  Convergence criterion met
 Total energy in the final basis set =     -842.9994436783

                    Orbital Energies (a.u.)
 --------------------------------------------------------------

 Alpha MOs
 -- Occupied --
-19.1275 -19.0804 -19.0802 -10.2272 -10.2265 -10.2159 -10.1826 -10.1739
-10.1737 -10.1734 -10.1728 -10.1725 -10.1723 -10.1718 -10.1703 -10.1700
-10.1699 -10.1696 -10.1681  -1.0238  -1.0076  -1.0052  -0.8643  -0.8536
 -0.7990  -0.7678  -0.7516  -0.7464  -0.7227  -0.6675  -0.6423  -0.6239
 -0.5977  -0.5855  -0.5570  -0.5327  -0.5273  -0.5071  -0.4809  -0.4712
 -0.4579  -0.4503  -0.4413  -0.4273  -0.4237  -0.4225  -0.4179  -0.4176
 -0.4098  -0.4011  -0.3849  -0.3712  -0.3661  -0.3624  -0.3492  -0.3434
 -0.3424  -0.3338  -0.3315  -0.2852  -0.2688  -0.2589  -0.2561  -0.2514
 -0.2458  -0.2414  -0.1443

 Beta MOs
 -- Occupied --
-19.1275 -19.0751 -19.0748 -10.2254 -10.2246 -10.2159 -10.1821 -10.1731
-10.1730 -10.1726 -10.1723 -10.1718 -10.1718 -10.1713 -10.1702 -10.1700
-10.1699 -10.1696 -10.1680  -1.0237  -0.9982  -0.9955  -0.8618  -0.8523
 -0.7963  -0.7656  -0.7491  -0.7447  -0.7212  -0.6604  -0.6408  -0.6220
 -0.5963  -0.5848  -0.5545  -0.5306  -0.5265  -0.5058  -0.4801  -0.4683
 -0.4565  -0.4497  -0.4403  -0.4233  -0.4225  -0.4209  -0.4126  -0.4088
 -0.4081  -0.3989  -0.3702  -0.3634  -0.3618  -0.3613  -0.3464  -0.3421
 -0.3416  -0.3304  -0.3241  -0.2850  -0.2550  -0.2494  -0.2469  -0.2464
 -0.2403  -0.2364

          Ground-State Mulliken Net Atomic Charges

     Atom                 Charge (a.u.)    Spin (a.u.)
  --------------------------------------------------------
      1 C                     0.059761       0.030043
      2 C                    -0.486319       0.035559
      3 C                    -0.496475       0.040448
      4 C                     0.314020       0.031389
      5 C                     0.117521       0.032343
      6 C                     0.103522       0.028338
      7 C                    -0.612391       0.113438
      8 C                     0.242201       0.049686
      9 C                     0.055420       0.029169
     10 C                    -0.642960       0.106268
     11 C                    -0.228678       0.024466
     12 C                     0.070349       0.026482
     13 C                    -0.535515       0.038797
     14 O                    -0.488605       0.200504
     15 O                    -0.491384       0.194999
     16 H                     0.175295      -0.001540
     17 H                     0.203576      -0.003021
     18 H                     0.202135      -0.003297
     19 H                     0.203470      -0.003095
     20 H                     0.177890      -0.001280
     21 H                     0.174880      -0.001648
     22 H                     0.185513      -0.001298
     23 C                     0.562025       0.032571
     24 C                     0.032194      -0.000547
     25 C                    -0.519705      -0.000608
     26 O                    -0.387048       0.000272
     27 H                     0.179081       0.000107
     28 H                     0.181022       0.001313
     29 H                     0.173495      -0.000411
     30 H                     0.173982       0.000517
     31 H                     0.301720       0.000035
  --------------------------------------------------------
  Sum of atomic charges =    -1.000007

                    Cartesian Multipole Moments
 -----------------------------------------------------------------
    Charge (ESU x 10^10)
                -4.8032
    Dipole Moment (Debye)
         X      -4.6244      Y      -0.3610      Z       2.3023
       Tot       5.1784
    Quadrupole Moments (Debye-Ang)
        XX    -123.4515     XY     -10.8825     YY    -146.3209
        XZ     -11.0980     YZ      -4.3269     ZZ    -114.1647

 Total job time:  96.69s(wall), 734.26s(cpu)
        *  Thank you very much for using Q-Chem.  Have a nice day.  *
