 Q-Chem 5.4, Q-Chem, Inc., Pleasanton, CA (2021)
 Q-Chem 5.4.0 for Intel X86 EM64T Linux

User input:
--------------------------------------------------------------
$molecule
0 1
C                  2.6971390000      2.9820330000      1.5178120000
C                  2.5077500000      1.5046820000      1.6951440000
O                  2.2052160000      0.9287640000      2.7000780000
O                  2.7523120000      0.8518450000      0.5018160000
C                  2.4634490000     -0.5002580000      0.4280360000
C                  3.5219590000     -1.3835400000      0.6046100000
C                  3.3221200000     -2.7541060000      0.4757530000
C                  2.0618140000     -3.2400510000      0.1539260000
C                  1.0016570000     -2.3551370000     -0.0454190000
C                 -0.3188110000     -2.9274610000     -0.4342340000
O                 -0.4979250000     -4.1334060000     -0.4658770000
C                 -1.3986800000     -1.9781120000     -0.8280040000
C                 -2.5737710000     -2.5119180000     -1.3580290000
C                 -3.5931350000     -1.6680120000     -1.7785440000
C                 -3.4411280000     -0.2901360000     -1.6631540000
C                 -2.2809310000      0.2446330000     -1.1155980000
O                 -2.1715000000      1.6247350000     -1.0971910000
C                 -2.4869100000      2.2861210000      0.0747250000
C                 -2.1213500000      3.7361220000     -0.0421850000
O                 -2.9902780000      1.7395260000      1.0132910000
C                 -1.2294980000     -0.5851310000     -0.6857890000
C                  0.0198800000     -0.0291020000     -0.0767470000
O                  0.0894590000      1.1374910000      0.2724910000
C                  1.1768860000     -0.9629810000      0.0974130000
H                  1.8861800000      3.3593380000      0.8908700000
H                  2.6719460000      3.4711080000      2.4892220000
H                  3.6390370000      3.1908700000      1.0074090000
H                  4.4965580000     -0.9774570000      0.8461860000
H                  4.1502270000     -3.4369340000      0.6251620000
H                  1.8742520000     -4.3002800000      0.0438460000
H                 -2.6602500000     -3.5879230000     -1.4362190000
H                 -4.5050040000     -2.0774990000     -2.1970570000
H                 -4.2169770000      0.3907980000     -1.9910240000
H                 -2.5265620000      4.2829060000      0.8065300000
H                 -1.0319980000      3.8158130000     -0.0492370000
H                 -2.4931380000      4.1526610000     -0.9800100000
$end
$rem
MAX_SCF_CYCLES=200
BASIS  =  6-311++G(d,p)
GUI  =  2
JOB_TYPE  =  SP
METHOD  =  B3LYP
SOLVENT_METHOD = COSMO
$end
$solvent
dielectric 37.219
opticaldielectric 1.43
$end

--------------------------------------------------------------

             Standard Nuclear Orientation (Angstroms)
    I     Atom           X                Y                Z
 ----------------------------------------------------------------
    1      C      -2.5660814126    -3.6520453336    -0.2514446543
    2      C      -2.6583270303    -2.2591929283     0.2974940779
    3      O      -2.7657658989    -1.9390060068     1.4459878450
    4      O      -2.6183794018    -1.3421113961    -0.7356584211
    5      C      -2.5218288188     0.0004930968    -0.4113761302
    6      C      -3.7007778893     0.7366170313    -0.4082888310
    7      C      -3.6737991003     2.1050717965    -0.1601062101
    8      C      -2.4608129822     2.7404147954     0.0703071700
    9      C      -1.2731019359     2.0086218875     0.0465229033
   10      C       0.0043573353     2.7483857870     0.2544045708
   11      O       0.0061456901     3.9318924390     0.5488451483
   12      C       1.2795809960     2.0052317206     0.0447332975
   13      C       2.4691745133     2.7340093343     0.0662892197
   14      C       3.6802533984     2.0953238343    -0.1649723916
   15      C       3.7034610821     0.7264559306    -0.4111944804
   16      C       2.5226491421    -0.0067119657    -0.4119248440
   17      O       2.6159339979    -1.3501875969    -0.7334316962
   18      C       2.6504371740    -2.2653101462     0.3017795241
   19      C       2.5544633609    -3.6589834483    -0.2443603075
   20      O       2.7565264312    -1.9430364458     1.4497935943
   21      C       1.2806268091     0.6138114901    -0.1859014141
   22      C       0.0002058301    -0.1615027267    -0.1645525211
   23      O      -0.0015743879    -1.3805127454    -0.1226114834
   24      C      -1.2780538176     0.6174344891    -0.1853771020
   25      H      -1.5560613029    -3.8020430312    -0.6392975940
   26      H      -2.7683625021    -4.3693946949     0.5409937886
   27      H      -3.2652045409    -3.7868786127    -1.0786947952
   28      H      -4.6321185864     0.2179285483    -0.5997890686
   29      H      -4.5983827367     2.6701941783    -0.1491461319
   30      H      -2.4057424683     3.8038714136     0.2637235662
   31      H       2.4170877983     3.7977823500     0.2587807746
   32      H       4.6062799759     2.6581118031    -0.1559011472
   33      H       4.6332686090     0.2050673160    -0.6028279736
   34      H       2.7556622814    -4.3752643315     0.5493319185
   35      H       1.5435890721    -3.8072213168    -0.6306851355
   36      H       3.2523330302    -3.7972074748    -1.0720793597
 ----------------------------------------------------------------

    9   -1144.8299656329      4.67e-06  Convergence criterion met
 Total energy in the final basis set =    -1144.8299656329
    5   -1144.8552098571      3.81e-06  Convergence criterion met
 Total energy in the final basis set =    -1144.8552098571

                    Orbital Energies (a.u.)
 --------------------------------------------------------------

 Alpha MOs
 -- Occupied --
-19.1891 -19.1891 -19.1368 -19.1368 -19.1366 -19.1364 -10.3268 -10.3268
-10.2955 -10.2891 -10.2687 -10.2686 -10.2214 -10.2214 -10.2159 -10.2159
-10.2035 -10.2035 -10.2028 -10.2027 -10.2000 -10.2000 -10.1812 -10.1812
 -1.1347  -1.1338  -1.0744  -1.0721  -1.0549  -1.0537  -0.9017  -0.8891
 -0.8217  -0.7983  -0.7967  -0.7807  -0.7554  -0.7523  -0.6999  -0.6808
 -0.6645  -0.6513  -0.6372  -0.5847  -0.5821  -0.5544  -0.5522  -0.5168
 -0.5130  -0.5107  -0.5106  -0.5058  -0.5036  -0.4968  -0.4867  -0.4816
 -0.4687  -0.4632  -0.4611  -0.4578  -0.4421  -0.4309  -0.4299  -0.4207
 -0.4164  -0.4147  -0.4101  -0.3982  -0.3948  -0.3915  -0.3877  -0.3840
 -0.3839  -0.3720  -0.3454  -0.3387  -0.3081  -0.3081  -0.2969  -0.2939
 -0.2831  -0.2800  -0.2774  -0.2727

          Ground-State Mulliken Net Atomic Charges

     Atom                 Charge (a.u.)
  ----------------------------------------
      1 C                    -0.474529
      2 C                     0.013222
      3 O                    -0.264618
      4 O                     0.023539
      5 C                    -0.294808
      6 C                     0.208602
      7 C                    -0.452925
      8 C                    -0.107538
      9 C                     0.428049
     10 C                    -0.619321
     11 O                    -0.287335
     12 C                     0.429600
     13 C                    -0.105115
     14 C                    -0.453772
     15 C                     0.208155
     16 C                    -0.293079
     17 O                     0.022724
     18 C                     0.013451
     19 C                    -0.474296
     20 O                    -0.264619
     21 C                     0.297136
     22 C                    -0.200003
     23 O                    -0.254101
     24 C                     0.296951
     25 H                     0.222007
     26 H                     0.186066
     27 H                     0.201331
     28 H                     0.239922
     29 H                     0.244936
     30 H                     0.207860
     31 H                     0.207915
     32 H                     0.244865
     33 H                     0.240134
     34 H                     0.186120
     35 H                     0.222072
     36 H                     0.201402
  ----------------------------------------
  Sum of atomic charges =     0.000000

                    Cartesian Multipole Moments
 -----------------------------------------------------------------
    Charge (ESU x 10^10)
                 0.0000
    Dipole Moment (Debye)
         X       0.0028      Y      -0.9278      Z      -5.7318
       Tot       5.8064
    Quadrupole Moments (Debye-Ang)
        XX    -103.2220     XY      -0.0506     YY    -126.1561
        XZ       0.0077     YZ       6.5635     ZZ    -150.1505

 Total job time:  125.66s(wall), 921.76s(cpu)
        *  Thank you very much for using Q-Chem.  Have a nice day.  *
