 Q-Chem 5.4, Q-Chem, Inc., Pleasanton, CA (2021)
 Q-Chem 5.4.0 for Intel X86 EM64T Linux

User input:
--------------------------------------------------------------
$molecule
-1 2
C                 -2.0186010000     -5.4460730000      0.9035170000
C                 -0.8315310000     -5.6215260000      0.1112840000
C                 -0.1168260000     -4.5714310000     -0.4177340000
C                 -0.6048410000     -3.1916730000     -0.2669770000
C                 -2.4855120000     -4.0590000000      1.0945840000
C                 -1.8161090000     -3.0188070000      0.4928510000
O                 -2.6793800000     -6.3902280000      1.4098910000
O                  0.0303580000     -2.2529890000     -0.8142430000
N                 -3.6835060000     -3.9906170000      1.8268330000
N                  1.0399500000     -4.6760330000     -1.2079000000
C                 -3.8521150000     -3.2051830000      3.0718380000
C                 -2.5618250000     -2.8179530000      3.8000740000
C                 -4.8046840000     -1.9990890000      2.9064200000
C                  2.2559900000     -5.3208150000     -0.6784080000
C                  3.2392380000     -4.3063900000     -0.0793820000
C                  2.9588140000     -6.1925440000     -1.7390780000
N                 -5.5572600000     -2.0285610000      1.7793950000
N                  2.2643640000     -6.3525470000     -2.8903470000
C                  2.6918780000     -7.2345770000     -3.9549340000
C                 -6.4250000000     -0.9339790000      1.3988930000
O                 -4.9237240000     -1.1524740000      3.7866700000
O                  4.0574780000     -6.6976650000     -1.5239650000
Cl                -0.3550030000     -7.2942430000     -0.2078780000
Cl                -2.4303360000     -1.3659080000      0.5826540000
H                 -3.9280480000     -4.9665310000      1.9957890000
H                  1.2407340000     -3.7220570000     -1.5147570000
H                 -4.4117630000     -3.8666540000      3.7456470000
H                 -2.8170020000     -2.2963820000      4.7232490000
H                 -1.9406930000     -2.1568490000      3.1964040000
H                 -1.9872180000     -3.7158510000      4.0389050000
H                  1.9590500000     -6.0221740000      0.1029790000
H                  2.7693030000     -3.7776870000      0.7525300000
H                  3.5363380000     -3.5654600000     -0.8285310000
H                  4.1373110000     -4.8160820000      0.2724130000
H                 -5.2391740000     -2.6945950000      1.0852480000
H                  1.3400280000     -5.9362350000     -2.8875250000
H                  3.7564690000     -7.4322900000     -3.8292990000
H                  2.5240850000     -6.7657260000     -4.9284610000
H                  2.1562480000     -8.1909400000     -3.9297600000
H                 -7.2853600000     -1.3150350000      0.8429680000
H                 -5.9022380000     -0.1967070000      0.7773650000
H                 -6.7727980000     -0.4346500000      2.3032380000
$end

$rem
BASIS  =  6-311++G(d,p)
GUI  =  2
JOB_TYPE  =  SP
METHOD  =  B3LYP
SCF_CONVERGENCE  = 8
SOLVENT_METHOD = sm12
$end

$smx
solvent dimethylformamide
charges CM5
$end

--------------------------------------------------------------

             Standard Nuclear Orientation (Angstroms)
    I     Atom           X                Y                Z
 ----------------------------------------------------------------
    1      C      -2.0186010000    -5.4460730000     0.9035170000
    2      C      -0.8315310000    -5.6215260000     0.1112840000
    3      C      -0.1168260000    -4.5714310000    -0.4177340000
    4      C      -0.6048410000    -3.1916730000    -0.2669770000
    5      C      -2.4855120000    -4.0590000000     1.0945840000
    6      C      -1.8161090000    -3.0188070000     0.4928510000
    7      O      -2.6793800000    -6.3902280000     1.4098910000
    8      O       0.0303580000    -2.2529890000    -0.8142430000
    9      N      -3.6835060000    -3.9906170000     1.8268330000
   10      N       1.0399500000    -4.6760330000    -1.2079000000
   11      C      -3.8521150000    -3.2051830000     3.0718380000
   12      C      -2.5618250000    -2.8179530000     3.8000740000
   13      C      -4.8046840000    -1.9990890000     2.9064200000
   14      C       2.2559900000    -5.3208150000    -0.6784080000
   15      C       3.2392380000    -4.3063900000    -0.0793820000
   16      C       2.9588140000    -6.1925440000    -1.7390780000
   17      N      -5.5572600000    -2.0285610000     1.7793950000
   18      N       2.2643640000    -6.3525470000    -2.8903470000
   19      C       2.6918780000    -7.2345770000    -3.9549340000
   20      C      -6.4250000000    -0.9339790000     1.3988930000
   21      O      -4.9237240000    -1.1524740000     3.7866700000
   22      O       4.0574780000    -6.6976650000    -1.5239650000
   23      Cl     -0.3550030000    -7.2942430000    -0.2078780000
   24      Cl     -2.4303360000    -1.3659080000     0.5826540000
   25      H      -3.9280480000    -4.9665310000     1.9957890000
   26      H       1.2407340000    -3.7220570000    -1.5147570000
   27      H      -4.4117630000    -3.8666540000     3.7456470000
   28      H      -2.8170020000    -2.2963820000     4.7232490000
   29      H      -1.9406930000    -2.1568490000     3.1964040000
   30      H      -1.9872180000    -3.7158510000     4.0389050000
   31      H       1.9590500000    -6.0221740000     0.1029790000
   32      H       2.7693030000    -3.7776870000     0.7525300000
   33      H       3.5363380000    -3.5654600000    -0.8285310000
   34      H       4.1373110000    -4.8160820000     0.2724130000
   35      H      -5.2391740000    -2.6945950000     1.0852480000
   36      H       1.3400280000    -5.9362350000    -2.8875250000
   37      H       3.7564690000    -7.4322900000    -3.8292990000
   38      H       2.5240850000    -6.7657260000    -4.9284610000
   39      H       2.1562480000    -8.1909400000    -3.9297600000
   40      H      -7.2853600000    -1.3150350000     0.8429680000
   41      H      -5.9022380000    -0.1967070000     0.7773650000
   42      H      -6.7727980000    -0.4346500000     2.3032380000
 ----------------------------------------------------------------

   17   -1985.0955340980      5.82e-09  Convergence criterion met
 Total energy in the final basis set =    -1985.1684900276

                    Orbital Energies (a.u.)
 --------------------------------------------------------------

 Alpha MOs
 -- Occupied --
********-101.5414 -19.0848 -19.0846 -19.0802 -19.0797 -14.3321 -14.3288
-14.3207 -14.3201 -10.2660 -10.2647 -10.2304 -10.2301 -10.2195 -10.2158
-10.2150 -10.2148 -10.2138 -10.2137 -10.1961 -10.1955 -10.1641 -10.1618
 -9.4566  -9.4561  -7.2209  -7.2204  -7.2118  -7.2113  -7.2111  -7.2105
 -1.0356  -1.0350  -1.0132  -1.0092  -0.9374  -0.9339  -0.9151  -0.9131
 -0.8626  -0.8517  -0.8000  -0.7747  -0.7541  -0.7115  -0.7109  -0.7005
 -0.6766  -0.6433  -0.6305  -0.5880  -0.5800  -0.5724  -0.5631  -0.5400
 -0.5163  -0.5158  -0.4976  -0.4854  -0.4827  -0.4671  -0.4544  -0.4478
 -0.4439  -0.4356  -0.4346  -0.4323  -0.4258  -0.4238  -0.4167  -0.4109
 -0.4040  -0.3993  -0.3895  -0.3888  -0.3883  -0.3873  -0.3834  -0.3745
 -0.3704  -0.3674  -0.3559  -0.3513  -0.3464  -0.3285  -0.3122  -0.3062
 -0.3041  -0.3016  -0.2639  -0.2585  -0.2561  -0.2554  -0.2528  -0.2471
 -0.2375  -0.2110  -0.1558

 Beta MOs
 -- Occupied --
********-101.5414 -19.0848 -19.0846 -19.0739 -19.0733 -14.3320 -14.3287
-14.3200 -14.3194 -10.2660 -10.2647 -10.2287 -10.2285 -10.2193 -10.2157
-10.2150 -10.2148 -10.2119 -10.2119 -10.1961 -10.1955 -10.1640 -10.1618
 -9.4566  -9.4561  -7.2209  -7.2204  -7.2118  -7.2112  -7.2111  -7.2105
 -1.0356  -1.0350  -1.0032  -0.9985  -0.9354  -0.9318  -0.9143  -0.9122
 -0.8611  -0.8510  -0.7967  -0.7732  -0.7530  -0.7114  -0.7108  -0.6992
 -0.6683  -0.6426  -0.6291  -0.5851  -0.5783  -0.5718  -0.5618  -0.5385
 -0.5150  -0.5149  -0.4954  -0.4840  -0.4817  -0.4662  -0.4537  -0.4475
 -0.4434  -0.4337  -0.4313  -0.4289  -0.4255  -0.4221  -0.4105  -0.4052
 -0.4023  -0.3974  -0.3884  -0.3882  -0.3869  -0.3863  -0.3735  -0.3702
 -0.3669  -0.3648  -0.3517  -0.3485  -0.3458  -0.3204  -0.3082  -0.3041
 -0.2970  -0.2946  -0.2584  -0.2579  -0.2529  -0.2516  -0.2501  -0.2412
 -0.2254  -0.2051

          Ground-State Mulliken Net Atomic Charges

     Atom                 Charge (a.u.)    Spin (a.u.)
  --------------------------------------------------------
      1 C                    -0.988634       0.104853
      2 C                    -0.090771      -0.018052
      3 C                    -0.407152       0.158891
      4 C                    -0.936658       0.098276
      5 C                    -0.482237       0.139843
      6 C                    -0.142083      -0.022510
      7 O                    -0.332006       0.232488
      8 O                    -0.328501       0.239310
      9 N                    -0.020146       0.027159
     10 N                     0.188482       0.024548
     11 C                     0.697767       0.007217
     12 C                    -0.597654      -0.001343
     13 C                    -0.562894      -0.001490
     14 C                     0.181834       0.010317
     15 C                    -0.424658      -0.001140
     16 C                    -0.277185      -0.003960
     17 N                    -0.109305      -0.000361
     18 N                    -0.210502      -0.001162
     19 C                    -0.027581      -0.000615
     20 C                    -0.090096      -0.000525
     21 O                    -0.428111       0.000094
     22 O                    -0.435295      -0.000097
     23 Cl                    0.630741       0.002558
     24 Cl                    0.677431       0.003770
     25 H                     0.281988      -0.002373
     26 H                     0.239097      -0.002534
     27 H                     0.251574       0.000357
     28 H                     0.198010      -0.000287
     29 H                    -0.004426       0.000853
     30 H                     0.143589       0.000431
     31 H                     0.056218       0.001861
     32 H                     0.155706      -0.000356
     33 H                     0.163456       0.000124
     34 H                     0.184228       0.000756
     35 H                     0.352146       0.001491
     36 H                     0.366363       0.001448
     37 H                     0.159085       0.000086
     38 H                     0.226076       0.000012
     39 H                     0.196008      -0.000046
     40 H                     0.227011       0.000048
     41 H                     0.169386      -0.000027
     42 H                     0.149704       0.000087
  --------------------------------------------------------
  Sum of atomic charges =    -1.000000

                    Cartesian Multipole Moments
 -----------------------------------------------------------------
    Charge (ESU x 10^10)
                -4.8032
    Dipole Moment (Debye)
         X       3.5136      Y      19.7195      Z      -5.0499
       Tot      20.6569
    Quadrupole Moments (Debye-Ang)
        XX    -203.9191     XY       3.2067     YY    -285.9176
        XZ      29.4627     YZ      12.4785     ZZ    -174.2231

 Total job time:  2091.71s(wall), 15885.58s(cpu)
        *  Thank you very much for using Q-Chem.  Have a nice day.  *
