 Q-Chem 5.4, Q-Chem, Inc., Pleasanton, CA (2021)
 Q-Chem 5.4.0 for Intel X86 EM64T Linux

User input:
--------------------------------------------------------------
$molecule
-1 2
C                 -3.5871940000      0.2012120000      0.8473840000
C                 -3.6160990000     -0.1759780000     -0.5063370000
C                 -2.4281910000     -0.3666060000     -1.2000850000
C                 -1.1685500000     -0.1900360000     -0.5761290000
N                 -0.0295620000     -0.3860500000     -1.2886960000
C                  1.1391700000     -0.1979310000     -0.6226150000
C                  2.3704590000     -0.3834040000     -1.2981420000
C                  3.5872560000     -0.2012950000     -0.6539060000
C                  3.6159830000      0.1759550000      0.7000250000
C                  2.4283400000      0.3665890000      1.3937850000
C                  1.1685020000      0.1900570000      0.7699710000
N                  0.0296740000      0.3861340000      1.4827610000
C                 -1.1393010000      0.1979840000      0.8165730000
C                 -2.3704240000      0.3834120000      1.4919430000
H                 -4.5164840000      0.3502990000      1.3897780000
H                 -4.5673680000     -0.3186390000     -1.0108280000
H                 -2.4270920000     -0.6579960000     -2.2458370000
H                  2.3235960000     -0.6745950000     -2.3428280000
H                  4.5166710000     -0.3502750000     -1.1959220000
H                  4.5674470000      0.3185750000      1.2043700000
H                  2.4271700000      0.6579900000      2.4395740000
H                 -2.3240050000      0.6745980000      2.5366130000
$end

$rem
BASIS  =  6-311++G(d,p)
GUI  =  2
JOB_TYPE  =  SP
METHOD  =  B3LYP
SCF_CONVERGENCE  = 8
SOLVENT_METHOD = sm12
$end

$smx
solvent dimethylformamide
charges CM5
$end

--------------------------------------------------------------

             Standard Nuclear Orientation (Angstroms)
    I     Atom           X                Y                Z
 ----------------------------------------------------------------
    1      C      -3.5871940000     0.2012120000     0.8473840000
    2      C      -3.6160990000    -0.1759780000    -0.5063370000
    3      C      -2.4281910000    -0.3666060000    -1.2000850000
    4      C      -1.1685500000    -0.1900360000    -0.5761290000
    5      N      -0.0295620000    -0.3860500000    -1.2886960000
    6      C       1.1391700000    -0.1979310000    -0.6226150000
    7      C       2.3704590000    -0.3834040000    -1.2981420000
    8      C       3.5872560000    -0.2012950000    -0.6539060000
    9      C       3.6159830000     0.1759550000     0.7000250000
   10      C       2.4283400000     0.3665890000     1.3937850000
   11      C       1.1685020000     0.1900570000     0.7699710000
   12      N       0.0296740000     0.3861340000     1.4827610000
   13      C      -1.1393010000     0.1979840000     0.8165730000
   14      C      -2.3704240000     0.3834120000     1.4919430000
   15      H      -4.5164840000     0.3502990000     1.3897780000
   16      H      -4.5673680000    -0.3186390000    -1.0108280000
   17      H      -2.4270920000    -0.6579960000    -2.2458370000
   18      H       2.3235960000    -0.6745950000    -2.3428280000
   19      H       4.5166710000    -0.3502750000    -1.1959220000
   20      H       4.5674470000     0.3185750000     1.2043700000
   21      H       2.4271700000     0.6579900000     2.4395740000
   22      H      -2.3240050000     0.6745980000     2.5366130000
 ----------------------------------------------------------------

   15    -571.7871991970      1.55e-09  Convergence criterion met
 Total energy in the final basis set =     -571.8848835000

                    Orbital Energies (a.u.)
 --------------------------------------------------------------

 Alpha MOs
 -- Occupied --
-14.3011 -14.3011 -10.2133 -10.2133 -10.2130 -10.2130 -10.1824 -10.1824
-10.1819 -10.1819 -10.1775 -10.1775 -10.1775 -10.1775  -0.9648  -0.8991
 -0.8636  -0.8346  -0.7638  -0.7558  -0.7342  -0.6862  -0.6384  -0.6117
 -0.5995  -0.5636  -0.5490  -0.4981  -0.4874  -0.4778  -0.4656  -0.4409
 -0.4391  -0.4317  -0.4290  -0.3911  -0.3786  -0.3779  -0.3600  -0.3581
 -0.3548  -0.3309  -0.3065  -0.2713  -0.2637  -0.2507  -0.2318  -0.1480

 Beta MOs
 -- Occupied --
-14.2950 -14.2950 -10.2136 -10.2135 -10.2132 -10.2132 -10.1817 -10.1817
-10.1812 -10.1812 -10.1764 -10.1764 -10.1764 -10.1764  -0.9578  -0.8888
 -0.8609  -0.8309  -0.7611  -0.7534  -0.7309  -0.6802  -0.6373  -0.6085
 -0.5972  -0.5609  -0.5471  -0.4963  -0.4851  -0.4767  -0.4645  -0.4379
 -0.4306  -0.4290  -0.4275  -0.3902  -0.3762  -0.3715  -0.3591  -0.3564
 -0.3330  -0.3189  -0.2990  -0.2639  -0.2554  -0.2449  -0.2143

          Ground-State Mulliken Net Atomic Charges

     Atom                 Charge (a.u.)    Spin (a.u.)
  --------------------------------------------------------
      1 C                     1.159495       0.062567
      2 C                     1.161931       0.061838
      3 C                     1.055282       0.047558
      4 C                    -2.961562       0.009506
      5 N                    -0.249885       0.282292
      6 C                    -2.957409       0.010529
      7 C                     1.054113       0.046712
      8 C                     1.159760       0.062587
      9 C                     1.162539       0.061948
     10 C                     1.053680       0.047334
     11 C                    -2.961775       0.009612
     12 N                    -0.250039       0.282372
     13 C                    -2.957436       0.010447
     14 C                     1.054551       0.046723
     15 H                     0.396540      -0.003851
     16 H                     0.396511      -0.003789
     17 H                     0.222781      -0.006708
     18 H                     0.222461      -0.006665
     19 H                     0.396649      -0.003853
     20 H                     0.396473      -0.003795
     21 H                     0.222735      -0.006700
     22 H                     0.222605      -0.006663
  --------------------------------------------------------
  Sum of atomic charges =    -1.000000

                    Cartesian Multipole Moments
 -----------------------------------------------------------------
    Charge (ESU x 10^10)
                -4.8032
    Dipole Moment (Debye)
         X      -0.0008      Y      -0.0002      Z      -0.4662
       Tot       0.4662
    Quadrupole Moments (Debye-Ang)
        XX     -94.0383     XY      -0.0106     YY     -92.0189
        XZ      -0.0266     YZ      -0.9992     ZZ     -95.3168

 Total job time:  315.37s(wall), 2400.50s(cpu)
        *  Thank you very much for using Q-Chem.  Have a nice day.  *
