 Gaussian 16, Revision A.03,
 Gaussian 16:  ES64L-G16RevA.03 25-Dec-2016

 ----------------------------------------------
 #P UB3LYP/6-311++G(d,p) nosym opt freq SCF=YQC
 ----------------------------------------------

 -------
 Reduced
 -------
 Symbolic Z-matrix:
 Charge = -2 Multiplicity = 1

 SCF Done:  E(UB3LYP) =  -751.476029158     a.u. after   17 cycles
 SCF Done:  E(UB3LYP) =  -751.487856732     A.U. after   33 cycles
 SCF Done:  E(UB3LYP) =  -751.487856732     a.u. after    1 cycles
 SCF Done:  E(UB3LYP) =  -751.503291836     a.u. after   82 cycles
 SCF Done:  E(UB3LYP) =  -751.503871856     A.U. after   33 cycles
 SCF Done:  E(UB3LYP) =  -751.503871856     a.u. after    1 cycles
 SCF Done:  E(UB3LYP) =  -751.507190874     a.u. after   51 cycles
 SCF Done:  E(UB3LYP) =  -751.507781252     A.U. after   31 cycles
 SCF Done:  E(UB3LYP) =  -751.507337380     a.u. after   89 cycles
 SCF Done:  E(UB3LYP) =  -751.507490807     A.U. after   25 cycles
 SCF Done:  E(UB3LYP) =  -751.510466237     a.u. after    1 cycles
 SCF Done:  E(UB3LYP) =  -751.510498562     A.U. after   25 cycles
 SCF Done:  E(UB3LYP) =  -751.510496331     a.u. after    1 cycles
 SCF Done:  E(UB3LYP) =  -751.510498829     A.U. after   27 cycles
 SCF Done:  E(UB3LYP) =  -751.510496087     a.u. after    1 cycles
 SCF Done:  E(UB3LYP) =  -751.510498864     A.U. after   25 cycles
 SCF Done:  E(UB3LYP) =  -751.510497866     a.u. after    1 cycles
 SCF Done:  E(UB3LYP) =  -751.510498874     A.U. after   27 cycles
 Optimization completed.
    -- Stationary point found.
 Normal termination of Gaussian 16 at Fri Dec 22 05:44:57 2023.

 ----------------------------------------------------------------------
 #P Geom=AllCheck Guess=TCheck SCRF=Check GenChk UB3LYP/6-311++G(d,p) F
 req
 ----------------------------------------------------------------------

 Structure from the checkpoint file:  "105-an.chk"
 -------
 Reduced
 -------
 Charge = -2 Multiplicity = 1

                          Input orientation:
 ---------------------------------------------------------------------
 Center     Atomic      Atomic             Coordinates (Angstroms)
 Number     Number       Type             X           Y           Z
 ---------------------------------------------------------------------
      1          6           0       -1.101851   -1.522313    3.568168
      2          6           0        0.231599   -1.763440    3.133126
      3          6           0        0.724599   -1.470394    1.853470
      4          6           0       -0.159081   -0.897186    0.856324
      5          6           0       -1.505041   -0.662199    1.294021
      6          6           0       -1.966696   -0.932829    2.576818
      7          8           0       -1.543093   -1.803394    4.762010
      8          8           0        0.211432   -0.627762   -0.359427
      9          7           0       -3.321344   -0.726416    3.004671
     10          6           0       -3.829277    0.661881    3.203422
     11          6           0       -5.112715    0.533781    4.042981
     12          6           0       -4.183191    1.308664    1.854082
     13          6           0       -2.819486    1.557974    3.955275
     14          6           0        2.188565   -1.758984    1.467485
     15          6           0        3.017675   -2.352966    2.622810
     16          6           0        2.227290   -2.768411    0.292189
     17          6           0        2.878594   -0.445206    1.021032
     18          1           0        0.882535   -2.192692    3.889570
     19          1           0       -2.185930   -0.289851    0.533958
     20          1           0       -3.320652   -1.172610    3.927668
     21          1           0       -4.891984    0.091115    5.020359
     22          1           0       -5.837555   -0.109104    3.532559
     23          1           0       -5.577463    1.512165    4.213673
     24          1           0       -4.873889    0.666332    1.298238
     25          1           0       -3.288515    1.452647    1.245853
     26          1           0       -4.657350    2.286645    2.007431
     27          1           0       -2.548684    1.099170    4.910502
     28          1           0       -3.240023    2.555453    4.143125
     29          1           0       -1.903335    1.667281    3.369279
     30          1           0        3.055988   -1.676289    3.482394
     31          1           0        4.047262   -2.529301    2.282036
     32          1           0        2.606669   -3.307102    2.967440
     33          1           0        1.804188   -3.729195    0.607702
     34          1           0        3.261881   -2.942492   -0.045232
     35          1           0        1.632306   -2.372659   -0.533628
     36          1           0        2.923746    0.259599    1.859230
     37          1           0        2.298464    0.002671    0.211650
     38          1           0        3.908023   -0.637373    0.677754
 ---------------------------------------------------------------------

 SCF Done:  E(UB3LYP) =  -751.510498874     a.u. after    1 cycles
 SCF Done:  E(UB3LYP) =  -751.510498874     A.U. after    2 cycles

 Alpha  occ. eigenvalues --  -18.77990 -18.77507 -14.05086  -9.98952  -9.95631
 Alpha  occ. eigenvalues --   -9.95251  -9.94662  -9.94368  -9.93538  -9.93435
 Alpha  occ. eigenvalues --   -9.92994  -9.92953  -9.92829  -9.91821  -9.89835
 Alpha  occ. eigenvalues --   -9.88692  -9.88161  -0.69673  -0.68681  -0.66005
 Alpha  occ. eigenvalues --   -0.59046  -0.56267  -0.52305  -0.47979  -0.46920
 Alpha  occ. eigenvalues --   -0.46742  -0.45735  -0.45068  -0.40438  -0.35668
 Alpha  occ. eigenvalues --   -0.32023  -0.30892  -0.27921  -0.25085  -0.23661
 Alpha  occ. eigenvalues --   -0.22989  -0.22238  -0.21733  -0.21651  -0.19764
 Alpha  occ. eigenvalues --   -0.18782  -0.17995  -0.17538  -0.17182  -0.16857
 Alpha  occ. eigenvalues --   -0.15455  -0.14758  -0.14463  -0.14440  -0.12945
 Alpha  occ. eigenvalues --   -0.12343  -0.11259  -0.11137  -0.10888  -0.10067
 Alpha  occ. eigenvalues --   -0.09893  -0.08089  -0.07580  -0.06273  -0.02180
 Alpha  occ. eigenvalues --    0.02083   0.04154   0.04806   0.05041   0.13016
 Alpha virt. eigenvalues --    0.14583   0.15181   0.16787   0.17497   0.17536
 Alpha virt. eigenvalues --    0.17772   0.18439   0.19128   0.20181   0.20553
 Alpha virt. eigenvalues --    0.20634   0.20814   0.21400   0.21884   0.22930

  Beta  occ. eigenvalues --  -18.77990 -18.77507 -14.05086  -9.98952  -9.95631
  Beta  occ. eigenvalues --   -9.95251  -9.94662  -9.94368  -9.93538  -9.93435
  Beta  occ. eigenvalues --   -9.92994  -9.92953  -9.92829  -9.91821  -9.89835
  Beta  occ. eigenvalues --   -9.88692  -9.88161  -0.69673  -0.68681  -0.66005
  Beta  occ. eigenvalues --   -0.59046  -0.56267  -0.52305  -0.47979  -0.46920
  Beta  occ. eigenvalues --   -0.46742  -0.45735  -0.45068  -0.40438  -0.35668
  Beta  occ. eigenvalues --   -0.32023  -0.30892  -0.27921  -0.25085  -0.23661
  Beta  occ. eigenvalues --   -0.22989  -0.22238  -0.21733  -0.21651  -0.19764
  Beta  occ. eigenvalues --   -0.18782  -0.17995  -0.17538  -0.17182  -0.16857
  Beta  occ. eigenvalues --   -0.15455  -0.14758  -0.14463  -0.14440  -0.12945
  Beta  occ. eigenvalues --   -0.12343  -0.11259  -0.11137  -0.10888  -0.10067
  Beta  occ. eigenvalues --   -0.09893  -0.08089  -0.07580  -0.06273  -0.02180
  Beta  occ. eigenvalues --    0.02083   0.04154   0.04806   0.05041   0.13016
  Beta virt. eigenvalues --    0.14583   0.15181   0.16787   0.17497   0.17536
  Beta virt. eigenvalues --    0.17772   0.18439   0.19128   0.20181   0.20553
  Beta virt. eigenvalues --    0.20634   0.20814   0.21400   0.21884   0.22930

 Mulliken charges and spin densities:
               1          2
     1  C   -0.910660  -0.000000
     2  C   -0.311914  -0.000000
     3  C    1.206024   0.000000
     4  C   -0.955985   0.000000
     5  C    0.094781   0.000000
     6  C    0.283630  -0.000000
     7  O   -0.537339  -0.000000
     8  O   -0.503284   0.000000
     9  N    0.168483  -0.000000
    10  C   -0.538745   0.000000
    11  C    0.124432  -0.000000
    12  C   -0.143261  -0.000000
    13  C   -0.027757  -0.000000
    14  C    0.696920  -0.000000
    15  C   -0.598759   0.000000
    16  C   -0.717047   0.000000
    17  C   -0.680937  -0.000000
    18  H    0.108240   0.000000
    19  H    0.117912   0.000000
    20  H    0.254219   0.000000
    21  H    0.014524   0.000000
    22  H    0.055759   0.000000
    23  H   -0.412890   0.000000
    24  H    0.131712  -0.000000
    25  H    0.066838   0.000000
    26  H   -0.132480   0.000000
    27  H    0.113085  -0.000000
    28  H   -0.135157   0.000000
    29  H    0.127426  -0.000000
    30  H    0.112689  -0.000000
    31  H    0.110979  -0.000000
    32  H    0.109258  -0.000000
    33  H    0.087573   0.000000
    34  H    0.063694   0.000000
    35  H    0.203399   0.000000
    36  H    0.083221   0.000000
    37  H    0.212942  -0.000000
    38  H    0.058476   0.000000
 Sum of Mulliken charges =  -2.00000   0.00000

 Dipole moment (field-independent basis, Debye):
    X=             12.4390    Y=              5.9832    Z=            -23.1661  Tot=             26.9665
 Quadrupole moment (field-independent basis, Debye-Ang):
   XX=           -206.5074   YY=           -155.2585   ZZ=           -227.5843
   XY=             20.6620   XZ=             59.1964   YZ=             12.8878

  Exact polarizability:1406.475-424.521 880.178-337.345  88.591 654.825
 Approx polarizability:3687.379********2341.643******** 780.239 956.004

                      1                      2                      3
                      A                      A                      A
 Frequencies --     27.4801                41.1913                65.8603
 Red. masses --      3.1071                 3.5884                 3.2021
 Frc consts  --      0.0014                 0.0036                 0.0082
 IR Inten    --      2.3135                 2.9382                 1.0903

                      4                      5                      6
                      A                      A                      A
 Frequencies --     77.7661               106.9439               175.4549
 Red. masses --      4.0906                 4.3712                 5.4826
 Frc consts  --      0.0146                 0.0295                 0.0994
 IR Inten    --      4.7740                 3.3891                 5.6247

                      7                      8                      9
                      A                      A                      A
 Frequencies --    189.6917               203.3234               234.7254
 Red. masses --      1.5674                 1.6440                 2.6420
 Frc consts  --      0.0332                 0.0400                 0.0858
 IR Inten    --      3.0866                 4.4871                19.7391

                     10                     11                     12
                      A                      A                      A
 Frequencies --    245.3414               252.3306               260.4150
 Red. masses --      2.0784                 1.0464                 1.7304
 Frc consts  --      0.0737                 0.0393                 0.0691
 IR Inten    --     24.3296                 1.1705                 4.0837

                     13                     14                     15
                      A                      A                      A
 Frequencies --    264.0428               279.5275               291.2430
 Red. masses --      2.1243                 1.3112                 1.2847
 Frc consts  --      0.0873                 0.0604                 0.0642
 IR Inten    --      0.8661                18.7021                 1.8737

                     16                     17                     18
                      A                      A                      A
 Frequencies --    299.1903               302.4164               316.9527
 Red. masses --      1.9845                 3.4122                 1.0542
 Frc consts  --      0.1047                 0.1839                 0.0624
 IR Inten    --     13.6785                 2.7601                 0.0135

                     19                     20                     21
                      A                      A                      A
 Frequencies --    328.6035               356.0356               374.3694
 Red. masses --      3.4418                 2.5385                 2.8591
 Frc consts  --      0.2190                 0.1896                 0.2361
 IR Inten    --     19.4391                 4.3629                15.9866

                     22                     23                     24
                      A                      A                      A
 Frequencies --    384.5722               412.1488               425.9706
 Red. masses --      2.4777                 2.6489                 2.8400
 Frc consts  --      0.2159                 0.2651                 0.3036
 IR Inten    --      4.5744                 1.5505                13.0192

                     25                     26                     27
                      A                      A                      A
 Frequencies --    438.7737               449.3829               468.2348
 Red. masses --      3.7449                 3.1706                 3.5829
 Frc consts  --      0.4248                 0.3772                 0.4628
 IR Inten    --    136.9553               222.5648               321.3684

                     28                     29                     30
                      A                      A                      A
 Frequencies --    488.9915               502.4257               560.7211
 Red. masses --      3.1515                 4.1220                 3.5933
 Frc consts  --      0.4440                 0.6131                 0.6656
 IR Inten    --    130.2534                56.0553                35.0360

                     31                     32                     33
                      A                      A                      A
 Frequencies --    646.5901               657.0195               701.1285
 Red. masses --      4.2307                 5.0933                 4.8684
 Frc consts  --      1.0421                 1.2954                 1.4100
 IR Inten    --     66.5521                18.2652                 6.7509

                     34                     35                     36
                      A                      A                      A
 Frequencies --    734.2703               761.0892               766.8712
 Red. masses --      2.8701                 3.7568                 4.8460
 Frc consts  --      0.9117                 1.2821                 1.6791
 IR Inten    --      1.5422                21.7118                27.0004

                     37                     38                     39
                      A                      A                      A
 Frequencies --    808.3719               834.7622               845.3483
 Red. masses --      3.3959                 2.0075                 2.1821
 Frc consts  --      1.3075                 0.8242                 0.9187
 IR Inten    --     11.1814                 1.5530                 0.6890

                     40                     41                     42
                      A                      A                      A
 Frequencies --    851.6783               897.0073               907.6511
 Red. masses --      1.8413                 2.2613                 1.9824
 Frc consts  --      0.7869                 1.0720                 0.9622
 IR Inten    --     36.2161                32.1422                59.5530

                     43                     44                     45
                      A                      A                      A
 Frequencies --    911.3873               914.8386               926.3506
 Red. masses --      1.8152                 1.8108                 1.7586
 Frc consts  --      0.8884                 0.8929                 0.8891
 IR Inten    --      1.7534                32.1417                24.3275

                     46                     47                     48
                      A                      A                      A
 Frequencies --    951.1928               954.6092               983.6257
 Red. masses --      1.2109                 1.2011                 1.3455
 Frc consts  --      0.6455                 0.6449                 0.7670
 IR Inten    --      0.1750                 2.1565                94.9592

                     49                     50                     51
                      A                      A                      A
 Frequencies --   1031.8164              1041.4201              1044.1285
 Red. masses --      1.6625                 1.4679                 1.3838
 Frc consts  --      1.0428                 0.9380                 0.8888
 IR Inten    --    257.2060                10.1223                 4.0408

                     52                     53                     54
                      A                      A                      A
 Frequencies --   1047.8447              1061.2401              1150.2468
 Red. masses --      1.6636                 1.7325                 4.3691
 Frc consts  --      1.0762                 1.1496                 3.4058
 IR Inten    --     93.2434                89.1991               111.9515

                     55                     56                     57
                      A                      A                      A
 Frequencies --   1183.7047              1204.7861              1206.9337
 Red. masses --      6.3067                 2.5866                 2.3408
 Frc consts  --      5.2065                 2.2120                 2.0090
 IR Inten    --     20.7269                21.1589               515.3517

                     58                     59                     60
                      A                      A                      A
 Frequencies --   1211.6820              1221.1021              1235.4697
 Red. masses --      2.2301                 2.0461                 2.7601
 Frc consts  --      1.9291                 1.7975                 2.4823
 IR Inten    --     23.5006                92.6938               256.9541

                     61                     62                     63
                      A                      A                      A
 Frequencies --   1247.1983              1255.4515              1287.0536
 Red. masses --      1.8784                 2.2550                 3.1687
 Frc consts  --      1.7215                 2.0941                 3.0927
 IR Inten    --    846.7047               130.4785               192.0046

                     64                     65                     66
                      A                      A                      A
 Frequencies --   1337.5772              1350.5510              1364.5510
 Red. masses --      3.6250                 1.2134                 1.4290
 Frc consts  --      3.8212                 1.3039                 1.5677
 IR Inten    --   2655.7386                17.4346               118.2693

                     67                     68                     69
                      A                      A                      A
 Frequencies --   1370.2472              1376.0111              1387.0614
 Red. masses --      1.3147                 1.2410                 1.3613
 Frc consts  --      1.4544                 1.3844                 1.5430
 IR Inten    --    340.7291                38.3240               198.9595

                     70                     71                     72
                      A                      A                      A
 Frequencies --   1403.6661              1428.5008              1436.5156
 Red. masses --      1.2524                 4.2683                 3.9745
 Frc consts  --      1.4538                 5.1317                 4.8323
 IR Inten    --     58.1645               760.6851               130.0410

                     73                     74                     75
                      A                      A                      A
 Frequencies --   1457.5393              1460.2751              1468.8079
 Red. masses --      1.0474                 1.0569                 1.7678
 Frc consts  --      1.3110                 1.3279                 2.2470
 IR Inten    --      1.9961                 5.4720               220.9091

                     76                     77                     78
                      A                      A                      A
 Frequencies --   1476.7238              1484.2339              1484.9574
 Red. masses --      1.0992                 1.0838                 1.0483
 Frc consts  --      1.4123                 1.4067                 1.3619
 IR Inten    --    143.2800                47.2501                 1.0396

                     79                     80                     81
                      A                      A                      A
 Frequencies --   1486.7315              1489.8678              1493.0347
 Red. masses --      1.0846                 1.2906                 1.0535
 Frc consts  --      1.4125                 1.6879                 1.3836
 IR Inten    --    115.8673               134.9047                 0.3432

                     82                     83                     84
                      A                      A                      A
 Frequencies --   1495.0741              1509.3042              1515.3683
 Red. masses --      1.1656                 1.0538                 1.0576
 Frc consts  --      1.5351                 1.4144                 1.4309
 IR Inten    --     69.1021                 0.7450                80.7589

                     85                     86                     87
                      A                      A                      A
 Frequencies --   1527.1680              1565.8796              1600.2952
 Red. masses --      1.0594                 1.5546                 3.8945
 Frc consts  --      1.4558                 2.2459                 5.8763
 IR Inten    --      5.5096               250.1852              2263.3656

                     88                     89                     90
                      A                      A                      A
 Frequencies --   2935.8198              2949.0808              2980.4840
 Red. masses --      1.0531                 1.0504                 1.0456
 Frc consts  --      5.3477                 5.3827                 5.4726
 IR Inten    --    122.7796              1158.3043                41.9818

                     91                     92                     93
                      A                      A                      A
 Frequencies --   2983.7910              2989.3152              2997.1938
 Red. masses --      1.0434                 1.0383                 1.0405
 Frc consts  --      5.4730                 5.4666                 5.5070
 IR Inten    --    520.1989                 4.5133                67.4213

                     94                     95                     96
                      A                      A                      A
 Frequencies --   3023.4159              3029.2319              3043.7380
 Red. masses --      1.0814                 1.0839                 1.0890
 Frc consts  --      5.8243                 5.8602                 5.9439
 IR Inten    --     23.8377                27.5452               132.2558

                     97                     98                     99
                      A                      A                      A
 Frequencies --   3052.0306              3056.4124              3063.6933
 Red. masses --      1.0984                 1.0954                 1.0901
 Frc consts  --      6.0283                 6.0293                 6.0284
 IR Inten    --     13.0162                36.7263                43.6521

                    100                    101                    102
                      A                      A                      A
 Frequencies --   3066.7721              3069.2179              3087.8269
 Red. masses --      1.1005                 1.1010                 1.0996
 Frc consts  --      6.0983                 6.1106                 6.1771
 IR Inten    --      9.4172                57.1635                 9.1291

                    103                    104                    105
                      A                      A                      A
 Frequencies --   3091.5686              3092.2616              3101.0363
 Red. masses --      1.0990                 1.1020                 1.0978
 Frc consts  --      6.1888                 6.2085                 6.2199
 IR Inten    --     55.5283                 0.7982                24.4144

                    106                    107                    108
                      A                      A                      A
 Frequencies --   3137.8569              3142.6693              3365.5304
 Red. masses --      1.0854                 1.0875                 1.0716
 Frc consts  --      6.2967                 6.3281                 7.1515
 IR Inten    --    108.2666               109.9615                97.7936

 - Thermochemistry -
 -------------------
 Temperature   298.150 Kelvin.  Pressure   1.00000 Atm.
 Atom     1 has atomic number  6 and mass  12.00000

 Molecular mass:   235.15723 amu.
 Principal axes and moments of inertia in atomic units:
                           1         2         3
     Eigenvalues --  1842.742657131.358998037.37608
           X            0.88885   0.15331   0.43178
           Y           -0.33122  -0.43616   0.83670
           Z           -0.31660   0.88671   0.33690
 This molecule is an asymmetric top.
 Rotational symmetry number  1.
 Warning -- assumption of classical behavior for rotation
           may cause significant error
 Rotational temperatures (Kelvin)      0.04700     0.01215     0.01078
 Rotational constants (GHZ):           0.97938     0.25307     0.22454
 Zero-point vibrational energy     840597.3 (Joules/Mol)
                                  200.90756 (Kcal/Mol)
 Warning -- explicit consideration of  30 degrees of freedom as
           vibrations may cause significant error
 Vibrational temperatures:     39.54    59.27    94.76   111.89   153.87
          (Kelvin)            252.44   272.92   292.54   337.72   352.99
                              363.05   374.68   379.90   402.18   419.03
                              430.47   435.11   456.02   472.79   512.26
                              538.63   553.31   592.99   612.88   631.30
                              646.56   673.69   703.55   722.88   806.75
                              930.30   945.30  1008.77  1056.45  1095.04
                             1103.36  1163.07  1201.04  1216.27  1225.38
                             1290.59  1305.91  1311.28  1316.25  1332.81
                             1368.55  1373.47  1415.22  1484.55  1498.37
                             1502.27  1507.61  1526.89  1654.95  1703.09
                             1733.42  1736.51  1743.34  1756.89  1777.57
                             1794.44  1806.31  1851.78  1924.48  1943.14
                             1963.28  1971.48  1979.77  1995.67  2019.56
                             2055.29  2066.83  2097.07  2101.01  2113.29
                             2124.68  2135.48  2136.52  2139.07  2143.59
                             2148.14  2151.08  2171.55  2180.28  2197.25
                             2252.95  2302.47  4223.99  4243.07  4288.25
                             4293.01  4300.96  4312.29  4350.02  4358.39
                             4379.26  4391.19  4397.50  4407.97  4412.40
                             4415.92  4442.69  4448.08  4449.07  4461.70
                             4514.68  4521.60  4842.25

 Zero-point correction=                           0.320167 (Hartree/Particle)
 Thermal correction to Energy=                    0.338493
 Thermal correction to Enthalpy=                  0.339437
 Thermal correction to Gibbs Free Energy=         0.274981
 Sum of electronic and zero-point Energies=           -751.190332
 Sum of electronic and thermal Energies=              -751.172006
 Sum of electronic and thermal Enthalpies=            -751.171062
 Sum of electronic and thermal Free Energies=         -751.235518

                     E (Thermal)             CV                S
                      KCal/Mol        Cal/Mol-Kelvin    Cal/Mol-Kelvin
 Total                  212.408             71.979            135.660
 Electronic               0.000              0.000              0.000
 Translational            0.889              2.981             42.267
 Rotational               0.889              2.981             33.024
 Vibrational            210.630             66.017             60.370
 Vibration     1          0.593              1.984              6.003
 Vibration     2          0.594              1.981              5.201
 Vibration     3          0.597              1.971              4.273
 Vibration     4          0.599              1.964              3.946
 Vibration     5          0.606              1.944              3.324
 Vibration     6          0.627              1.873              2.376
 Vibration     7          0.633              1.854              2.231
 Vibration     8          0.639              1.835              2.103
 Vibration     9          0.655              1.788              1.843
 Vibration    10          0.660              1.770              1.764
 Vibration    11          0.664              1.759              1.714
 Vibration    12          0.668              1.745              1.659
 Vibration    13          0.671              1.739              1.635
 Vibration    14          0.680              1.711              1.537
 Vibration    15          0.687              1.690              1.467
 Vibration    16          0.692              1.675              1.421
 Vibration    17          0.694              1.669              1.403
 Vibration    18          0.704              1.641              1.326
 Vibration    19          0.712              1.618              1.267
 Vibration    20          0.732              1.563              1.139
 Vibration    21          0.745              1.525              1.062
 Vibration    22          0.754              1.503              1.021
 Vibration    23          0.776              1.444              0.919
 Vibration    24          0.788              1.414              0.872
 Vibration    25          0.799              1.386              0.830
 Vibration    26          0.808              1.362              0.798
 Vibration    27          0.825              1.321              0.743
 Vibration    28          0.845              1.274              0.686
 Vibration    29          0.858              1.245              0.652
 Vibration    30          0.916              1.116              0.522

 Optimization completed.
    -- Stationary point found.
 Normal termination of Gaussian 16 at Fri Dec 22 07:05:34 2023.
