 Gaussian 16, Revision A.03,
 Gaussian 16:  ES64L-G16RevA.03 25-Dec-2016

 ----------------------------------------------------------------
 #P UB3LYP/6-311++G(d,p) SCRF=(PCM,Solvent=n,n-DiMethylFormamide)
 ----------------------------------------------------------------

 ------------------
 Quinone PCM in DMF
 ------------------
 Symbolic Z-matrix:
 Charge =  0 Multiplicity = 1

                         Standard orientation:
 ---------------------------------------------------------------------
 Center     Atomic      Atomic             Coordinates (Angstroms)
 Number     Number       Type             X           Y           Z
 ---------------------------------------------------------------------
      1          6           0        2.865975    0.528708    0.000200
      2          6           0        3.575524   -0.663290    0.000130
      3          6           0        1.466425    0.520193    0.000081
      4          6           0        0.740119   -0.689534   -0.000108
      5          6           0        2.875379   -1.874040   -0.000112
      6          6           0        1.489426   -1.878682   -0.000262
      7          6           0        0.776170    1.832998   -0.000010
      8          6           0       -0.776185    1.832999   -0.000161
      9          6           0       -1.466435    0.520199    0.000004
     10          6           0       -0.740102   -0.689534   -0.000116
     11          6           0       -2.865985    0.528715    0.000126
     12          6           0       -3.575533   -0.663277    0.000119
     13          6           0       -2.875364   -1.874025   -0.000079
     14          6           0       -1.489412   -1.878660   -0.000176
     15          8           0        1.365385    2.891457   -0.000056
     16          8           0       -1.365386    2.891466   -0.000251
     17          8           0       -4.938254   -0.725272    0.000299
     18          8           0        4.938253   -0.725234    0.000236
     19          1           0        3.370405    1.489562    0.000259
     20          1           0        3.432828   -2.802970   -0.000186
     21          1           0        0.991098   -2.838614   -0.000487
     22          1           0       -3.370373    1.489587    0.000201
     23          1           0       -3.432801   -2.802964   -0.000085
     24          1           0       -0.991083   -2.838590   -0.000270
     25          1           0       -5.309077    0.163982    0.000552
     26          1           0        5.309025    0.164042    0.000388
 ---------------------------------------------------------------------

 SCF Done:  E(UB3LYP) =  -839.450798743     A.U. after   14 cycles

 The electronic state is 1-A.
 Alpha  occ. eigenvalues --  -19.17212 -19.17212 -19.14525 -19.14524 -10.28703
 Alpha  occ. eigenvalues --  -10.28684 -10.25854 -10.25853 -10.21461 -10.21431
 Alpha  occ. eigenvalues --  -10.20870 -10.20869 -10.19939 -10.19939 -10.19856
 Alpha  occ. eigenvalues --  -10.19855 -10.19817 -10.19817  -1.09148  -1.08397
 Alpha  occ. eigenvalues --   -1.08393  -1.06453  -0.90261  -0.87483  -0.81098
 Alpha  occ. eigenvalues --   -0.79253  -0.78087  -0.74502  -0.71610  -0.66467
 Alpha  occ. eigenvalues --   -0.65211  -0.62432  -0.62206  -0.58554  -0.57074
 Alpha  occ. eigenvalues --   -0.54134  -0.52353  -0.51113  -0.49667  -0.48795
 Alpha  occ. eigenvalues --   -0.46870  -0.46636  -0.46161  -0.46111  -0.45211
 Alpha  occ. eigenvalues --   -0.43569  -0.43215  -0.43164  -0.42077  -0.40252
 Alpha  occ. eigenvalues --   -0.40144  -0.38652  -0.38424  -0.38244  -0.36389
 Alpha  occ. eigenvalues --   -0.34668  -0.31869  -0.28715  -0.28035  -0.27973
 Alpha  occ. eigenvalues --   -0.27037  -0.22793
 Alpha virt. eigenvalues --   -0.13131  -0.05327  -0.05167  -0.01169  -0.00853
 Alpha virt. eigenvalues --   -0.00393   0.00420   0.01032   0.01468   0.02067
 Alpha virt. eigenvalues --    0.03432   0.03646   0.04309   0.04457   0.05589

  Beta  occ. eigenvalues --  -19.17212 -19.17212 -19.14525 -19.14524 -10.28703
  Beta  occ. eigenvalues --  -10.28684 -10.25854 -10.25853 -10.21461 -10.21431
  Beta  occ. eigenvalues --  -10.20870 -10.20869 -10.19939 -10.19939 -10.19856
  Beta  occ. eigenvalues --  -10.19855 -10.19817 -10.19817  -1.09148  -1.08397
  Beta  occ. eigenvalues --   -1.08393  -1.06453  -0.90261  -0.87483  -0.81098
  Beta  occ. eigenvalues --   -0.79253  -0.78087  -0.74502  -0.71610  -0.66467
  Beta  occ. eigenvalues --   -0.65211  -0.62432  -0.62206  -0.58554  -0.57074
  Beta  occ. eigenvalues --   -0.54134  -0.52353  -0.51113  -0.49667  -0.48795
  Beta  occ. eigenvalues --   -0.46870  -0.46636  -0.46161  -0.46111  -0.45211
  Beta  occ. eigenvalues --   -0.43569  -0.43215  -0.43164  -0.42077  -0.40252
  Beta  occ. eigenvalues --   -0.40144  -0.38652  -0.38424  -0.38244  -0.36389
  Beta  occ. eigenvalues --   -0.34668  -0.31869  -0.28715  -0.28035  -0.27973
  Beta  occ. eigenvalues --   -0.27037  -0.22793
  Beta virt. eigenvalues --   -0.13131  -0.05327  -0.05167  -0.01169  -0.00853
  Beta virt. eigenvalues --   -0.00393   0.00420   0.01032   0.01468   0.02067
  Beta virt. eigenvalues --    0.03432   0.03646   0.04309   0.04457   0.05589

 Mulliken charges and spin densities:
               1          2
     1  C    0.252803   0.000000
     2  C   -0.507051  -0.000000
     3  C    0.765968  -0.000000
     4  C    0.523912   0.000000
     5  C   -0.441285  -0.000000
     6  C   -0.335202  -0.000000
     7  C   -0.556616   0.000000
     8  C   -0.556624   0.000000
     9  C    0.765947  -0.000000
    10  C    0.523852   0.000000
    11  C    0.252816   0.000000
    12  C   -0.507048  -0.000000
    13  C   -0.441265  -0.000000
    14  C   -0.335206   0.000000
    15  O   -0.270222  -0.000000
    16  O   -0.270226   0.000000
    17  O   -0.267325  -0.000000
    18  O   -0.267324   0.000000
    19  H    0.169111   0.000000
    20  H    0.232250   0.000000
    21  H    0.123177  -0.000000
    22  H    0.169113  -0.000000
    23  H    0.232253  -0.000000
    24  H    0.123165   0.000000
    25  H    0.310515   0.000000
    26  H    0.310513  -0.000000
 Sum of Mulliken charges =  -0.00000  -0.00000

 Dipole moment (field-independent basis, Debye):
    X=             -0.0002    Y=             -5.3748    Z=              0.0009  Tot=              5.3748
 Quadrupole moment (field-independent basis, Debye-Ang):
   XX=            -84.8454   YY=           -115.3938   ZZ=           -105.1067
   XY=              0.0000   XZ=             -0.0019   YZ=              0.0046

 Normal termination of Gaussian 16 at Sat Jan 13 19:17:06 2024.
