 Gaussian 16, Revision A.03,
 Gaussian 16:  ES64L-G16RevA.03 25-Dec-2016

 --------------------------------------
 #P UB3LYP/6-311++G(d,p) nosym opt freq
 --------------------------------------

 --------
 Oxidized
 --------
 Symbolic Z-matrix:
 Charge =  0 Multiplicity = 1

 SCF Done:  E(UB3LYP) =  -839.431934936     A.U. after   15 cycles
 SCF Done:  E(UB3LYP) =  -839.431935230     A.U. after    9 cycles
 SCF Done:  E(UB3LYP) =  -839.431933978     A.U. after    9 cycles
 SCF Done:  E(UB3LYP) =  -839.431935538     A.U. after    9 cycles
 Optimization completed.
    -- Stationary point found.
 Normal termination of Gaussian 16 at Tue Jan  9 20:43:22 2024.

 ----------------------------------------------------------------------
 #P Geom=AllCheck Guess=TCheck SCRF=Check GenChk UB3LYP/6-311++G(d,p) F
 req
 ----------------------------------------------------------------------

 Structure from the checkpoint file:  "331.chk"
 --------
 Oxidized
 --------
 Charge =  0 Multiplicity = 1

                          Input orientation:
 ---------------------------------------------------------------------
 Center     Atomic      Atomic             Coordinates (Angstroms)
 Number     Number       Type             X           Y           Z
 ---------------------------------------------------------------------
      1          6           0       -1.883120    3.505735   -0.950546
      2          6           0       -2.989301    2.909367   -0.363154
      3          6           0       -0.663256    2.823118   -1.019665
      4          6           0       -0.521596    1.519339   -0.499037
      5          6           0       -2.870911    1.617438    0.159360
      6          6           0       -1.661344    0.944451    0.089191
      7          6           0        0.475359    3.524041   -1.661671
      8          6           0        1.832266    2.774343   -1.742680
      9          6           0        1.900291    1.406639   -1.172902
     10          6           0        0.772223    0.804425   -0.576402
     11          6           0        3.127036    0.737347   -1.250096
     12          6           0        3.261231   -0.544435   -0.736940
     13          6           0        2.155638   -1.160056   -0.141271
     14          6           0        0.942355   -0.494284   -0.066601
     15          8           0        0.391913    4.642524   -2.119430
     16          8           0        2.778853    3.323698   -2.262000
     17          8           0        4.427020   -1.251512   -0.779712
     18          8           0       -4.205705    3.518696   -0.263424
     19          1           0       -1.932282    4.506332   -1.367773
     20          1           0       -3.736886    1.154864    0.617369
     21          1           0       -1.617097   -0.052409    0.506459
     22          1           0        3.959655    1.250714   -1.720078
     23          1           0        2.264129   -2.161131    0.258406
     24          1           0        0.115420   -1.009827    0.402646
     25          1           0        5.113647   -0.730128   -1.209810
     26          1           0       -4.167249    4.398312   -0.654678
 ---------------------------------------------------------------------

 SCF Done:  E(UB3LYP) =  -839.431935538     A.U. after    1 cycles

 Alpha  occ. eigenvalues --  -19.17857 -19.17857 -19.13637 -19.13635 -10.27877
 Alpha  occ. eigenvalues --  -10.27858 -10.26305 -10.26305 -10.21776 -10.21747
 Alpha  occ. eigenvalues --  -10.21042 -10.21041 -10.20540 -10.20539 -10.20311
 Alpha  occ. eigenvalues --  -10.20311 -10.20210 -10.20210  -1.09069  -1.09067
 Alpha  occ. eigenvalues --   -1.08134  -1.05448  -0.90565  -0.87847  -0.81392
 Alpha  occ. eigenvalues --   -0.79615  -0.78421  -0.74958  -0.71598  -0.66988
 Alpha  occ. eigenvalues --   -0.65528  -0.62645  -0.62494  -0.58925  -0.57664
 Alpha  occ. eigenvalues --   -0.54582  -0.52194  -0.51338  -0.49583  -0.49052
 Alpha  occ. eigenvalues --   -0.46959  -0.46459  -0.46229  -0.45726  -0.44775
 Alpha  occ. eigenvalues --   -0.43962  -0.43746  -0.43352  -0.42523  -0.40532
 Alpha  occ. eigenvalues --   -0.39522  -0.38865  -0.38858  -0.38625  -0.36811
 Alpha  occ. eigenvalues --   -0.34847  -0.30816  -0.28934  -0.28389  -0.28293
 Alpha  occ. eigenvalues --   -0.26047  -0.23156
 Alpha virt. eigenvalues --   -0.12655  -0.05656  -0.05473  -0.01858  -0.01742
 Alpha virt. eigenvalues --   -0.01264  -0.01092   0.00658   0.01095   0.01626
 Alpha virt. eigenvalues --    0.03180   0.03449   0.04153   0.04242   0.05290

  Beta  occ. eigenvalues --  -19.17857 -19.17857 -19.13637 -19.13635 -10.27877
  Beta  occ. eigenvalues --  -10.27858 -10.26305 -10.26305 -10.21776 -10.21747
  Beta  occ. eigenvalues --  -10.21042 -10.21041 -10.20540 -10.20539 -10.20311
  Beta  occ. eigenvalues --  -10.20311 -10.20210 -10.20210  -1.09069  -1.09067
  Beta  occ. eigenvalues --   -1.08134  -1.05448  -0.90565  -0.87847  -0.81392
  Beta  occ. eigenvalues --   -0.79615  -0.78421  -0.74958  -0.71598  -0.66988
  Beta  occ. eigenvalues --   -0.65528  -0.62645  -0.62494  -0.58925  -0.57664
  Beta  occ. eigenvalues --   -0.54582  -0.52194  -0.51338  -0.49583  -0.49052
  Beta  occ. eigenvalues --   -0.46959  -0.46459  -0.46229  -0.45726  -0.44775
  Beta  occ. eigenvalues --   -0.43962  -0.43746  -0.43352  -0.42523  -0.40532
  Beta  occ. eigenvalues --   -0.39522  -0.38865  -0.38858  -0.38625  -0.36811
  Beta  occ. eigenvalues --   -0.34847  -0.30816  -0.28934  -0.28389  -0.28293
  Beta  occ. eigenvalues --   -0.26047  -0.23156
  Beta virt. eigenvalues --   -0.12655  -0.05656  -0.05473  -0.01858  -0.01742
  Beta virt. eigenvalues --   -0.01264  -0.01092   0.00658   0.01095   0.01626
  Beta virt. eigenvalues --    0.03180   0.03449   0.04153   0.04242   0.05290

 Mulliken charges and spin densities:
               1          2
     1  C    0.153213  -0.000000
     2  C   -0.420564   0.000000
     3  C    0.758975  -0.000000
     4  C    0.588513   0.000000
     5  C   -0.408767  -0.000000
     6  C   -0.333525   0.000000
     7  C   -0.632322  -0.000000
     8  C   -0.632536  -0.000000
     9  C    0.759127   0.000000
    10  C    0.588450   0.000000
    11  C    0.153410  -0.000000
    12  C   -0.420548   0.000000
    13  C   -0.408740   0.000000
    14  C   -0.333364   0.000000
    15  O   -0.197277   0.000000
    16  O   -0.197266  -0.000000
    17  O   -0.229284  -0.000000
    18  O   -0.229280  -0.000000
    19  H    0.151613  -0.000000
    20  H    0.209438  -0.000000
    21  H    0.083852  -0.000000
    22  H    0.151619   0.000000
    23  H    0.209445   0.000000
    24  H    0.083834  -0.000000
    25  H    0.275992  -0.000000
    26  H    0.275991   0.000000
 Sum of Mulliken charges =  -0.00000  -0.00000

 Dipole moment (field-independent basis, Debye):
    X=             -1.5351    Y=             -2.9665    Z=              1.7373  Tot=              3.7650
 Quadrupole moment (field-independent basis, Debye-Ang):
   XX=            -94.2705   YY=           -115.9541   ZZ=           -109.6615
   XY=            -13.7047   XZ=              2.6856   YZ=              8.7740

  Exact polarizability: 249.823 -43.692 200.842 -30.933 -37.871 108.472
 Approx polarizability: 390.803 -42.182 349.998 -58.425 -80.689 186.161

                      1                      2                      3
                      A                      A                      A
 Frequencies --     26.3560                54.1433                93.7841
 Red. masses --      9.7495                 6.0486                 4.2436
 Frc consts  --      0.0040                 0.0104                 0.0220
 IR Inten    --      0.0000                 1.1117                 0.0000

                      4                      5                      6
                      A                      A                      A
 Frequencies --    138.4385               165.8693               173.3642
 Red. masses --      6.7623                 7.6165                 6.7150
 Frc consts  --      0.0764                 0.1235                 0.1189
 IR Inten    --      3.8838                 0.0000                 0.5928

                      7                      8                      9
                      A                      A                      A
 Frequencies --    262.3782               269.9204               306.4944
 Red. masses --      8.5391                 5.0519                 7.5583
 Frc consts  --      0.3464                 0.2169                 0.4183
 IR Inten    --     13.6458                 1.5054                 0.0765

                     10                     11                     12
                      A                      A                      A
 Frequencies --    337.6654               340.7561               375.3209
 Red. masses --      1.0940                 1.1498                 8.3437
 Frc consts  --      0.0735                 0.0787                 0.6925
 IR Inten    --      1.8091               226.5663                 1.6841

                     13                     14                     15
                      A                      A                      A
 Frequencies --    384.0848               385.7360               390.6775
 Red. masses --     15.0357                 4.4524                 4.7962
 Frc consts  --      1.3069                 0.3903                 0.4313
 IR Inten    --      4.4049                 0.0001                 0.0630

                     16                     17                     18
                      A                      A                      A
 Frequencies --    422.2000               424.5517               441.3790
 Red. masses --      5.6016                 6.1771                 4.3722
 Frc consts  --      0.5883                 0.6560                 0.5018
 IR Inten    --      2.8203                 0.3531                 0.0000

                     19                     20                     21
                      A                      A                      A
 Frequencies --    485.2244               491.6462               533.9370
 Red. masses --      3.7373                 5.8307                 8.3622
 Frc consts  --      0.5184                 0.8304                 1.4046
 IR Inten    --     31.9793                 0.7002                27.1835

                     22                     23                     24
                      A                      A                      A
 Frequencies --    573.7251               605.4325               655.4650
 Red. masses --      2.9048                 5.3443                 5.4164
 Frc consts  --      0.5634                 1.1542                 1.3711
 IR Inten    --      0.0000                 0.0135                 6.8198

                     25                     26                     27
                      A                      A                      A
 Frequencies --    676.4306               687.3534               706.9071
 Red. masses --      7.9436                 6.0792                 4.4808
 Frc consts  --      2.1415                 1.6922                 1.3193
 IR Inten    --      0.0841                 1.0511                10.1202

                     28                     29                     30
                      A                      A                      A
 Frequencies --    708.6469               721.2220               832.9097
 Red. masses --      4.9447                 7.7817                 1.9332
 Frc consts  --      1.4630                 2.3849                 0.7902
 IR Inten    --      0.0022                 0.1165                 0.0009

                     31                     32                     33
                      A                      A                      A
 Frequencies --    834.8242               840.9217               842.4737
 Red. masses --      8.8490                 1.4066                 3.3597
 Frc consts  --      3.6336                 0.5860                 1.4050
 IR Inten    --     94.6641                49.4309                 0.0066

                     34                     35                     36
                      A                      A                      A
 Frequencies --    898.1118               903.4048               904.3720
 Red. masses --      1.4292                 7.6825                 1.6303
 Frc consts  --      0.6792                 3.6942                 0.7856
 IR Inten    --     35.1077                 3.1393                 0.0001

                     37                     38                     39
                      A                      A                      A
 Frequencies --    959.7421               973.2793              1005.9753
 Red. masses --      1.3550                 1.3125                 4.3169
 Frc consts  --      0.7353                 0.7325                 2.5739
 IR Inten    --      0.0000                 0.3141                 2.6128

                     40                     41                     42
                      A                      A                      A
 Frequencies --   1031.5659              1058.3021              1126.0441
 Red. masses --      3.6258                 2.6403                 2.2912
 Frc consts  --      2.2732                 1.7423                 1.7117
 IR Inten    --      1.6211                 1.3006                 4.1317

                     43                     44                     45
                      A                      A                      A
 Frequencies --   1140.3775              1185.3402              1191.9575
 Red. masses --      1.6013                 1.3604                 1.3586
 Frc consts  --      1.2269                 1.1261                 1.1373
 IR Inten    --      2.7194               161.1747                10.9637

                     46                     47                     48
                      A                      A                      A
 Frequencies --   1196.0537              1235.1228              1243.9939
 Red. masses --      2.1099                 2.4974                 1.6483
 Frc consts  --      1.7783                 2.2447                 1.5029
 IR Inten    --    259.5606                76.3706                 1.0232

                     49                     50                     51
                      A                      A                      A
 Frequencies --   1274.8014              1301.3408              1325.2547
 Red. masses --      2.1062                 3.6112                 2.0564
 Frc consts  --      2.0167                 3.6032                 2.1280
 IR Inten    --    143.3507                15.7979                56.0559

                     52                     53                     54
                      A                      A                      A
 Frequencies --   1340.1743              1347.2772              1373.4764
 Red. masses --      4.6964                 6.5652                 2.5790
 Frc consts  --      4.9698                 7.0212                 2.8665
 IR Inten    --     41.8008               216.4469                 9.9269

                     55                     56                     57
                      A                      A                      A
 Frequencies --   1458.4727              1471.7888              1518.2254
 Red. masses --      3.3682                 3.4825                 2.8346
 Frc consts  --      4.2213                 4.4446                 3.8496
 IR Inten    --     41.0263               318.8099               170.3867

                     58                     59                     60
                      A                      A                      A
 Frequencies --   1540.7673              1611.9886              1627.8031
 Red. masses --      3.4750                 5.2515                 6.9427
 Frc consts  --      4.8604                 8.0401                10.8388
 IR Inten    --      4.2982                 1.4855                 2.8368

                     61                     62                     63
                      A                      A                      A
 Frequencies --   1640.1043              1644.1556              1742.0763
 Red. masses --      6.0678                 6.3882                13.0629
 Frc consts  --      9.6167                10.1746                23.3573
 IR Inten    --     40.6227               189.5014               380.6688

                     64                     65                     66
                      A                      A                      A
 Frequencies --   1765.8404              3170.8143              3171.0107
 Red. masses --     12.8582                 1.0906                 1.0906
 Frc consts  --     23.6229                 6.4602                 6.4615
 IR Inten    --     12.4683                16.8550                 2.3184

                     67                     68                     69
                      A                      A                      A
 Frequencies --   3185.6542              3190.3550              3201.1315
 Red. masses --      1.0880                 1.0895                 1.0950
 Frc consts  --      6.5056                 6.5334                 6.6111
 IR Inten    --      8.9569                 0.1098                 0.4262

                     70                     71                     72
                      A                      A                      A
 Frequencies --   3213.4279              3828.0228              3828.4975
 Red. masses --      1.0905                 1.0662                 1.0663
 Frc consts  --      6.6343                 9.2053                 9.2082
 IR Inten    --     10.5599               158.0794                51.4997

 - Thermochemistry -
 -------------------
 Temperature   298.150 Kelvin.  Pressure   1.00000 Atm.
 Atom     1 has atomic number  6 and mass  12.00000

 Molecular mass:   240.04226 amu.
 Principal axes and moments of inertia in atomic units:
                           1         2         3
     Eigenvalues --  2162.021426356.623768518.64513
           X            0.87407   0.40772   0.26413
           Y           -0.48298   0.78783   0.38216
           Z           -0.05227  -0.46161   0.88554
 This molecule is an asymmetric top.
 Rotational symmetry number  1.
 Warning -- assumption of classical behavior for rotation
           may cause significant error
 Rotational temperatures (Kelvin)      0.04006     0.01363     0.01017
 Rotational constants (GHZ):           0.83475     0.28392     0.21186
 Zero-point vibrational energy     490566.7 (Joules/Mol)
                                  117.24825 (Kcal/Mol)
 Warning -- explicit consideration of  23 degrees of freedom as
           vibrations may cause significant error
 Vibrational temperatures:     37.92    77.90   134.93   199.18   238.65
          (Kelvin)            249.43   377.50   388.36   440.98   485.83
                              490.27   540.00   552.61   554.99   562.10
                              607.45   610.84   635.05   698.13   707.37
                              768.22   825.46   871.08   943.07   973.23
                              988.95  1017.08  1019.58  1037.68  1198.37
                             1201.13  1209.90  1212.13  1292.18  1299.80
                             1301.19  1380.85  1400.33  1447.37  1484.19
                             1522.66  1620.13  1640.75  1705.44  1714.96
                             1720.85  1777.07  1789.83  1834.15  1872.34
                             1906.75  1928.21  1938.43  1976.13  2098.42
                             2117.58  2184.39  2216.82  2319.29  2342.05
                             2359.74  2365.57  2506.46  2540.65  4562.09
                             4562.38  4583.45  4590.21  4605.71  4623.41
                             5507.67  5508.35

 Zero-point correction=                           0.186847 (Hartree/Particle)
 Thermal correction to Energy=                    0.200785
 Thermal correction to Enthalpy=                  0.201729
 Thermal correction to Gibbs Free Energy=         0.145598
 Sum of electronic and zero-point Energies=           -839.245089
 Sum of electronic and thermal Energies=              -839.231151
 Sum of electronic and thermal Enthalpies=            -839.230207
 Sum of electronic and thermal Free Energies=         -839.286338

                     E (Thermal)             CV                S
                      KCal/Mol        Cal/Mol-Kelvin    Cal/Mol-Kelvin
 Total                  125.994             55.596            118.138
 Electronic               0.000              0.000              0.000
 Translational            0.889              2.981             42.328
 Rotational               0.889              2.981             33.126
 Vibrational            124.217             49.635             42.684
 Vibration     1          0.593              1.985              6.086
 Vibration     2          0.596              1.976              4.660
 Vibration     3          0.603              1.954              3.580
 Vibration     4          0.614              1.915              2.825
 Vibration     5          0.624              1.884              2.482
 Vibration     6          0.627              1.875              2.399
 Vibration     7          0.670              1.742              1.646
 Vibration     8          0.674              1.729              1.597
 Vibration     9          0.697              1.661              1.381
 Vibration    10          0.718              1.600              1.223
 Vibration    11          0.720              1.594              1.209
 Vibration    12          0.746              1.523              1.058
 Vibration    13          0.753              1.504              1.023
 Vibration    14          0.754              1.501              1.017
 Vibration    15          0.758              1.490              0.998
 Vibration    16          0.785              1.422              0.885
 Vibration    17          0.787              1.417              0.877
 Vibration    18          0.801              1.380              0.822
 Vibration    19          0.841              1.283              0.696
 Vibration    20          0.847              1.269              0.679
 Vibration    21          0.889              1.175              0.578
 Vibration    22          0.930              1.088              0.497
 Vibration    23          0.964              1.020              0.440

 Optimization completed.
    -- Stationary point found.
 Normal termination of Gaussian 16 at Tue Jan  9 21:32:28 2024.
