 Q-Chem 5.4, Q-Chem, Inc., Pleasanton, CA (2021)
 Q-Chem 5.4.0 for Intel X86 EM64T Linux

User input:
--------------------------------------------------------------
$molecule
-1 2
Br                -2.3374420000      2.1328900000      0.8092820000
C                 -0.9854660000      0.8530680000      0.3359080000
C                 -1.2990150000     -0.4907860000      0.2534490000
Br                -3.0662220000     -1.1507100000      0.5991950000
C                 -0.3280050000     -1.5129200000     -0.0988640000
O                 -0.6040910000     -2.7149470000     -0.1736150000
C                  1.0857870000     -1.0399490000     -0.3818290000
O                  1.9611470000     -1.8567820000     -0.6872270000
C                  1.3295960000      0.3885240000     -0.2727080000
C                  0.3467560000      1.2986780000      0.0692700000
Br                 0.7629310000      3.1703010000      0.1891540000
Br                 3.1340230000      0.9226340000     -0.6420110000
$end

$rem
BASIS  =  6-311++G(d,p)
GUI  =  2
JOB_TYPE  =  SP
METHOD  =  B3LYP
SCF_CONVERGENCE  = 8
SOLVENT_METHOD = sm12
$end

$smx
solvent dimethylformamide
charges CM5
$end

--------------------------------------------------------------

             Standard Nuclear Orientation (Angstroms)
    I     Atom           X                Y                Z
 ----------------------------------------------------------------
    1      Br     -2.3374420000     2.1328900000     0.8092820000
    2      C      -0.9854660000     0.8530680000     0.3359080000
    3      C      -1.2990150000    -0.4907860000     0.2534490000
    4      Br     -3.0662220000    -1.1507100000     0.5991950000
    5      C      -0.3280050000    -1.5129200000    -0.0988640000
    6      O      -0.6040910000    -2.7149470000    -0.1736150000
    7      C       1.0857870000    -1.0399490000    -0.3818290000
    8      O       1.9611470000    -1.8567820000    -0.6872270000
    9      C       1.3295960000     0.3885240000    -0.2727080000
   10      C       0.3467560000     1.2986780000     0.0692700000
   11      Br      0.7629310000     3.1703010000     0.1891540000
   12      Br      3.1340230000     0.9226340000    -0.6420110000
 ----------------------------------------------------------------

   19  -10675.7971091954      3.63e-09  Convergence criterion met
 Total energy in the final basis set =   -10675.8758280667

                    Orbital Energies (a.u.)
 --------------------------------------------------------------

 Alpha MOs
 -- Occupied --
********-482.8390-482.8285-482.8285 -62.4916 -62.4916 -62.4811 -62.4811
-56.3122 -56.3122 -56.3083 -56.3083 -56.3079 -56.3079 -56.3017 -56.3017
-56.2979 -56.2979 -56.2975 -56.2975 -19.0925 -19.0925 -10.2532 -10.2528
-10.2418 -10.2416 -10.2330 -10.2329  -8.7003  -8.7002  -8.6898  -8.6897
 -6.5321  -6.5320  -6.5213  -6.5213  -6.5189  -6.5189  -6.5178  -6.5178
 -6.5087  -6.5086  -6.5074  -6.5074  -2.6429  -2.6428  -2.6393  -2.6392
 -2.6386  -2.6384  -2.6322  -2.6321  -2.6288  -2.6288  -2.6280  -2.6280
 -2.6280  -2.6279  -2.6278  -2.6278  -2.6177  -2.6177  -2.6177  -2.6176
 -1.0365  -1.0092  -0.8955  -0.8372  -0.8089  -0.7883  -0.7737  -0.7032
 -0.6920  -0.5839  -0.5821  -0.5198  -0.4728  -0.4445  -0.4369  -0.4203
 -0.4151  -0.3972  -0.3869  -0.3831  -0.3791  -0.3305  -0.3236  -0.3100
 -0.3059  -0.3006  -0.2820  -0.2818  -0.2799  -0.2541  -0.2393  -0.2331
 -0.1812

 Beta MOs
 -- Occupied --
********-482.8389-482.8285-482.8285 -62.4916 -62.4915 -62.4811 -62.4811
-56.3122 -56.3122 -56.3082 -56.3082 -56.3079 -56.3079 -56.3017 -56.3017
-56.2978 -56.2978 -56.2975 -56.2974 -19.0861 -19.0860 -10.2516 -10.2512
-10.2412 -10.2410 -10.2318 -10.2317  -8.7002  -8.7002  -8.6897  -8.6897
 -6.5321  -6.5320  -6.5213  -6.5213  -6.5187  -6.5187  -6.5178  -6.5178
 -6.5085  -6.5085  -6.5074  -6.5074  -2.6429  -2.6428  -2.6392  -2.6391
 -2.6386  -2.6384  -2.6322  -2.6321  -2.6288  -2.6287  -2.6279  -2.6279
 -2.6279  -2.6279  -2.6278  -2.6278  -2.6177  -2.6177  -2.6176  -2.6176
 -1.0260  -0.9974  -0.8912  -0.8355  -0.8065  -0.7874  -0.7717  -0.7006
 -0.6838  -0.5799  -0.5772  -0.5176  -0.4701  -0.4317  -0.4287  -0.4144
 -0.4139  -0.3942  -0.3815  -0.3696  -0.3633  -0.3232  -0.3153  -0.3055
 -0.3053  -0.2953  -0.2816  -0.2758  -0.2746  -0.2517  -0.2333  -0.2210

          Ground-State Mulliken Net Atomic Charges

     Atom                 Charge (a.u.)    Spin (a.u.)
  --------------------------------------------------------
      1 Br                    0.019407       0.011200
      2 C                     0.623846       0.073220
      3 C                     0.969716       0.105455
      4 Br                    0.048584       0.009087
      5 C                    -1.869404       0.058062
      6 O                    -0.290815       0.243017
      7 C                    -1.852469       0.058226
      8 O                    -0.292012       0.243014
      9 C                     0.951019       0.105374
     10 C                     0.623292       0.072999
     11 Br                    0.020105       0.011224
     12 Br                    0.048730       0.009123
  --------------------------------------------------------
  Sum of atomic charges =    -1.000000

                    Cartesian Multipole Moments
 -----------------------------------------------------------------
    Charge (ESU x 10^10)
                -4.8032
    Dipole Moment (Debye)
         X      -1.7285      Y       5.8216      Z       1.0956
       Tot       6.1708
    Quadrupole Moments (Debye-Ang)
        XX    -140.7243     XY       1.7846     YY    -148.5839
        XZ       4.7769     YZ      -3.5844     ZZ    -123.2113

 Total job time:  188.80s(wall), 1383.51s(cpu)
        *  Thank you very much for using Q-Chem.  Have a nice day.  *
