 Q-Chem 5.4, Q-Chem, Inc., Pleasanton, CA (2021)
 Q-Chem 5.4.0 for Intel X86 EM64T Linux

User input:
--------------------------------------------------------------
$molecule
-1 2
C                  5.5746060000     -4.6064590000     -1.0106830000
C                  6.4735110000     -4.0939920000     -1.9771220000
C                  6.1711400000     -2.8192610000     -2.5774340000
C                  4.4041960000     -3.9359170000     -0.6077270000
C                  4.1392580000     -2.6529880000     -1.2398790000
C                  5.0128090000     -2.1422140000     -2.1872830000
C                  3.4537860000     -4.4552820000      0.3997780000
C                  2.2835350000     -3.6179570000      0.6955240000
C                  2.0393480000     -2.3664880000      0.0686410000
C                  2.9555000000     -1.8313700000     -0.9241760000
C                  1.3545700000     -4.0850540000      1.6541190000
C                  0.2330170000     -3.3521380000      1.9820590000
C                 -0.0068020000     -2.1071920000      1.3561790000
C                  0.8838130000     -1.6301710000      0.4185020000
C                  7.6660560000     -4.7573350000     -2.4003740000
C                  8.4955080000     -4.2056370000     -3.3426970000
C                  8.1934540000     -2.9476360000     -3.9325510000
C                  7.0593370000     -2.2800540000     -3.5534420000
O                  3.6030740000     -5.5462560000      0.9913220000
O                  2.7598990000     -0.7290280000     -1.4902010000
Cl                 6.0124640000     -6.1766580000     -0.3180230000
H                  4.7632350000     -1.1819070000     -2.6240700000
H                  1.5612180000     -5.0415350000      2.1190510000
H                 -0.4666470000     -3.7307870000      2.7212070000
H                 -0.8898210000     -1.5303870000      1.6144920000
H                  0.7297990000     -0.6800810000     -0.0797260000
H                  7.9115040000     -5.7145930000     -1.9626020000
H                  9.3938240000     -4.7361120000     -3.6418560000
H                  8.8596850000     -2.5240870000     -4.6768570000
H                  6.8098250000     -1.3183740000     -3.9910710000
$end

$rem
BASIS  =  6-311++G(d,p)
GUI  =  2
JOB_TYPE  =  SP
METHOD  =  B3LYP
SCF_CONVERGENCE  = 8
SOLVENT_METHOD = sm12
$end

$smx
solvent dimethylformamide
charges CM5
$end

--------------------------------------------------------------

             Standard Nuclear Orientation (Angstroms)
    I     Atom           X                Y                Z
 ----------------------------------------------------------------
    1      C       5.5746060000    -4.6064590000    -1.0106830000
    2      C       6.4735110000    -4.0939920000    -1.9771220000
    3      C       6.1711400000    -2.8192610000    -2.5774340000
    4      C       4.4041960000    -3.9359170000    -0.6077270000
    5      C       4.1392580000    -2.6529880000    -1.2398790000
    6      C       5.0128090000    -2.1422140000    -2.1872830000
    7      C       3.4537860000    -4.4552820000     0.3997780000
    8      C       2.2835350000    -3.6179570000     0.6955240000
    9      C       2.0393480000    -2.3664880000     0.0686410000
   10      C       2.9555000000    -1.8313700000    -0.9241760000
   11      C       1.3545700000    -4.0850540000     1.6541190000
   12      C       0.2330170000    -3.3521380000     1.9820590000
   13      C      -0.0068020000    -2.1071920000     1.3561790000
   14      C       0.8838130000    -1.6301710000     0.4185020000
   15      C       7.6660560000    -4.7573350000    -2.4003740000
   16      C       8.4955080000    -4.2056370000    -3.3426970000
   17      C       8.1934540000    -2.9476360000    -3.9325510000
   18      C       7.0593370000    -2.2800540000    -3.5534420000
   19      O       3.6030740000    -5.5462560000     0.9913220000
   20      O       2.7598990000    -0.7290280000    -1.4902010000
   21      Cl      6.0124640000    -6.1766580000    -0.3180230000
   22      H       4.7632350000    -1.1819070000    -2.6240700000
   23      H       1.5612180000    -5.0415350000     2.1190510000
   24      H      -0.4666470000    -3.7307870000     2.7212070000
   25      H      -0.8898210000    -1.5303870000     1.6144920000
   26      H       0.7297990000    -0.6800810000    -0.0797260000
   27      H       7.9115040000    -5.7145930000    -1.9626020000
   28      H       9.3938240000    -4.7361120000    -3.6418560000
   29      H       8.8596850000    -2.5240870000    -4.6768570000
   30      H       6.8098250000    -1.3183740000    -3.9910710000
 ----------------------------------------------------------------

   20   -1302.3014878832      3.74e-09  Convergence criterion met
 Total energy in the final basis set =    -1302.3896644619

                    Orbital Energies (a.u.)
 --------------------------------------------------------------

 Alpha MOs
 -- Occupied --
******** -19.0787 -19.0760 -10.2460 -10.2329 -10.2291 -10.2021 -10.1979
-10.1971 -10.1885 -10.1878 -10.1875 -10.1867 -10.1864 -10.1824 -10.1819
-10.1811 -10.1802 -10.1793 -10.1787 -10.1779  -9.4614  -7.2259  -7.2166
 -7.2154  -1.0084  -1.0057  -0.9009  -0.8645  -0.8582  -0.8332  -0.7871
 -0.7714  -0.7582  -0.7503  -0.7320  -0.6705  -0.6633  -0.6324  -0.6141
 -0.5927  -0.5658  -0.5622  -0.5338  -0.5126  -0.5046  -0.4800  -0.4678
 -0.4569  -0.4533  -0.4384  -0.4353  -0.4342  -0.4304  -0.4199  -0.4162
 -0.4097  -0.4045  -0.3866  -0.3828  -0.3758  -0.3630  -0.3562  -0.3492
 -0.3489  -0.3428  -0.3229  -0.3115  -0.2872  -0.2709  -0.2640  -0.2588
 -0.2470  -0.2331  -0.2326  -0.1412

 Beta MOs
 -- Occupied --
******** -19.0732 -19.0701 -10.2457 -10.2317 -10.2276 -10.2018 -10.1972
-10.1967 -10.1887 -10.1876 -10.1869 -10.1864 -10.1863 -10.1820 -10.1813
-10.1810 -10.1792 -10.1791 -10.1781 -10.1779  -9.4613  -7.2259  -7.2165
 -7.2154  -0.9985  -0.9959  -0.8998  -0.8623  -0.8577  -0.8316  -0.7840
 -0.7706  -0.7561  -0.7487  -0.7302  -0.6643  -0.6618  -0.6301  -0.6134
 -0.5922  -0.5635  -0.5601  -0.5329  -0.5117  -0.5030  -0.4777  -0.4667
 -0.4563  -0.4525  -0.4373  -0.4339  -0.4299  -0.4269  -0.4183  -0.4137
 -0.4044  -0.3980  -0.3815  -0.3749  -0.3690  -0.3575  -0.3551  -0.3487
 -0.3416  -0.3410  -0.3147  -0.3108  -0.2846  -0.2578  -0.2548  -0.2508
 -0.2419  -0.2276  -0.2267

          Ground-State Mulliken Net Atomic Charges

     Atom                 Charge (a.u.)    Spin (a.u.)
  --------------------------------------------------------
      1 C                     0.086201       0.024864
      2 C                    -1.126344       0.020370
      3 C                     0.692744       0.032819
      4 C                    -0.571079       0.031438
      5 C                     0.024602       0.023385
      6 C                    -0.098262       0.018446
      7 C                    -3.465140       0.056014
      8 C                    -1.211596       0.079594
      9 C                    -0.659624       0.042689
     10 C                    -2.376170       0.071639
     11 C                    -0.056278       0.023918
     12 C                     0.970620       0.052536
     13 C                     0.879906       0.036239
     14 C                    -0.022470       0.032163
     15 C                    -0.096909       0.006736
     16 C                     0.867261       0.010885
     17 C                     1.281000       0.027246
     18 C                     1.144657      -0.008366
     19 O                    -0.170677       0.222872
     20 O                    -0.291245       0.207227
     21 Cl                    0.842721       0.000873
     22 H                     0.062136      -0.002241
     23 H                     0.153286      -0.001247
     24 H                     0.350989      -0.003784
     25 H                     0.354159      -0.002821
     26 H                     0.160280      -0.001431
     27 H                     0.250216      -0.000019
     28 H                     0.346344      -0.001029
     29 H                     0.362763      -0.002083
     30 H                     0.315907       0.001068
  --------------------------------------------------------
  Sum of atomic charges =    -1.000000

                    Cartesian Multipole Moments
 -----------------------------------------------------------------
    Charge (ESU x 10^10)
                -4.8032
    Dipole Moment (Debye)
         X     -16.1090      Y      16.5072      Z       0.8680
       Tot      23.0812
    Quadrupole Moments (Debye-Ang)
        XX    -188.2110     XY      62.6039     YY    -213.4068
        XZ      -3.3658     YZ       4.7600     ZZ    -137.1423

 Total job time:  1162.89s(wall), 8761.84s(cpu)
        *  Thank you very much for using Q-Chem.  Have a nice day.  *
