 Gaussian 16, Revision A.03,
 Gaussian 16:  ES64L-G16RevA.03 25-Dec-2016

 ----------------------------------------------------------------
 #P UB3LYP/6-311++G(d,p) SCRF=(PCM,Solvent=n,n-DiMethylFormamide)
 ----------------------------------------------------------------

 ------------------
 Radical PCM in DMF
 ------------------
 Symbolic Z-matrix:
 Charge = -1 Multiplicity = 2

                         Standard orientation:
 ---------------------------------------------------------------------
 Center     Atomic      Atomic             Coordinates (Angstroms)
 Number     Number       Type             X           Y           Z
 ---------------------------------------------------------------------
      1          8           0       -2.718820   -0.945264    0.000047
      2          6           0       -1.471137   -0.916786   -0.000112
      3          6           0       -0.676453   -2.141373    0.000043
      4          6           0        0.677804   -2.140948    0.000029
      5          6           0        1.471907   -0.915907   -0.000084
      6          8           0        2.719519   -0.943676   -0.000003
      7          6           0        0.702872    0.325149   -0.000021
      8          6           0       -0.702949    0.324808   -0.000040
      9          6           0       -1.437021    1.543442   -0.000003
     10          7           0       -2.035069    2.535550    0.000002
     11          6           0        1.436113    1.544372    0.000073
     12          7           0        2.033035    2.537150    0.000015
     13          1           0       -1.243371   -3.067307    0.000115
     14          1           0        1.245200   -3.066609    0.000099
 ---------------------------------------------------------------------

 SCF Done:  E(UB3LYP) =  -566.275528359     A.U. after   19 cycles

 The electronic state is 2-A.
 Alpha  occ. eigenvalues --  -19.10892 -19.10891 -14.32550 -14.32549 -10.25967
 Alpha  occ. eigenvalues --  -10.25965 -10.22974 -10.22925 -10.22593 -10.22592
 Alpha  occ. eigenvalues --  -10.19451 -10.19379  -1.03772  -1.03521  -0.92947
 Alpha  occ. eigenvalues --   -0.92237  -0.86380  -0.79811  -0.73964  -0.66765
 Alpha  occ. eigenvalues --   -0.63325  -0.54402  -0.53428  -0.51244  -0.46970
 Alpha  occ. eigenvalues --   -0.45133  -0.44175  -0.41927  -0.41074  -0.40643
 Alpha  occ. eigenvalues --   -0.38878  -0.38669  -0.38523  -0.36830  -0.35552
 Alpha  occ. eigenvalues --   -0.34934  -0.30592  -0.28550  -0.27328  -0.26922
 Alpha  occ. eigenvalues --   -0.19668
 Alpha virt. eigenvalues --   -0.07615  -0.01496  -0.00192   0.00578   0.01590
 Alpha virt. eigenvalues --    0.01864   0.02479   0.04112   0.04475   0.04732
 Alpha virt. eigenvalues --    0.05341   0.05844   0.06686   0.06925   0.07088

  Beta  occ. eigenvalues --  -19.10256 -19.10255 -14.32409 -14.32408 -10.25927
  Beta  occ. eigenvalues --  -10.25925 -10.22720 -10.22679 -10.22640 -10.22633
  Beta  occ. eigenvalues --  -10.19418 -10.19345  -1.02703  -1.02422  -0.92697
  Beta  occ. eigenvalues --   -0.92017  -0.85726  -0.79538  -0.72990  -0.66378
  Beta  occ. eigenvalues --   -0.63018  -0.54070  -0.53122  -0.51002  -0.46787
  Beta  occ. eigenvalues --   -0.43583  -0.43504  -0.41529  -0.40467  -0.38952
  Beta  occ. eigenvalues --   -0.38658  -0.38449  -0.37474  -0.35796  -0.35430
  Beta  occ. eigenvalues --   -0.34840  -0.28028  -0.27180  -0.26723  -0.26318
  Beta virt. eigenvalues --   -0.12883  -0.06027  -0.00135   0.00014   0.00632
  Beta virt. eigenvalues --    0.01611   0.01925   0.02533   0.04133   0.04536
  Beta virt. eigenvalues --    0.04831   0.05834   0.05910   0.07110   0.07116

 Mulliken charges and spin densities:
               1          2
     1  O   -0.412149   0.233186
     2  C   -0.799622   0.003073
     3  C    0.153184   0.027988
     4  C    0.153547   0.027991
     5  C   -0.800675   0.003083
     6  O   -0.412112   0.233135
     7  C    1.695185   0.197011
     8  C    1.696620   0.196999
     9  C   -1.059556  -0.027574
    10  N   -0.299929   0.069329
    11  C   -1.058804  -0.027546
    12  N   -0.299960   0.069302
    13  H    0.222134  -0.002989
    14  H    0.222136  -0.002988
 Sum of Mulliken charges =  -1.00000   1.00000

 Dipole moment (field-independent basis, Debye):
    X=              0.0035    Y=             -6.5843    Z=             -0.0002  Tot=              6.5843
 Quadrupole moment (field-independent basis, Debye-Ang):
   XX=           -117.0865   YY=            -90.7728   ZZ=            -68.9892
   XY=             -0.0068   XZ=              0.0004   YZ=             -0.0001

 Normal termination of Gaussian 16 at Sun Jan 21 07:06:37 2024.
