 Q-Chem 5.4, Q-Chem, Inc., Pleasanton, CA (2021)
 Q-Chem 5.4.0 for Intel X86 EM64T Linux

User input:
--------------------------------------------------------------
$molecule
0 1
C                 -0.7596110000     -1.6910840000      3.5919200000
C                  0.3177420000     -2.4557800000      2.8961190000
C                  0.4053860000     -2.3063760000      1.5620300000
C                 -0.4940480000     -1.4368390000      0.7507220000
C                 -1.5349660000     -0.6991660000      1.4261170000
C                 -1.6928540000     -0.7952670000      2.7788270000
O                 -0.9333790000     -1.7485230000      4.7996160000
O                 -0.3160280000     -1.3798210000     -0.4660130000
N                 -2.6026300000     -0.1846600000      3.5682540000
C                 -3.6880840000      0.7569940000      3.2230710000
C                 -4.3817280000      1.0987310000      4.5517740000
C                 -4.7079390000      0.0920850000      2.2784360000
C                 -3.1151000000      2.0477350000      2.6064680000
H                 -2.1628360000     -0.0826570000      0.8005180000
H                 -2.4984180000     -0.4307870000      4.5460490000
H                 -3.6817780000      1.5661620000      5.2504310000
H                 -4.7945610000      0.2007860000      5.0205830000
H                 -5.2028040000      1.7970630000      4.3792010000
H                 -5.1218070000     -0.8087290000      2.7380840000
H                 -4.2660500000     -0.1898300000      1.3224370000
H                 -5.5302760000      0.7830460000      2.0754840000
H                 -2.4132440000      2.5209340000      3.2974920000
H                 -3.9251960000      2.7528850000      2.4030740000
H                 -2.5912550000      1.8623110000      1.6684210000
C                  1.2521400000     -3.3552240000      3.7176390000
C                  0.4309740000     -4.4538460000      4.4367530000
C                  2.2866750000     -4.0511130000      2.8136340000
C                  2.0225270000     -2.5061230000      4.7588270000
H                  1.1538620000     -2.8200970000      0.9725220000
H                 -0.2805590000     -4.0288490000      5.1432330000
H                  1.1081390000     -5.1134830000      4.9873880000
H                 -0.1164520000     -5.0658340000      3.7137360000
H                  1.8126530000     -4.6946950000      2.0674490000
H                  2.9330480000     -4.6814930000      3.4292550000
H                  2.9260230000     -3.3328250000      2.2930640000
H                  1.3492620000     -2.0347360000      5.4733390000
H                  2.6112180000     -1.7268720000      4.2657130000
H                  2.7147860000     -3.1476440000      5.3120850000
$end

$rem
BASIS  =  6-311++G(d,p)
GUI  =  2
JOB_TYPE  =  SP
METHOD  =  B3LYP
SCF_CONVERGENCE  = 8
SOLVENT_METHOD = sm12
$end

$smx
solvent dimethylformamide
charges CM5
$end

--------------------------------------------------------------

             Standard Nuclear Orientation (Angstroms)
    I     Atom           X                Y                Z
 ----------------------------------------------------------------
    1      C      -0.7596110000    -1.6910840000     3.5919200000
    2      C       0.3177420000    -2.4557800000     2.8961190000
    3      C       0.4053860000    -2.3063760000     1.5620300000
    4      C      -0.4940480000    -1.4368390000     0.7507220000
    5      C      -1.5349660000    -0.6991660000     1.4261170000
    6      C      -1.6928540000    -0.7952670000     2.7788270000
    7      O      -0.9333790000    -1.7485230000     4.7996160000
    8      O      -0.3160280000    -1.3798210000    -0.4660130000
    9      N      -2.6026300000    -0.1846600000     3.5682540000
   10      C      -3.6880840000     0.7569940000     3.2230710000
   11      C      -4.3817280000     1.0987310000     4.5517740000
   12      C      -4.7079390000     0.0920850000     2.2784360000
   13      C      -3.1151000000     2.0477350000     2.6064680000
   14      H      -2.1628360000    -0.0826570000     0.8005180000
   15      H      -2.4984180000    -0.4307870000     4.5460490000
   16      H      -3.6817780000     1.5661620000     5.2504310000
   17      H      -4.7945610000     0.2007860000     5.0205830000
   18      H      -5.2028040000     1.7970630000     4.3792010000
   19      H      -5.1218070000    -0.8087290000     2.7380840000
   20      H      -4.2660500000    -0.1898300000     1.3224370000
   21      H      -5.5302760000     0.7830460000     2.0754840000
   22      H      -2.4132440000     2.5209340000     3.2974920000
   23      H      -3.9251960000     2.7528850000     2.4030740000
   24      H      -2.5912550000     1.8623110000     1.6684210000
   25      C       1.2521400000    -3.3552240000     3.7176390000
   26      C       0.4309740000    -4.4538460000     4.4367530000
   27      C       2.2866750000    -4.0511130000     2.8136340000
   28      C       2.0225270000    -2.5061230000     4.7588270000
   29      H       1.1538620000    -2.8200970000     0.9725220000
   30      H      -0.2805590000    -4.0288490000     5.1432330000
   31      H       1.1081390000    -5.1134830000     4.9873880000
   32      H      -0.1164520000    -5.0658340000     3.7137360000
   33      H       1.8126530000    -4.6946950000     2.0674490000
   34      H       2.9330480000    -4.6814930000     3.4292550000
   35      H       2.9260230000    -3.3328250000     2.2930640000
   36      H       1.3492620000    -2.0347360000     5.4733390000
   37      H       2.6112180000    -1.7268720000     4.2657130000
   38      H       2.7147860000    -3.1476440000     5.3120850000
 ----------------------------------------------------------------

   15    -751.5420281939      9.69e-09  Convergence criterion met
 Total energy in the final basis set =     -751.5565625150

                    Orbital Energies (a.u.)
 --------------------------------------------------------------

 Alpha MOs
 -- Occupied --
-19.1445 -19.1090 -14.3488 -10.2914 -10.2606 -10.2475 -10.2321 -10.2110
-10.2022 -10.1996 -10.1731 -10.1637 -10.1630 -10.1629 -10.1605 -10.1598
-10.1598  -1.0806  -1.0388  -0.9609  -0.8607  -0.8269  -0.7988  -0.7561
 -0.7000  -0.6965  -0.6963  -0.6899  -0.6846  -0.6408  -0.6085  -0.5836
 -0.5463  -0.5337  -0.5072  -0.5001  -0.4808  -0.4659  -0.4642  -0.4506
 -0.4461  -0.4413  -0.4373  -0.4338  -0.4151  -0.4097  -0.4080  -0.4035
 -0.3889  -0.3884  -0.3818  -0.3774  -0.3732  -0.3696  -0.3603  -0.3558
 -0.3427  -0.3416  -0.3369  -0.3298  -0.2917  -0.2850  -0.2620  -0.2305

          Ground-State Mulliken Net Atomic Charges

     Atom                 Charge (a.u.)
  ----------------------------------------
      1 C                    -0.722227
      2 C                     0.911796
      3 C                    -0.283930
      4 C                    -1.723201
      5 C                    -0.068777
      6 C                     0.375024
      7 O                    -0.181619
      8 O                    -0.412485
      9 N                     0.115749
     10 C                    -0.165392
     11 C                    -0.058053
     12 C                    -0.384116
     13 C                    -0.382529
     14 H                     0.152764
     15 H                     0.387148
     16 H                     0.185959
     17 H                     0.185770
     18 H                     0.194239
     19 H                     0.133418
     20 H                     0.103642
     21 H                     0.219605
     22 H                     0.133215
     23 H                     0.219569
     24 H                     0.104134
     25 C                     0.701975
     26 C                    -0.638613
     27 C                    -0.125061
     28 C                    -0.637128
     29 H                     0.238720
     30 H                     0.132073
     31 H                     0.185714
     32 H                     0.140064
     33 H                     0.142146
     34 H                     0.221104
     35 H                     0.142087
     36 H                     0.131443
     37 H                     0.140045
     38 H                     0.185726
  ----------------------------------------
  Sum of atomic charges =     0.000000

                    Cartesian Multipole Moments
 -----------------------------------------------------------------
    Charge (ESU x 10^10)
                -0.0000
    Dipole Moment (Debye)
         X      -2.3000      Y       1.1851      Z       4.1489
       Tot       4.8896
    Quadrupole Moments (Debye-Ang)
        XX     -87.6086     XY      -9.3706     YY    -100.1365
        XZ      -9.1279     YZ      -0.2041     ZZ    -102.6159

 Total job time:  1189.69s(wall), 9359.67s(cpu)
        *  Thank you very much for using Q-Chem.  Have a nice day.  *
