 Gaussian 16, Revision A.03,
 Gaussian 16:  ES64L-G16RevA.03 25-Dec-2016

 --------------------------------------
 #P UB3LYP/6-311++G(d,p) nosym opt freq
 --------------------------------------

 --------
 Oxidized
 --------
 Symbolic Z-matrix:
 Charge =  0 Multiplicity = 1

 SCF Done:  E(UB3LYP) =  -751.543440238     A.U. after   16 cycles
 Optimization completed.
    -- Stationary point found.
 Normal termination of Gaussian 16 at Wed Jan 10 16:57:46 2024.

 ----------------------------------------------------------------------
 #P Geom=AllCheck Guess=TCheck SCRF=Check GenChk UB3LYP/6-311++G(d,p) F
 req
 ----------------------------------------------------------------------

 Structure from the checkpoint file:  "106.chk"
 --------
 Oxidized
 --------
 Charge =  0 Multiplicity = 1

                          Input orientation:
 ---------------------------------------------------------------------
 Center     Atomic      Atomic             Coordinates (Angstroms)
 Number     Number       Type             X           Y           Z
 ---------------------------------------------------------------------
      1          6           0       -0.759611   -1.691084    3.591920
      2          6           0        0.317742   -2.455780    2.896119
      3          6           0        0.405386   -2.306376    1.562030
      4          6           0       -0.494048   -1.436839    0.750722
      5          6           0       -1.534966   -0.699166    1.426117
      6          6           0       -1.692854   -0.795267    2.778827
      7          8           0       -0.933379   -1.748523    4.799616
      8          8           0       -0.316028   -1.379821   -0.466013
      9          7           0       -2.602630   -0.184660    3.568254
     10          6           0       -3.688084    0.756994    3.223071
     11          6           0       -4.381728    1.098731    4.551774
     12          6           0       -4.707939    0.092085    2.278436
     13          6           0       -3.115100    2.047735    2.606468
     14          1           0       -2.162836   -0.082657    0.800518
     15          1           0       -2.498418   -0.430787    4.546049
     16          1           0       -3.681778    1.566162    5.250431
     17          1           0       -4.794561    0.200786    5.020583
     18          1           0       -5.202804    1.797063    4.379201
     19          1           0       -5.121807   -0.808729    2.738084
     20          1           0       -4.266050   -0.189830    1.322437
     21          1           0       -5.530276    0.783046    2.075484
     22          1           0       -2.413244    2.520934    3.297492
     23          1           0       -3.925196    2.752885    2.403074
     24          1           0       -2.591255    1.862311    1.668421
     25          6           0        1.252140   -3.355224    3.717639
     26          6           0        0.430974   -4.453846    4.436753
     27          6           0        2.286675   -4.051113    2.813634
     28          6           0        2.022527   -2.506123    4.758827
     29          1           0        1.153862   -2.820097    0.972522
     30          1           0       -0.280559   -4.028849    5.143233
     31          1           0        1.108139   -5.113483    4.987388
     32          1           0       -0.116452   -5.065834    3.713736
     33          1           0        1.812653   -4.694695    2.067449
     34          1           0        2.933048   -4.681493    3.429255
     35          1           0        2.926023   -3.332825    2.293064
     36          1           0        1.349262   -2.034736    5.473339
     37          1           0        2.611218   -1.726872    4.265713
     38          1           0        2.714786   -3.147644    5.312085
 ---------------------------------------------------------------------

 SCF Done:  E(UB3LYP) =  -751.543440238     A.U. after    1 cycles

 Alpha  occ. eigenvalues --  -19.14334 -19.10509 -14.35060 -10.29060 -10.25614
 Alpha  occ. eigenvalues --  -10.24695 -10.24400 -10.21020 -10.20459 -10.19827
 Alpha  occ. eigenvalues --  -10.18194 -10.17517 -10.17516 -10.17297 -10.16650
 Alpha  occ. eigenvalues --  -10.16176 -10.16176  -1.07965  -1.03363  -0.96460
 Alpha  occ. eigenvalues --   -0.86108  -0.83301  -0.80331  -0.75701  -0.71217
 Alpha  occ. eigenvalues --   -0.70855  -0.70098  -0.69184  -0.68723  -0.64296
 Alpha  occ. eigenvalues --   -0.61060  -0.58797  -0.54811  -0.53569  -0.51073
 Alpha  occ. eigenvalues --   -0.50042  -0.48620  -0.47300  -0.46985  -0.45546
 Alpha  occ. eigenvalues --   -0.45284  -0.44509  -0.44126  -0.43252  -0.41730
 Alpha  occ. eigenvalues --   -0.41577  -0.41019  -0.40419  -0.40186  -0.39204
 Alpha  occ. eigenvalues --   -0.38780  -0.38712  -0.38565  -0.37400  -0.36916
 Alpha  occ. eigenvalues --   -0.35807  -0.35401  -0.34577  -0.33987  -0.33508
 Alpha  occ. eigenvalues --   -0.28966  -0.28449  -0.25565  -0.23086
 Alpha virt. eigenvalues --   -0.11755  -0.01765  -0.00941  -0.00678   0.00725
 Alpha virt. eigenvalues --    0.00937   0.01166   0.01189   0.01752   0.02051
 Alpha virt. eigenvalues --    0.02480   0.03000   0.03262   0.03490   0.04298

  Beta  occ. eigenvalues --  -19.14334 -19.10509 -14.35060 -10.29060 -10.25614
  Beta  occ. eigenvalues --  -10.24695 -10.24400 -10.21020 -10.20459 -10.19827
  Beta  occ. eigenvalues --  -10.18194 -10.17517 -10.17516 -10.17297 -10.16650
  Beta  occ. eigenvalues --  -10.16176 -10.16176  -1.07965  -1.03363  -0.96460
  Beta  occ. eigenvalues --   -0.86108  -0.83301  -0.80331  -0.75701  -0.71217
  Beta  occ. eigenvalues --   -0.70855  -0.70098  -0.69184  -0.68723  -0.64296
  Beta  occ. eigenvalues --   -0.61060  -0.58797  -0.54811  -0.53569  -0.51073
  Beta  occ. eigenvalues --   -0.50042  -0.48620  -0.47300  -0.46985  -0.45546
  Beta  occ. eigenvalues --   -0.45284  -0.44509  -0.44126  -0.43252  -0.41730
  Beta  occ. eigenvalues --   -0.41577  -0.41019  -0.40419  -0.40186  -0.39204
  Beta  occ. eigenvalues --   -0.38780  -0.38712  -0.38565  -0.37400  -0.36916
  Beta  occ. eigenvalues --   -0.35807  -0.35401  -0.34577  -0.33987  -0.33508
  Beta  occ. eigenvalues --   -0.28966  -0.28449  -0.25565  -0.23086
  Beta virt. eigenvalues --   -0.11755  -0.01765  -0.00941  -0.00678   0.00725
  Beta virt. eigenvalues --    0.00937   0.01166   0.01189   0.01752   0.02051
  Beta virt. eigenvalues --    0.02480   0.03000   0.03262   0.03490   0.04298

 Mulliken charges and spin densities:
               1          2
     1  C   -0.656493   0.000000
     2  C    0.999613  -0.000000
     3  C   -0.201129   0.000000
     4  C   -0.717380   0.000000
     5  C    0.028127  -0.000000
     6  C    0.000844  -0.000000
     7  O   -0.202739  -0.000000
     8  O   -0.264571  -0.000000
     9  N    0.075076   0.000000
    10  C   -0.203718  -0.000000
    11  C   -0.484948   0.000000
    12  C   -0.374017  -0.000000
    13  C   -0.374112  -0.000000
    14  H    0.213971  -0.000000
    15  H    0.341234  -0.000000
    16  H    0.153816   0.000000
    17  H    0.153985  -0.000000
    18  H    0.157386   0.000000
    19  H    0.161385   0.000000
    20  H    0.133215   0.000000
    21  H    0.160317  -0.000000
    22  H    0.161318  -0.000000
    23  H    0.160258  -0.000000
    24  H    0.133428   0.000000
    25  C    0.548894   0.000000
    26  C   -0.657373  -0.000000
    27  C   -0.426438  -0.000000
    28  C   -0.657008  -0.000000
    29  H    0.231329  -0.000000
    30  H    0.186107  -0.000000
    31  H    0.154039   0.000000
    32  H    0.141609   0.000000
    33  H    0.134426   0.000000
    34  H    0.173315   0.000000
    35  H    0.134441   0.000000
    36  H    0.186135  -0.000000
    37  H    0.141580   0.000000
    38  H    0.154078   0.000000
 Sum of Mulliken charges =  -0.00000   0.00000

 Dipole moment (field-independent basis, Debye):
    X=             -1.8514    Y=              0.9776    Z=              3.1811  Tot=              3.8082
 Quadrupole moment (field-independent basis, Debye-Ang):
   XX=            -91.0457   YY=           -101.2042   ZZ=           -106.1507
   XY=             -7.8067   XZ=             -6.7465   YZ=              0.0761

  Exact polarizability: 186.169 -39.984 167.225 -13.613  -1.242 208.794
 Approx polarizability: 244.400 -28.912 222.910 -45.425   2.454 408.387

                      1                      2                      3
                      A                      A                      A
 Frequencies --     32.7907                45.7610                71.6511
 Red. masses --      3.8807                 2.9410                 3.8259
 Frc consts  --      0.0025                 0.0036                 0.0116
 IR Inten    --      1.8722                 0.0027                 0.4791

                      4                      5                      6
                      A                      A                      A
 Frequencies --     81.0574               107.7295               138.3266
 Red. masses --      4.3535                 3.8134                 4.2695
 Frc consts  --      0.0169                 0.0261                 0.0481
 IR Inten    --      0.0561                 0.4249                 4.1198

                      7                      8                      9
                      A                      A                      A
 Frequencies --    170.6909               180.0741               205.6342
 Red. masses --      1.6606                 3.6287                 1.5389
 Frc consts  --      0.0285                 0.0693                 0.0383
 IR Inten    --      0.1351                 0.6234                 0.0550

                     10                     11                     12
                      A                      A                      A
 Frequencies --    218.4115               231.7252               242.2077
 Red. masses --      1.3343                 1.1730                 2.0500
 Frc consts  --      0.0375                 0.0371                 0.0709
 IR Inten    --      0.4311                 0.1559                 0.1486

                     13                     14                     15
                      A                      A                      A
 Frequencies --    260.9939               271.8731               275.9525
 Red. masses --      1.3825                 2.0199                 1.1492
 Frc consts  --      0.0555                 0.0880                 0.0516
 IR Inten    --      0.0020                 0.0018                 0.0438

                     16                     17                     18
                      A                      A                      A
 Frequencies --    278.6959               293.1125               327.3263
 Red. masses --      3.0620                 2.5199                 1.0838
 Frc consts  --      0.1401                 0.1276                 0.0684
 IR Inten    --      1.0351                 0.1908                 0.0129

                     19                     20                     21
                      A                      A                      A
 Frequencies --    338.9193               344.2093               376.4300
 Red. masses --      3.3367                 2.4977                 2.2916
 Frc consts  --      0.2258                 0.1744                 0.1913
 IR Inten    --      4.2926                 0.4304                 0.0380

                     22                     23                     24
                      A                      A                      A
 Frequencies --    394.6304               415.2726               425.2851
 Red. masses --      2.5643                 2.7697                 3.0437
 Frc consts  --      0.2353                 0.2814                 0.3243
 IR Inten    --      0.7991                 1.0693                 0.0483

                     25                     26                     27
                      A                      A                      A
 Frequencies --    452.8217               458.3904               474.5723
 Red. masses --      6.4049                 5.0814                 3.4470
 Frc consts  --      0.7738                 0.6291                 0.4574
 IR Inten    --     31.2738                 3.4200                 4.2924

                     28                     29                     30
                      A                      A                      A
 Frequencies --    475.0547               527.0945               564.8105
 Red. masses --      3.3718                 2.8498                 1.9683
 Frc consts  --      0.4483                 0.4665                 0.3699
 IR Inten    --     11.0278                 4.1809                35.0034

                     31                     32                     33
                      A                      A                      A
 Frequencies --    593.9679               622.6670               689.1419
 Red. masses --      1.5181                 5.3921                 4.7676
 Frc consts  --      0.3155                 1.2317                 1.3340
 IR Inten    --     14.5137                 0.6822                 0.6477

                     34                     35                     36
                      A                      A                      A
 Frequencies --    697.6619               755.4333               785.0260
 Red. masses --      3.7121                 4.2362                 4.0838
 Frc consts  --      1.0645                 1.4244                 1.4828
 IR Inten    --      1.9936                 0.9837                 1.7206

                     37                     38                     39
                      A                      A                      A
 Frequencies --    805.1304               817.1490               837.8028
 Red. masses --      4.4062                 8.2515                 1.4658
 Frc consts  --      1.6829                 3.2463                 0.6062
 IR Inten    --      4.5084                 0.0037                26.9113

                     40                     41                     42
                      A                      A                      A
 Frequencies --    890.3558               919.6192               924.8805
 Red. masses --      2.7312                 1.7493                 1.9741
 Frc consts  --      1.2756                 0.8716                 0.9949
 IR Inten    --     21.5980                 0.0018                 0.3341

                     43                     44                     45
                      A                      A                      A
 Frequencies --    925.9718               936.9579               941.4572
 Red. masses --      1.8488                 1.7962                 1.4793
 Frc consts  --      0.9340                 0.9291                 0.7725
 IR Inten    --      4.5437                 1.9630                16.8778

                     46                     47                     48
                      A                      A                      A
 Frequencies --    948.5994               965.5792               965.8857
 Red. masses --      2.1207                 1.1982                 1.1968
 Frc consts  --      1.1243                 0.6582                 0.6579
 IR Inten    --      1.2074                 0.0499                 0.0263

                     49                     50                     51
                      A                      A                      A
 Frequencies --   1000.6578              1048.2869              1050.0580
 Red. masses --      2.8306                 1.3934                 1.3832
 Frc consts  --      1.6699                 0.9022                 0.8986
 IR Inten    --     47.2716                 0.9424                 0.0080

                     52                     53                     54
                      A                      A                      A
 Frequencies --   1052.0708              1059.4197              1167.8100
 Red. masses --      1.4291                 1.4325                 2.2815
 Frc consts  --      0.9319                 0.9473                 1.8332
 IR Inten    --      1.3992                 2.3358                33.2434

                     55                     56                     57
                      A                      A                      A
 Frequencies --   1219.1902              1223.8194              1231.7341
 Red. masses --      2.7002                 2.3377                 2.3081
 Frc consts  --      2.3648                 2.0629                 2.0632
 IR Inten    --      3.0166                27.3302                44.1591

                     58                     59                     60
                      A                      A                      A
 Frequencies --   1240.5995              1244.4701              1268.1274
 Red. masses --      2.7567                 2.8148                 2.2243
 Frc consts  --      2.4998                 2.5684                 2.1075
 IR Inten    --     11.1032               132.0826                13.2453

                     61                     62                     63
                      A                      A                      A
 Frequencies --   1276.2696              1309.8686              1350.9843
 Red. masses --      2.7788                 2.1043                 2.3138
 Frc consts  --      2.6668                 2.1272                 2.4881
 IR Inten    --    142.5858                24.4629                39.2125

                     64                     65                     66
                      A                      A                      A
 Frequencies --   1363.8424              1393.4055              1398.3937
 Red. masses --      5.6046                 1.1997                 1.2317
 Frc consts  --      6.1422                 1.3724                 1.4191
 IR Inten    --     54.6877                 9.6991                15.6550

                     67                     68                     69
                      A                      A                      A
 Frequencies --   1402.6070              1404.4955              1427.9002
 Red. masses --      1.2400                 1.2243                 1.2213
 Frc consts  --      1.4373                 1.4230                 1.4671
 IR Inten    --     15.2901                13.8503                 7.7921

                     70                     71                     72
                      A                      A                      A
 Frequencies --   1432.5611              1478.3265              1481.2954
 Red. masses --      1.2256                 1.0474                 1.0463
 Frc consts  --      1.4819                 1.3487                 1.3526
 IR Inten    --     22.2281                 0.3194                 0.0215

                     73                     74                     75
                      A                      A                      A
 Frequencies --   1489.5042              1490.1170              1495.6738
 Red. masses --      1.0478                 1.0439                 1.0479
 Frc consts  --      1.3697                 1.3657                 1.3811
 IR Inten    --      6.4973                 0.0751                 0.7209

                     76                     77                     78
                      A                      A                      A
 Frequencies --   1498.2092              1500.1917              1503.9525
 Red. masses --      1.0446                 1.0679                 1.0539
 Frc consts  --      1.3815                 1.4160                 1.4044
 IR Inten    --      0.5093                31.7897                14.0317

                     79                     80                     81
                      A                      A                      A
 Frequencies --   1506.1710              1512.6267              1520.3487
 Red. masses --      1.0535                 1.0494                 1.0636
 Frc consts  --      1.4081                 1.4147                 1.4485
 IR Inten    --      5.4421                 7.0877                 9.5993

                     82                     83                     84
                      A                      A                      A
 Frequencies --   1528.8166              1555.2697              1630.9350
 Red. masses --      1.0597                 1.6138                 7.9108
 Frc consts  --      1.4593                 2.2999                12.3978
 IR Inten    --     17.1386               254.9459               433.9257

                     85                     86                     87
                      A                      A                      A
 Frequencies --   1668.8396              1681.7036              1712.5015
 Red. masses --     10.8742                 7.4201                10.9093
 Frc consts  --     17.8433                12.3640                18.8499
 IR Inten    --      7.5734               321.7100               174.7665

                     88                     89                     90
                      A                      A                      A
 Frequencies --   3023.0418              3024.6719              3025.9140
 Red. masses --      1.0357                 1.0380                 1.0358
 Frc consts  --      5.5764                 5.5949                 5.5878
 IR Inten    --     13.6528                36.6272                16.4050

                     91                     92                     93
                      A                      A                      A
 Frequencies --   3030.8800              3035.4700              3041.2651
 Red. masses --      1.0384                 1.0366                 1.0376
 Frc consts  --      5.6201                 5.6273                 5.6543
 IR Inten    --     31.9863                22.2246                15.7639

                     94                     95                     96
                      A                      A                      A
 Frequencies --   3080.7933              3082.4506              3089.5237
 Red. masses --      1.1022                 1.1017                 1.1029
 Frc consts  --      6.1638                 6.1674                 6.2028
 IR Inten    --      7.7666                21.5887                14.2366

                     97                     98                     99
                      A                      A                      A
 Frequencies --   3090.8234              3094.2809              3098.4357
 Red. masses --      1.1022                 1.1008                 1.1023
 Frc consts  --      6.2040                 6.2097                 6.2348
 IR Inten    --     32.3130                57.7701                20.2553

                    100                    101                    102
                      A                      A                      A
 Frequencies --   3099.9265              3110.4634              3120.2757
 Red. masses --      1.1021                 1.1007                 1.0998
 Frc consts  --      6.2401                 6.2742                 6.3089
 IR Inten    --     12.5603                43.4314                 1.8393

                    103                    104                    105
                      A                      A                      A
 Frequencies --   3122.8107              3130.9545              3133.7072
 Red. masses --      1.0993                 1.0983                 1.0976
 Frc consts  --      6.3164                 6.3435                 6.3504
 IR Inten    --     32.4686                 0.0741                17.6060

                    106                    107                    108
                      A                      A                      A
 Frequencies --   3203.5206              3223.6924              3543.5681
 Red. masses --      1.0905                 1.0903                 1.0755
 Frc consts  --      6.5937                 6.6756                 7.9570
 IR Inten    --      3.1295                 7.3155                70.7753

 - Thermochemistry -
 -------------------
 Temperature   298.150 Kelvin.  Pressure   1.00000 Atm.
 Atom     1 has atomic number  6 and mass  12.00000

 Molecular mass:   235.15723 amu.
 Principal axes and moments of inertia in atomic units:
                           1         2         3
     Eigenvalues --  2296.602086443.658717932.21954
           X            0.77012  -0.11781   0.62693
           Y           -0.63613  -0.06848   0.76854
           Z            0.04761   0.99067   0.12768
 This molecule is an asymmetric top.
 Rotational symmetry number  1.
 Warning -- assumption of classical behavior for rotation
           may cause significant error
 Rotational temperatures (Kelvin)      0.03771     0.01344     0.01092
 Rotational constants (GHZ):           0.78583     0.28008     0.22752
 Zero-point vibrational energy     854925.1 (Joules/Mol)
                                  204.33200 (Kcal/Mol)
 Warning -- explicit consideration of  31 degrees of freedom as
           vibrations may cause significant error
 Vibrational temperatures:     47.18    65.84   103.09   116.62   155.00
          (Kelvin)            199.02   245.59   259.09   295.86   314.25
                              333.40   348.48   375.51   391.16   397.03
                              400.98   421.72   470.95   487.63   495.24
                              541.60   567.79   597.48   611.89   651.51
                              659.52   682.80   683.50   758.37   812.64
                              854.59   895.88   991.52  1003.78  1086.90
                             1129.48  1158.40  1175.70  1205.41  1281.02
                             1323.13  1330.70  1332.27  1348.07  1354.55
                             1364.82  1389.25  1389.69  1439.72  1508.25
                             1510.80  1513.70  1524.27  1680.22  1754.14
                             1760.80  1772.19  1784.95  1790.51  1824.55
                             1836.27  1884.61  1943.77  1962.26  2004.80
                             2011.98  2018.04  2020.76  2054.43  2061.14
                             2126.98  2131.25  2143.06  2143.95  2151.94
                             2155.59  2158.44  2163.85  2167.04  2176.33
                             2187.44  2199.63  2237.69  2346.55  2401.09
                             2419.60  2463.91  4349.48  4351.83  4353.62
                             4360.76  4367.36  4375.70  4432.57  4434.96
                             4445.14  4447.01  4451.98  4457.96  4460.10
                             4475.26  4489.38  4493.03  4504.75  4508.71
                             4609.15  4638.17  5098.40

 Zero-point correction=                           0.325624 (Hartree/Particle)
 Thermal correction to Energy=                    0.344195
 Thermal correction to Enthalpy=                  0.345139
 Thermal correction to Gibbs Free Energy=         0.280192
 Sum of electronic and zero-point Energies=           -751.217816
 Sum of electronic and thermal Energies=              -751.199245
 Sum of electronic and thermal Enthalpies=            -751.198301
 Sum of electronic and thermal Free Energies=         -751.263248

                     E (Thermal)             CV                S
                      KCal/Mol        Cal/Mol-Kelvin    Cal/Mol-Kelvin
 Total                  215.986             71.853            136.693
 Electronic               0.000              0.000              0.000
 Translational            0.889              2.981             42.267
 Rotational               0.889              2.981             33.129
 Vibrational            214.208             65.892             61.298
 Vibration     1          0.594              1.983              5.653
 Vibration     2          0.595              1.979              4.993
 Vibration     3          0.598              1.968              4.107
 Vibration     4          0.600              1.962              3.865
 Vibration     5          0.606              1.943              3.309
 Vibration     6          0.614              1.915              2.827
 Vibration     7          0.626              1.879              2.428
 Vibration     8          0.629              1.867              2.328
 Vibration     9          0.640              1.832              2.082
 Vibration    10          0.646              1.813              1.972
 Vibration    11          0.653              1.792              1.866
 Vibration    12          0.658              1.776              1.787
 Vibration    13          0.669              1.744              1.655
 Vibration    14          0.675              1.725              1.584
 Vibration    15          0.678              1.718              1.559
 Vibration    16          0.679              1.713              1.542
 Vibration    17          0.688              1.687              1.456
 Vibration    18          0.711              1.621              1.273
 Vibration    19          0.719              1.598              1.217
 Vibration    20          0.723              1.587              1.193
 Vibration    21          0.747              1.520              1.053
 Vibration    22          0.762              1.482              0.983
 Vibration    23          0.779              1.437              0.908
 Vibration    24          0.787              1.415              0.874
 Vibration    25          0.811              1.355              0.787
 Vibration    26          0.816              1.342              0.771
 Vibration    27          0.831              1.306              0.725
 Vibration    28          0.832              1.305              0.724
 Vibration    29          0.882              1.190              0.594
 Vibration    30          0.921              1.107              0.514
 Vibration    31          0.952              1.045              0.460

                           ! Non-Optimized Parameters !
 Normal termination of Gaussian 16 at Wed Jan 10 18:34:02 2024.
