 Q-Chem 5.4, Q-Chem, Inc., Pleasanton, CA (2021)
 Q-Chem 5.4.0 for Intel X86 EM64T Linux

User input:
--------------------------------------------------------------
$molecule
-1 2
C                 -0.4669120000      1.1266480000     -0.4058730000
C                 -1.3696530000      0.0745050000     -0.8748630000
C                 -1.1941660000     -1.2463700000     -0.6044710000
C                 -0.0741630000     -1.7250180000      0.1887950000
C                  0.8146750000     -0.7005360000      0.6683220000
C                  0.6514970000      0.6603270000      0.4321300000
O                 -0.6526890000      2.3109610000     -0.7541530000
O                  0.1004260000     -2.9525530000      0.4405940000
C                  1.6019760000      1.6201920000      1.0413620000
C                  2.9892080000      1.0954910000      1.4425720000
O                  1.3459360000      2.7952910000      1.2602690000
H                 -2.2027010000      0.4206650000     -1.4805840000
H                 -1.8856860000     -1.9974260000     -0.9777950000
H                  1.6388480000     -1.0601080000      1.2747730000
H                  3.4410040000      0.4801770000      0.6606370000
H                  2.9221280000      0.4815670000      2.3467940000
H                  3.6229350000      1.9567570000      1.6561000000
$end
$rem
MAX_SCF_CYCLES=200
BASIS  =  6-311++G(d,p)
GUI  =  2
JOB_TYPE  =  SP
METHOD  =  B3LYP
SOLVENT_METHOD = PCM
$end
$pcm
theory = CPCM
$end
$solvent
dielectric 37.219
opticaldielectric 1.43
$end

--------------------------------------------------------------

             Standard Nuclear Orientation (Angstroms)
    I     Atom           X                Y                Z
 ----------------------------------------------------------------
    1      C      -0.4669120000     1.1266480000    -0.4058730000
    2      C      -1.3696530000     0.0745050000    -0.8748630000
    3      C      -1.1941660000    -1.2463700000    -0.6044710000
    4      C      -0.0741630000    -1.7250180000     0.1887950000
    5      C       0.8146750000    -0.7005360000     0.6683220000
    6      C       0.6514970000     0.6603270000     0.4321300000
    7      O      -0.6526890000     2.3109610000    -0.7541530000
    8      O       0.1004260000    -2.9525530000     0.4405940000
    9      C       1.6019760000     1.6201920000     1.0413620000
   10      C       2.9892080000     1.0954910000     1.4425720000
   11      O       1.3459360000     2.7952910000     1.2602690000
   12      H      -2.2027010000     0.4206650000    -1.4805840000
   13      H      -1.8856860000    -1.9974260000    -0.9777950000
   14      H       1.6388480000    -1.0601080000     1.2747730000
   15      H       3.4410040000     0.4801770000     0.6606370000
   16      H       2.9221280000     0.4815670000     2.3467940000
   17      H       3.6229350000     1.9567570000     1.6561000000
 ----------------------------------------------------------------

    9    -534.4204733406      6.63e-06  Convergence criterion met
 Total energy in the final basis set =     -534.4204733406

                    Orbital Energies (a.u.)
 --------------------------------------------------------------

 Alpha MOs
 -- Occupied --
-19.1085 -19.0881 -19.0877 -10.2604 -10.2369 -10.2280 -10.1797 -10.1773
-10.1733 -10.1717 -10.1616  -1.0426  -1.0140  -1.0073  -0.8337  -0.7717
 -0.7214  -0.6932  -0.6282  -0.5860  -0.5279  -0.4866  -0.4789  -0.4614
 -0.4427  -0.4372  -0.4230  -0.4142  -0.4110  -0.3896  -0.3857  -0.3826
 -0.3708  -0.3567  -0.2919  -0.2726  -0.2693  -0.2527  -0.2324  -0.1740

 Beta MOs
 -- Occupied --
-19.1077 -19.0818 -19.0806 -10.2603 -10.2360 -10.2267 -10.1786 -10.1750
-10.1730 -10.1706 -10.1616  -1.0409  -1.0041  -0.9941  -0.8275  -0.7693
 -0.7199  -0.6829  -0.6243  -0.5823  -0.5248  -0.4845  -0.4756  -0.4591
 -0.4395  -0.4345  -0.4215  -0.4080  -0.3954  -0.3867  -0.3809  -0.3690
 -0.3586  -0.3514  -0.2692  -0.2612  -0.2593  -0.2459  -0.2284

          Ground-State Mulliken Net Atomic Charges

     Atom                 Charge (a.u.)    Spin (a.u.)
  --------------------------------------------------------
      1 C                    -0.751769       0.028460
      2 C                     0.077617       0.091250
      3 C                     0.087656       0.015542
      4 C                    -0.360858       0.131531
      5 C                    -0.847118       0.150558
      6 C                     1.421371       0.082348
      7 O                    -0.463456       0.210179
      8 O                    -0.505233       0.263559
      9 C                     0.157266       0.018360
     10 C                    -0.614206       0.001273
     11 O                    -0.373872       0.028459
     12 H                     0.208644      -0.007229
     13 H                     0.213824      -0.002744
     14 H                     0.201368      -0.011582
     15 H                     0.170274      -0.000343
     16 H                     0.190471       0.000630
     17 H                     0.188020      -0.000251
  --------------------------------------------------------
  Sum of atomic charges =    -1.000000

                    Cartesian Multipole Moments
 -----------------------------------------------------------------
    Charge (ESU x 10^10)
                -4.8032
    Dipole Moment (Debye)
         X       0.8474      Y      -3.0405      Z      -0.6888
       Tot       3.2306
    Quadrupole Moments (Debye-Ang)
        XX     -61.6880     XY       0.6384     YY    -120.0551
        XZ       0.6949     YZ       2.0303     ZZ     -68.5901

 Total job time:  16.01s(wall), 117.67s(cpu)
        *  Thank you very much for using Q-Chem.  Have a nice day.  *
