 Q-Chem 5.4, Q-Chem, Inc., Pleasanton, CA (2021)
 Q-Chem 5.4.0 for Intel X86 EM64T Linux

User input:
--------------------------------------------------------------
$molecule
-2 2
C                  2.7533260000      0.5717490000      0.2141350000
C                  2.7000720000     -0.6068650000      0.9894610000
C                  1.5042510000     -1.2712300000      1.1546420000
C                 -0.9333840000     -1.5462090000      0.7704350000
O                 -0.9774890000     -2.5995340000      1.4640310000
C                 -2.1264690000     -1.0017560000      0.1284850000
C                 -3.3655800000     -1.6655360000      0.2832360000
C                 -4.5190690000     -1.1869680000     -0.3055370000
C                 -4.4731830000     -0.0053040000     -1.0845950000
C                 -3.2739550000      0.6600990000     -1.2497440000
C                 -2.0801090000      0.1909310000     -0.6578290000
C                 -0.8359820000      0.9371480000     -0.8666040000
O                 -0.8116390000      1.9836450000     -1.5602670000
C                  0.3645870000      0.3895140000     -0.2208510000
C                  1.6049540000      1.0565430000     -0.3774700000
H                  3.6103790000     -0.9769420000      1.4471660000
H                  1.4425120000     -2.1780410000      1.7457760000
H                 -3.3692120000     -2.5677180000      0.8853320000
H                 -5.4604430000     -1.7145170000     -0.1724090000
H                 -5.3787900000      0.3754270000     -1.5501950000
H                 -3.2063970000      1.5673320000     -1.8403240000
H                  1.6412820000      1.9594050000     -0.9732270000
C                  0.3101020000     -0.7996700000      0.5612640000
S                  4.3656290000      1.4149410000      0.0326970000
O                  5.2616120000      0.3861270000     -0.5719080000
O                  4.1140080000      2.5867620000     -0.8471430000
O                  4.7590690000      1.7783850000      1.4254540000
$end
$rem
MAX_SCF_CYCLES=200
BASIS  =  6-311++G(d,p)
GUI  =  2
JOB_TYPE  =  SP
METHOD  =  B3LYP
SOLVENT_METHOD = PCM
$end
$pcm
theory = CPCM
$end
$solvent
dielectric 37.219
opticaldielectric 1.43
$end

--------------------------------------------------------------

             Standard Nuclear Orientation (Angstroms)
    I     Atom           X                Y                Z
 ----------------------------------------------------------------
    1      C       2.7533260000     0.5717490000     0.2141350000
    2      C       2.7000720000    -0.6068650000     0.9894610000
    3      C       1.5042510000    -1.2712300000     1.1546420000
    4      C      -0.9333840000    -1.5462090000     0.7704350000
    5      O      -0.9774890000    -2.5995340000     1.4640310000
    6      C      -2.1264690000    -1.0017560000     0.1284850000
    7      C      -3.3655800000    -1.6655360000     0.2832360000
    8      C      -4.5190690000    -1.1869680000    -0.3055370000
    9      C      -4.4731830000    -0.0053040000    -1.0845950000
   10      C      -3.2739550000     0.6600990000    -1.2497440000
   11      C      -2.0801090000     0.1909310000    -0.6578290000
   12      C      -0.8359820000     0.9371480000    -0.8666040000
   13      O      -0.8116390000     1.9836450000    -1.5602670000
   14      C       0.3645870000     0.3895140000    -0.2208510000
   15      C       1.6049540000     1.0565430000    -0.3774700000
   16      H       3.6103790000    -0.9769420000     1.4471660000
   17      H       1.4425120000    -2.1780410000     1.7457760000
   18      H      -3.3692120000    -2.5677180000     0.8853320000
   19      H      -5.4604430000    -1.7145170000    -0.1724090000
   20      H      -5.3787900000     0.3754270000    -1.5501950000
   21      H      -3.2063970000     1.5673320000    -1.8403240000
   22      H       1.6412820000     1.9594050000    -0.9732270000
   23      C       0.3101020000    -0.7996700000     0.5612640000
   24      S       4.3656290000     1.4149410000     0.0326970000
   25      O       5.2616120000     0.3861270000    -0.5719080000
   26      O       4.1140080000     2.5867620000    -0.8471430000
   27      O       4.7590690000     1.7783850000     1.4254540000
 ----------------------------------------------------------------

    8   -1312.5691777194      8.74e-06  Convergence criterion met
 Total energy in the final basis set =    -1312.5691777194

                    Orbital Energies (a.u.)
 --------------------------------------------------------------

 Alpha MOs
 -- Occupied --
-89.0436 -19.0908 -19.0887 -19.0887 -19.0790 -19.0777 -10.2284 -10.2262
-10.1935 -10.1781 -10.1773 -10.1768 -10.1764 -10.1743 -10.1739 -10.1730
-10.1727 -10.1722 -10.1696 -10.1696  -8.1025  -6.0653  -6.0652  -6.0641
 -1.1065  -1.0059  -1.0013  -0.9725  -0.9685  -0.8648  -0.8526  -0.7891
 -0.7566  -0.7499  -0.7430  -0.6725  -0.6506  -0.6255  -0.5956  -0.5807
 -0.5570  -0.5315  -0.5226  -0.4863  -0.4725  -0.4662  -0.4567  -0.4520
 -0.4451  -0.4299  -0.4238  -0.4227  -0.4195  -0.4144  -0.4067  -0.3912
 -0.3824  -0.3715  -0.3569  -0.3477  -0.3452  -0.3346  -0.3337  -0.3331
 -0.3022  -0.2957  -0.2884  -0.2668  -0.2602  -0.2566  -0.2555  -0.2492
 -0.2470  -0.2400  -0.1445

 Beta MOs
 -- Occupied --
-89.0436 -19.0907 -19.0887 -19.0886 -19.0740 -19.0724 -10.2266 -10.2243
-10.1929 -10.1776 -10.1770 -10.1762 -10.1756 -10.1736 -10.1732 -10.1730
-10.1723 -10.1718 -10.1696 -10.1695  -8.1025  -6.0653  -6.0652  -6.0641
 -1.1064  -0.9968  -0.9918  -0.9725  -0.9685  -0.8623  -0.8513  -0.7851
 -0.7544  -0.7481  -0.7411  -0.6658  -0.6483  -0.6232  -0.5944  -0.5798
 -0.5546  -0.5295  -0.5213  -0.4847  -0.4707  -0.4645  -0.4556  -0.4517
 -0.4448  -0.4295  -0.4221  -0.4174  -0.4108  -0.4101  -0.4045  -0.3892
 -0.3680  -0.3593  -0.3558  -0.3469  -0.3366  -0.3339  -0.3323  -0.3320
 -0.2982  -0.2957  -0.2879  -0.2565  -0.2554  -0.2485  -0.2469  -0.2445
 -0.2419  -0.2352

          Ground-State Mulliken Net Atomic Charges

     Atom                 Charge (a.u.)    Spin (a.u.)
  --------------------------------------------------------
      1 C                    -1.170721       0.023992
      2 C                    -0.644231       0.047541
      3 C                    -0.221337       0.027102
      4 C                    -0.390288       0.113950
      5 O                    -0.478363       0.202938
      6 C                     0.297357       0.019612
      7 C                     0.088283       0.033561
      8 C                    -0.516090       0.030229
      9 C                    -0.487368       0.039706
     10 C                     0.076336       0.022516
     11 C                     0.214507       0.031227
     12 C                    -0.738646       0.099941
     13 O                    -0.463841       0.193344
     14 C                     0.648503       0.064657
     15 C                     0.276397       0.013706
     16 H                     0.238930      -0.003647
     17 H                     0.173773      -0.001264
     18 H                     0.171759      -0.001943
     19 H                     0.199057      -0.002683
     20 H                     0.200032      -0.003164
     21 H                     0.171132      -0.001499
     22 H                     0.207322      -0.001026
     23 C                     0.580375       0.050178
     24 S                     0.774729       0.002052
     25 O                    -0.392184      -0.000710
     26 O                    -0.427896       0.000239
     27 O                    -0.387529      -0.000554
  --------------------------------------------------------
  Sum of atomic charges =    -2.000000

                    Cartesian Multipole Moments
 -----------------------------------------------------------------
    Charge (ESU x 10^10)
                -9.6064
    Dipole Moment (Debye)
         X     -21.7069      Y      -7.4365      Z       0.2956
       Tot      22.9473
    Quadrupole Moments (Debye-Ang)
        XX    -251.2903     XY     -41.6787     YY    -172.4807
        XZ       2.4915     YZ      12.8353     ZZ    -147.1752

 Total job time:  66.06s(wall), 465.23s(cpu)
        *  Thank you very much for using Q-Chem.  Have a nice day.  *
