 Gaussian 16, Revision A.03,
 Gaussian 16:  ES64L-G16RevA.03 25-Dec-2016

 ----------------------------------------------------------------
 #P UB3LYP/6-311++G(d,p) SCRF=(PCM,Solvent=n,n-DiMethylFormamide)
 ----------------------------------------------------------------

 ------------------
 Radical PCM in DMF
 ------------------
 Symbolic Z-matrix:
 Charge = -2 Multiplicity = 2

                         Standard orientation:
 ---------------------------------------------------------------------
 Center     Atomic      Atomic             Coordinates (Angstroms)
 Number     Number       Type             X           Y           Z
 ---------------------------------------------------------------------
      1          6           0       -2.223183    0.203286   -0.002914
      2          6           0       -1.922904    1.582753   -0.002351
      3          6           0       -0.610891    2.003792   -0.001540
      4          6           0        1.836396    1.584175   -0.000017
      5          8           0        2.101344    2.817997    0.000383
      6          6           0        2.891282    0.574622    0.000372
      7          6           0        4.245602    0.981761    0.001247
      8          6           0        5.275548    0.062289    0.001575
      9          6           0        4.981847   -1.323029    0.001034
     10          6           0        3.666280   -1.744295    0.000164
     11          6           0        2.594796   -0.823604   -0.000173
     12          6           0        1.218213   -1.326889   -0.001166
     13          8           0        0.974075   -2.558682   -0.001573
     14          6           0        0.156665   -0.311320   -0.001613
     15          6           0       -1.199572   -0.721916   -0.002481
     16          1           0       -2.737203    2.298311   -0.004134
     17          1           0       -0.359471    3.058470   -0.001547
     18          1           0        4.439059    2.049019    0.001626
     19          1           0        6.309345    0.399157    0.002260
     20          1           0        5.789407   -2.050842    0.001282
     21          1           0        3.409099   -2.797993   -0.000257
     22          1           0       -1.425172   -1.780457   -0.003553
     23          6           0        0.460375    1.080295   -0.001035
     24         16           0       -3.981446   -0.298622    0.001032
     25          8           0       -4.554615    0.331255   -1.224335
     26          8           0       -3.979210   -1.785095   -0.030387
     27          8           0       -4.534676    0.278371    1.261061
 ---------------------------------------------------------------------

 SCF Done:  E(UB3LYP) =  -1312.56224936     A.U. after   20 cycles

 The electronic state is 2-A.
 Alpha  occ. eigenvalues --  -89.03941 -19.08642 -19.08439 -19.08434 -19.07685
 Alpha  occ. eigenvalues --  -19.07563 -10.22601 -10.22386 -10.19190 -10.17670
 Alpha  occ. eigenvalues --  -10.17647 -10.17575 -10.17479 -10.17355 -10.17333
 Alpha  occ. eigenvalues --  -10.17304 -10.17289 -10.17229 -10.16980 -10.16976
 Alpha  occ. eigenvalues --   -8.09826  -6.06103  -6.06092  -6.05990  -1.10201
 Alpha  occ. eigenvalues --   -1.00353  -0.99899  -0.96789  -0.96386  -0.86355
 Alpha  occ. eigenvalues --   -0.85213  -0.78804  -0.75539  -0.74965  -0.74226
 Alpha  occ. eigenvalues --   -0.67097  -0.64921  -0.62454  -0.59457  -0.57904
 Alpha  occ. eigenvalues --   -0.55615  -0.53095  -0.52038  -0.48391  -0.47094
 Alpha  occ. eigenvalues --   -0.46536  -0.45633  -0.44712  -0.44113  -0.42928
 Alpha  occ. eigenvalues --   -0.42261  -0.42205  -0.41807  -0.41219  -0.40532
 Alpha  occ. eigenvalues --   -0.39031  -0.38019  -0.37042  -0.35667  -0.34728
 Alpha  occ. eigenvalues --   -0.34390  -0.33390  -0.32889  -0.32856  -0.29834
 Alpha  occ. eigenvalues --   -0.29106  -0.28460  -0.26543  -0.25906  -0.25584
 Alpha  occ. eigenvalues --   -0.25051  -0.24662  -0.24561  -0.23755  -0.14290
 Alpha virt. eigenvalues --   -0.05500  -0.02581  -0.00474  -0.00108   0.00758
 Alpha virt. eigenvalues --    0.01527   0.02385   0.02701   0.04249   0.04419
 Alpha virt. eigenvalues --    0.04556   0.04694   0.04804   0.05583   0.06325

  Beta  occ. eigenvalues --  -89.03942 -19.08640 -19.08436 -19.08431 -19.07142
  Beta  occ. eigenvalues --  -19.06995 -10.22438 -10.22205 -10.19133 -10.17616
  Beta  occ. eigenvalues --  -10.17603 -10.17541 -10.17391 -10.17313 -10.17259
  Beta  occ. eigenvalues --  -10.17255 -10.17229 -10.17216 -10.16982 -10.16968
  Beta  occ. eigenvalues --   -8.09827  -6.06104  -6.06093  -6.05993  -1.10196
  Beta  occ. eigenvalues --   -0.99400  -0.98892  -0.96784  -0.96380  -0.86102
  Beta  occ. eigenvalues --   -0.85085  -0.78406  -0.75322  -0.74786  -0.74042
  Beta  occ. eigenvalues --   -0.66419  -0.64710  -0.62230  -0.59347  -0.57808
  Beta  occ. eigenvalues --   -0.55369  -0.52902  -0.51910  -0.48234  -0.46908
  Beta  occ. eigenvalues --   -0.46372  -0.45523  -0.44684  -0.44087  -0.42884
  Beta  occ. eigenvalues --   -0.42216  -0.41611  -0.40922  -0.40748  -0.40287
  Beta  occ. eigenvalues --   -0.38813  -0.36705  -0.35669  -0.35556  -0.34649
  Beta  occ. eigenvalues --   -0.33414  -0.33242  -0.32841  -0.32798  -0.29417
  Beta  occ. eigenvalues --   -0.29102  -0.28408  -0.25578  -0.25039  -0.24711
  Beta  occ. eigenvalues --   -0.24520  -0.24153  -0.24036  -0.23246
  Beta virt. eigenvalues --   -0.08404  -0.04579  -0.01536  -0.00249  -0.00092
  Beta virt. eigenvalues --    0.00758   0.01535   0.02401   0.02697   0.04431
  Beta virt. eigenvalues --    0.04445   0.04702   0.04824   0.05147   0.05664

 Mulliken charges and spin densities:
               1          2
     1  C   -1.150227   0.023973
     2  C   -0.630358   0.045821
     3  C   -0.215769   0.025932
     4  C   -0.452771   0.104653
     5  O   -0.458934   0.210933
     6  C    0.313581   0.023125
     7  C    0.091945   0.032586
     8  C   -0.493274   0.029994
     9  C   -0.466608   0.040558
    10  C    0.077981   0.019968
    11  C    0.240356   0.035098
    12  C   -0.779343   0.090645
    13  O   -0.444763   0.201338
    14  C    0.645759   0.066669
    15  C    0.282452   0.011998
    16  H    0.218639  -0.003565
    17  H    0.165114  -0.001252
    18  H    0.164958  -0.001934
    19  H    0.182257  -0.002618
    20  H    0.183222  -0.003235
    21  H    0.163095  -0.001363
    22  H    0.205927  -0.000898
    23  C    0.570171   0.050688
    24  S    0.754056   0.001721
    25  O   -0.378747  -0.000613
    26  O   -0.414192   0.000273
    27  O   -0.374526  -0.000497
 Sum of Mulliken charges =  -2.00000   1.00000

 Dipole moment (field-independent basis, Debye):
    X=             16.8047    Y=              1.7077    Z=             -0.0157  Tot=             16.8913
 Quadrupole moment (field-independent basis, Debye-Ang):
   XX=           -243.5166   YY=           -165.9268   ZZ=           -139.1655
   XY=            -17.6143   XZ=              0.0641   YZ=             -0.0157

 Normal termination of Gaussian 16 at Tue Jan 16 16:54:22 2024.
