 Gaussian 16, Revision A.03,
 Gaussian 16:  ES64L-G16RevA.03 25-Dec-2016

 ----------------------------------------------------------------------
 #P UB3LYP/6-311++G(d,p) nosym opt freq SCRF=(PCM,Solvent=n,n-DiMethylF
 ormamide)
 ----------------------------------------------------------------------

 --------
 Oxidized
 --------
 Symbolic Z-matrix:
 Charge =  0 Multiplicity = 1

 SCF Done:  E(UB3LYP) =  -764.208902982     A.U. after   15 cycles
 SCF Done:  E(UB3LYP) =  -764.209017042     A.U. after   11 cycles
 SCF Done:  E(UB3LYP) =  -764.209030552     A.U. after   11 cycles
 SCF Done:  E(UB3LYP) =  -764.209031975     A.U. after    9 cycles
 Optimization completed.
    -- Stationary point found.
 Normal termination of Gaussian 16 at Sun Feb 11 15:23:28 2024.

 ----------------------------------------------------------------------
 #P Geom=AllCheck Guess=TCheck SCRF=Check GenChk UB3LYP/6-311++G(d,p) F
 req
 ----------------------------------------------------------------------

 Structure from the checkpoint file:  "329.chk"
 --------
 Oxidized
 --------
 Charge =  0 Multiplicity = 1

                          Input orientation:
 ---------------------------------------------------------------------
 Center     Atomic      Atomic             Coordinates (Angstroms)
 Number     Number       Type             X           Y           Z
 ---------------------------------------------------------------------
      1          6           0       -0.642388    2.683346   -0.962897
      2          6           0       -1.717915    2.062993   -0.369006
      3          6           0       -1.590202    0.755680    0.155775
      4          6           0        0.607782    2.019292   -1.056180
      5          6           0        0.737291    0.695327   -0.524338
      6          6           0       -0.389513    0.085086    0.080703
      7          6           0        1.735608    2.624805   -1.660145
      8          6           0        2.942115    1.960364   -1.739214
      9          6           0        3.074654    0.638866   -1.208239
     10          6           0        1.989877    0.034653   -0.618860
     11          6           0        4.096870    2.611025   -2.371529
     12          6           0        5.382528    1.842144   -2.427638
     13          6           0        5.503952    0.595090   -1.924818
     14          6           0        4.379643   -0.086879   -1.289110
     15          8           0        4.092335    3.737821   -2.857509
     16          8           0        4.508928   -1.223152   -0.834800
     17          8           0        6.393463    2.489209   -3.013545
     18          1           0       -0.736949    3.685380   -1.365905
     19          1           0       -2.670305    2.575382   -0.300712
     20          1           0       -2.446834    0.281308    0.620156
     21          1           0       -0.292389   -0.916805    0.483480
     22          1           0        1.652503    3.625726   -2.067493
     23          1           0        2.096987   -0.966892   -0.219275
     24          1           0        6.445185    0.061067   -1.978347
     25          1           0        6.049077    3.361436   -3.286817
 ---------------------------------------------------------------------

 SCF Done:  E(UB3LYP) =  -764.209031975     A.U. after    1 cycles

 Alpha  occ. eigenvalues --  -19.18659 -19.15127 -19.12613 -10.29673 -10.28165
 Alpha  occ. eigenvalues --  -10.27787 -10.21342 -10.21148 -10.21087 -10.21011
 Alpha  occ. eigenvalues --  -10.20978 -10.20425 -10.19956 -10.19690 -10.19648
 Alpha  occ. eigenvalues --  -10.19571 -10.19513  -1.11505  -1.07101  -1.05662
 Alpha  occ. eigenvalues --   -0.90695  -0.86572  -0.82610  -0.80445  -0.77168
 Alpha  occ. eigenvalues --   -0.75553  -0.70128  -0.67705  -0.64667  -0.62591
 Alpha  occ. eigenvalues --   -0.61314  -0.57328  -0.56612  -0.53537  -0.52778
 Alpha  occ. eigenvalues --   -0.49830  -0.48815  -0.47377  -0.46929  -0.46263
 Alpha  occ. eigenvalues --   -0.45777  -0.44882  -0.44135  -0.43199  -0.42804
 Alpha  occ. eigenvalues --   -0.41615  -0.40764  -0.40075  -0.39516  -0.37260
 Alpha  occ. eigenvalues --   -0.35735  -0.34869  -0.31368  -0.30568  -0.28535
 Alpha  occ. eigenvalues --   -0.28080  -0.26736  -0.24698
 Alpha virt. eigenvalues --   -0.12689  -0.08416  -0.03604  -0.01792  -0.00783
 Alpha virt. eigenvalues --   -0.00016   0.00745   0.01779   0.01989   0.02156
 Alpha virt. eigenvalues --    0.03493   0.03712   0.03782   0.04550   0.04896

  Beta  occ. eigenvalues --  -19.18659 -19.15127 -19.12613 -10.29673 -10.28165
  Beta  occ. eigenvalues --  -10.27787 -10.21342 -10.21148 -10.21087 -10.21011
  Beta  occ. eigenvalues --  -10.20978 -10.20425 -10.19956 -10.19690 -10.19648
  Beta  occ. eigenvalues --  -10.19571 -10.19513  -1.11505  -1.07101  -1.05662
  Beta  occ. eigenvalues --   -0.90695  -0.86572  -0.82610  -0.80445  -0.77168
  Beta  occ. eigenvalues --   -0.75553  -0.70128  -0.67705  -0.64667  -0.62591
  Beta  occ. eigenvalues --   -0.61314  -0.57328  -0.56612  -0.53537  -0.52778
  Beta  occ. eigenvalues --   -0.49830  -0.48815  -0.47377  -0.46929  -0.46263
  Beta  occ. eigenvalues --   -0.45777  -0.44882  -0.44135  -0.43199  -0.42804
  Beta  occ. eigenvalues --   -0.41615  -0.40764  -0.40075  -0.39516  -0.37260
  Beta  occ. eigenvalues --   -0.35735  -0.34869  -0.31368  -0.30568  -0.28535
  Beta  occ. eigenvalues --   -0.28080  -0.26736  -0.24698
  Beta virt. eigenvalues --   -0.12689  -0.08416  -0.03604  -0.01792  -0.00783
  Beta virt. eigenvalues --   -0.00016   0.00745   0.01779   0.01989   0.02156
  Beta virt. eigenvalues --    0.03493   0.03712   0.03782   0.04550   0.04896

 Mulliken charges and spin densities:
               1          2
     1  C   -0.152745  -0.000000
     2  C   -0.329699  -0.000000
     3  C   -0.328785  -0.000000
     4  C    0.210183   0.000000
     5  C    0.204540  -0.000000
     6  C   -0.145695  -0.000000
     7  C    0.209564  -0.000000
     8  C    0.391516   0.000000
     9  C    0.327482  -0.000000
    10  C    0.204836   0.000000
    11  C   -0.761040  -0.000000
    12  C   -0.436676   0.000000
    13  C    0.500332  -0.000000
    14  C   -0.676309  -0.000000
    15  O   -0.308130   0.000000
    16  O   -0.324930   0.000000
    17  O   -0.224323  -0.000000
    18  H    0.180998   0.000000
    19  H    0.204515   0.000000
    20  H    0.204553  -0.000000
    21  H    0.181286  -0.000000
    22  H    0.164043  -0.000000
    23  H    0.153886   0.000000
    24  H    0.241918   0.000000
    25  H    0.308683  -0.000000
 Sum of Mulliken charges =  -0.00000  -0.00000

 Dipole moment (field-independent basis, Debye):
    X=             -5.3565    Y=              2.3563    Z=              0.6001  Tot=              5.8825
 Quadrupole moment (field-independent basis, Debye-Ang):
   XX=           -112.4422   YY=            -98.3724   ZZ=            -99.7083
   XY=              3.9270   XZ=              2.0831   YZ=             -1.8052

  Exact polarizability: 394.001  -9.168 269.093 -81.824 -65.578 164.223
 Approx polarizability: 437.691 -10.423 353.659 -88.328 -92.858 198.510

                      1                      2                      3
                      A                      A                      A
 Frequencies --     56.4877                79.3198               105.0163
 Red. masses --      7.8561                 5.1464                 7.9826
 Frc consts  --      0.0148                 0.0191                 0.0519
 IR Inten    --      3.7349                 0.0015                 3.1173

                      4                      5                      6
                      A                      A                      A
 Frequencies --    169.4301               171.6436               234.4356
 Red. masses --      6.4265                 6.9239                 4.4077
 Frc consts  --      0.1087                 0.1202                 0.1427
 IR Inten    --      2.4418                 1.1042                 0.4310

                      7                      8                      9
                      A                      A                      A
 Frequencies --    250.3208               301.0908               327.3925
 Red. masses --      5.4571                 6.7346                 6.7478
 Frc consts  --      0.2015                 0.3597                 0.4261
 IR Inten    --      1.7208                 1.9144                29.2851

                     10                     11                     12
                      A                      A                      A
 Frequencies --    348.0399               390.5579               412.8518
 Red. masses --      6.6270                 3.5381                10.8842
 Frc consts  --      0.4730                 0.3180                 1.0930
 IR Inten    --     11.4014                 0.0322                50.8031

                     13                     14                     15
                      A                      A                      A
 Frequencies --    445.9148               485.5764               486.2768
 Red. masses --      5.2614                 2.6346                 9.1600
 Frc consts  --      0.6164                 0.3660                 1.2762
 IR Inten    --      5.1157                28.3759                 8.0748

                     16                     17                     18
                      A                      A                      A
 Frequencies --    489.1570               513.4072               596.6209
 Red. masses --      7.7515                 4.0769                 7.2625
 Frc consts  --      1.0928                 0.6332                 1.5231
 IR Inten    --     30.6176                 0.0527                 8.9105

                     19                     20                     21
                      A                      A                      A
 Frequencies --    600.3460               619.9571               631.4015
 Red. masses --      1.1164                 6.8502                 4.2276
 Frc consts  --      0.2371                 1.5512                 0.9930
 IR Inten    --    150.2751                 6.9289                 4.5061

                     22                     23                     24
                      A                      A                      A
 Frequencies --    665.7051               708.3809               740.4398
 Red. masses --      6.8265                 5.2580                 3.5774
 Frc consts  --      1.7824                 1.5545                 1.1556
 IR Inten    --      7.4271                25.6941                 1.0806

                     25                     26                     27
                      A                      A                      A
 Frequencies --    758.8956               759.8418               771.3075
 Red. masses --      4.4349                 5.5696                 2.3223
 Frc consts  --      1.5049                 1.8946                 0.8140
 IR Inten    --      1.6221                 5.9013                35.9885

                     28                     29                     30
                      A                      A                      A
 Frequencies --    774.6124               790.8734               872.8781
 Red. masses --      2.2319                 4.5545                 1.4324
 Frc consts  --      0.7890                 1.6784                 0.6430
 IR Inten    --     63.0951                 2.2662                73.6697

                     31                     32                     33
                      A                      A                      A
 Frequencies --    877.0448               902.5203               939.4350
 Red. masses --      1.3445                 5.1673                 1.5031
 Frc consts  --      0.6093                 2.4798                 0.7816
 IR Inten    --      0.0107                28.3400                 2.1052

                     34                     35                     36
                      A                      A                      A
 Frequencies --    949.1874               991.5049               991.7946
 Red. masses --      1.4520                 3.6276                 1.4730
 Frc consts  --      0.7708                 2.1012                 0.8537
 IR Inten    --     25.6639                72.9895                15.4882

                     37                     38                     39
                      A                      A                      A
 Frequencies --   1012.9829              1039.1316              1080.7853
 Red. masses --      1.3125                 2.3455                 3.1260
 Frc consts  --      0.7935                 1.4922                 2.1514
 IR Inten    --      0.0084                 7.6857                49.2046

                     40                     41                     42
                      A                      A                      A
 Frequencies --   1154.5927              1176.6468              1193.5281
 Red. masses --      1.5590                 1.1708                 1.8653
 Frc consts  --      1.2245                 0.9551                 1.5656
 IR Inten    --      5.1804                 0.3614               180.8688

                     43                     44                     45
                      A                      A                      A
 Frequencies --   1220.6661              1232.1499              1250.2471
 Red. masses --      1.5016                 1.7582                 3.1318
 Frc consts  --      1.3183                 1.5727                 2.8843
 IR Inten    --    368.0626               143.8060               185.4755

                     46                     47                     48
                      A                      A                      A
 Frequencies --   1267.0419              1284.6657              1315.8268
 Red. masses --      2.1389                 2.2708                 4.8676
 Frc consts  --      2.0232                 2.2081                 4.9655
 IR Inten    --    191.1186                 5.5177               628.1318

                     49                     50                     51
                      A                      A                      A
 Frequencies --   1357.6604              1389.5961              1412.9919
 Red. masses --      2.3625                 6.5397                 2.3097
 Frc consts  --      2.5656                 7.4402                 2.7169
 IR Inten    --     47.9959                 5.6959               676.7529

                     52                     53                     54
                      A                      A                      A
 Frequencies --   1427.3931              1480.6386              1480.8290
 Red. masses --      3.7731                 2.8709                 2.9259
 Frc consts  --      4.5294                 3.7083                 3.7803
 IR Inten    --     70.7205                19.2195               104.1965

                     55                     56                     57
                      A                      A                      A
 Frequencies --   1532.9104              1598.8390              1611.9795
 Red. masses --      3.4724                 6.9566                 6.7922
 Frc consts  --      4.8074                10.4774                10.3987
 IR Inten    --     35.3070                62.3277               352.2934

                     58                     59                     60
                      A                      A                      A
 Frequencies --   1644.5886              1668.9965              1680.9003
 Red. masses --      5.7738                10.8104                 6.8544
 Frc consts  --      9.2009                17.7421                11.4105
 IR Inten    --    195.3801               340.6666               743.9396

                     61                     62                     63
                      A                      A                      A
 Frequencies --   1696.3408              3172.1276              3177.0309
 Red. masses --     10.1615                 1.0867                 1.0889
 Frc consts  --     17.2280                 6.4424                 6.4755
 IR Inten    --    174.6238                 1.2214                 0.1848

                     64                     65                     66
                      A                      A                      A
 Frequencies --   3186.5255              3189.6059              3190.9538
 Red. masses --      1.0941                 1.0911                 1.0909
 Frc consts  --      6.5453                 6.5404                 6.5444
 IR Inten    --     21.8316                 5.9950                 0.4606

                     67                     68                     69
                      A                      A                      A
 Frequencies --   3194.1330              3196.8556              3611.6780
 Red. masses --      1.0924                 1.0976                 1.0645
 Frc consts  --      6.5664                 6.6091                 8.1809
 IR Inten    --      5.6460                32.8374               274.1996

 - Thermochemistry -
 -------------------
 Temperature   298.150 Kelvin.  Pressure   1.00000 Atm.
 Atom     1 has atomic number  6 and mass  12.00000

 Molecular mass:   224.04734 amu.
 Principal axes and moments of inertia in atomic units:
                           1         2         3
     Eigenvalues --  1712.487565728.985947441.47175
           X            0.94873  -0.16748   0.26808
           Y            0.05475   0.92235   0.38245
           Z           -0.31132  -0.34817   0.88423
 This molecule is an asymmetric top.
 Rotational symmetry number  1.
 Warning -- assumption of classical behavior for rotation
           may cause significant error
 Rotational temperatures (Kelvin)      0.05058     0.01512     0.01164
 Rotational constants (GHZ):           1.05387     0.31502     0.24252
 Zero-point vibrational energy     480542.9 (Joules/Mol)
                                  114.85252 (Kcal/Mol)
 Warning -- explicit consideration of  20 degrees of freedom as
           vibrations may cause significant error
 Vibrational temperatures:     81.27   114.12   151.10   243.77   246.96
          (Kelvin)            337.30   360.16   433.20   471.04   500.75
                              561.93   594.00   641.57   698.64   699.64
                              703.79   738.68   858.40   863.76   891.98
                              908.45   957.80  1019.20  1065.33  1091.88
                             1093.24  1109.74  1114.49  1137.89  1255.88
                             1261.87  1298.53  1351.64  1365.67  1426.55
                             1426.97  1457.46  1495.08  1555.01  1661.20
                             1692.93  1717.22  1756.27  1772.79  1798.83
                             1822.99  1848.35  1893.18  1953.37  1999.32
                             2032.98  2053.70  2130.31  2130.58  2205.52
                             2300.37  2319.28  2366.20  2401.31  2418.44
                             2440.66  4563.98  4571.04  4584.70  4589.13
                             4591.07  4595.64  4599.56  5196.40

 Zero-point correction=                           0.183029 (Hartree/Particle)
 Thermal correction to Energy=                    0.195376
 Thermal correction to Enthalpy=                  0.196321
 Thermal correction to Gibbs Free Energy=         0.144192
 Sum of electronic and zero-point Energies=           -764.026003
 Sum of electronic and thermal Energies=              -764.013656
 Sum of electronic and thermal Enthalpies=            -764.012711
 Sum of electronic and thermal Free Energies=         -764.064840

                     E (Thermal)             CV                S
                      KCal/Mol        Cal/Mol-Kelvin    Cal/Mol-Kelvin
 Total                  122.601             50.193            109.713
 Electronic               0.000              0.000              0.000
 Translational            0.889              2.981             42.123
 Rotational               0.889              2.981             32.657
 Vibrational            120.823             44.231             34.934
 Vibration     1          0.596              1.975              4.576
 Vibration     2          0.600              1.963              3.908
 Vibration     3          0.605              1.945              3.359
 Vibration     4          0.625              1.880              2.442
 Vibration     5          0.626              1.877              2.417
 Vibration     6          0.654              1.788              1.845
 Vibration     7          0.663              1.762              1.728
 Vibration     8          0.693              1.672              1.411
 Vibration     9          0.711              1.621              1.273
 Vibration    10          0.726              1.579              1.175
 Vibration    11          0.758              1.490              0.998
 Vibration    12          0.777              1.442              0.917
 Vibration    13          0.805              1.370              0.808
 Vibration    14          0.842              1.282              0.695
 Vibration    15          0.842              1.280              0.693
 Vibration    16          0.845              1.274              0.686
 Vibration    17          0.868              1.220              0.625
 Vibration    18          0.954              1.039              0.456
 Vibration    19          0.958              1.031              0.449
 Vibration    20          0.980              0.990              0.417

 Optimization completed.
    -- Stationary point found.
 Normal termination of Gaussian 16 at Sun Feb 11 16:22:15 2024.
