 Q-Chem 5.4, Q-Chem, Inc., Pleasanton, CA (2021)
 Q-Chem 5.4.0 for Intel X86 EM64T Linux

User input:
--------------------------------------------------------------
$molecule
-1 2
C                 -3.0710990000      3.5479720000      1.0671990000
C                 -3.9875690000      2.9250240000      1.8903400000
C                 -3.8460090000      1.5533420000      2.1933720000
C                 -1.9817070000      2.8373630000      0.5159640000
C                 -1.8408940000      1.4577190000      0.8219460000
C                 -2.7898910000      0.8390120000      1.6652280000
C                 -1.0403240000      3.5551690000     -0.3530930000
C                  0.0809520000      2.7742240000     -0.8829480000
C                  0.2089080000      1.3744430000     -0.5856190000
C                 -0.7398820000      0.6658760000      0.2784520000
C                  1.0810630000      3.3337010000     -1.7278480000
C                  2.1054840000      2.5800880000     -2.2620810000
C                  2.2032760000      1.2073370000     -1.9652190000
C                  1.2707960000      0.6253970000     -1.1353230000
O                 -1.2188660000      4.7709680000     -0.6131320000
O                 -0.6124310000     -0.5560870000      0.5360950000
H                 -2.6544090000     -0.2150400000      1.8779470000
H                  1.3137380000     -0.4260590000     -0.8783340000
H                 -3.1557210000      4.5992220000      0.8188910000
O                  1.0427530000      4.6691890000     -2.1296150000
H                  3.0115040000      0.6198410000     -2.3887130000
H                 -4.5672170000      1.0633050000      2.8406320000
C                  1.5516890000      5.6386830000     -1.3184600000
C                  1.3974730000      6.9689440000     -1.7608100000
C                  2.2418520000      5.3874710000     -0.1329460000
C                  2.7911870000      6.4402910000      0.5992720000
C                  1.9598820000      8.0064490000     -1.0254040000
C                  2.6621170000      7.7522530000      0.1542720000
O                  0.7602200000      7.2544490000     -2.9434440000
C                 -0.6636380000      7.0330610000     -2.9380040000
H                 -4.8172350000      3.4891070000      2.3059120000
H                  2.8230940000      3.0722020000     -2.9085210000
H                  2.3472220000      4.3664330000      0.2102560000
H                  3.3220680000      6.2239960000      1.5201830000
H                  1.8341050000      9.0165610000     -1.3996930000
H                  3.0921930000      8.5721760000      0.7189230000
H                 -0.9713960000      7.0189260000     -3.9846730000
H                 -1.1620110000      7.8627120000     -2.4215240000
H                 -0.9212890000      6.0948510000     -2.4458310000
$end

$rem
BASIS  =  6-311++G(d,p)
GUI  =  2
JOB_TYPE  =  SP
METHOD  =  B3LYP
SCF_CONVERGENCE  = 8
SOLVENT_METHOD = sm12
$end

$smx
solvent dimethylformamide
charges CM5
$end

--------------------------------------------------------------

             Standard Nuclear Orientation (Angstroms)
    I     Atom           X                Y                Z
 ----------------------------------------------------------------
    1      C      -3.0710990000     3.5479720000     1.0671990000
    2      C      -3.9875690000     2.9250240000     1.8903400000
    3      C      -3.8460090000     1.5533420000     2.1933720000
    4      C      -1.9817070000     2.8373630000     0.5159640000
    5      C      -1.8408940000     1.4577190000     0.8219460000
    6      C      -2.7898910000     0.8390120000     1.6652280000
    7      C      -1.0403240000     3.5551690000    -0.3530930000
    8      C       0.0809520000     2.7742240000    -0.8829480000
    9      C       0.2089080000     1.3744430000    -0.5856190000
   10      C      -0.7398820000     0.6658760000     0.2784520000
   11      C       1.0810630000     3.3337010000    -1.7278480000
   12      C       2.1054840000     2.5800880000    -2.2620810000
   13      C       2.2032760000     1.2073370000    -1.9652190000
   14      C       1.2707960000     0.6253970000    -1.1353230000
   15      O      -1.2188660000     4.7709680000    -0.6131320000
   16      O      -0.6124310000    -0.5560870000     0.5360950000
   17      H      -2.6544090000    -0.2150400000     1.8779470000
   18      H       1.3137380000    -0.4260590000    -0.8783340000
   19      H      -3.1557210000     4.5992220000     0.8188910000
   20      O       1.0427530000     4.6691890000    -2.1296150000
   21      H       3.0115040000     0.6198410000    -2.3887130000
   22      H      -4.5672170000     1.0633050000     2.8406320000
   23      C       1.5516890000     5.6386830000    -1.3184600000
   24      C       1.3974730000     6.9689440000    -1.7608100000
   25      C       2.2418520000     5.3874710000    -0.1329460000
   26      C       2.7911870000     6.4402910000     0.5992720000
   27      C       1.9598820000     8.0064490000    -1.0254040000
   28      C       2.6621170000     7.7522530000     0.1542720000
   29      O       0.7602200000     7.2544490000    -2.9434440000
   30      C      -0.6636380000     7.0330610000    -2.9380040000
   31      H      -4.8172350000     3.4891070000     2.3059120000
   32      H       2.8230940000     3.0722020000    -2.9085210000
   33      H       2.3472220000     4.3664330000     0.2102560000
   34      H       3.3220680000     6.2239960000     1.5201830000
   35      H       1.8341050000     9.0165610000    -1.3996930000
   36      H       3.0921930000     8.5721760000     0.7189230000
   37      H      -0.9713960000     7.0189260000    -3.9846730000
   38      H      -1.1620110000     7.8627120000    -2.4215240000
   39      H      -0.9212890000     6.0948510000    -2.4458310000
 ----------------------------------------------------------------

   18   -1109.9055475642      6.00e-09  Convergence criterion met
 Total energy in the final basis set =    -1109.9891369613

                    Orbital Energies (a.u.)
 --------------------------------------------------------------

 Alpha MOs
 -- Occupied --
-19.1647 -19.1388 -19.0782 -19.0769 -10.2445 -10.2435 -10.2319 -10.2306
-10.2278 -10.2047 -10.1894 -10.1839 -10.1839 -10.1825 -10.1820 -10.1817
-10.1808 -10.1804 -10.1797 -10.1794 -10.1793 -10.1787 -10.1781 -10.1772
-10.1769  -1.0893  -1.0492  -1.0061  -1.0039  -0.8715  -0.8627  -0.8551
 -0.7948  -0.7743  -0.7580  -0.7575  -0.7495  -0.7371  -0.6858  -0.6759
 -0.6546  -0.6352  -0.6282  -0.6045  -0.5876  -0.5694  -0.5496  -0.5400
 -0.5245  -0.5054  -0.4987  -0.4847  -0.4773  -0.4702  -0.4669  -0.4612
 -0.4566  -0.4447  -0.4341  -0.4322  -0.4284  -0.4239  -0.4165  -0.4121
 -0.4090  -0.3969  -0.3860  -0.3820  -0.3805  -0.3726  -0.3703  -0.3617
 -0.3575  -0.3507  -0.3443  -0.3407  -0.3320  -0.2834  -0.2744  -0.2644
 -0.2601  -0.2586  -0.2530  -0.2471  -0.2388  -0.2259  -0.1467

 Beta MOs
 -- Occupied --
-19.1647 -19.1388 -19.0724 -19.0709 -10.2445 -10.2435 -10.2306 -10.2305
-10.2264 -10.2047 -10.1885 -10.1832 -10.1829 -10.1821 -10.1815 -10.1812
-10.1807 -10.1796 -10.1794 -10.1793 -10.1791 -10.1786 -10.1782 -10.1772
-10.1769  -1.0892  -1.0492  -0.9960  -0.9935  -0.8694  -0.8615  -0.8545
 -0.7908  -0.7732  -0.7575  -0.7561  -0.7475  -0.7362  -0.6855  -0.6692
 -0.6535  -0.6339  -0.6258  -0.6044  -0.5869  -0.5682  -0.5474  -0.5386
 -0.5239  -0.5043  -0.4985  -0.4836  -0.4751  -0.4698  -0.4660  -0.4603
 -0.4564  -0.4441  -0.4332  -0.4315  -0.4236  -0.4209  -0.4116  -0.4073
 -0.4061  -0.3955  -0.3840  -0.3793  -0.3724  -0.3689  -0.3634  -0.3567
 -0.3560  -0.3492  -0.3403  -0.3352  -0.3291  -0.2832  -0.2605  -0.2560
 -0.2524  -0.2511  -0.2490  -0.2416  -0.2344  -0.2248

          Ground-State Mulliken Net Atomic Charges

     Atom                 Charge (a.u.)    Spin (a.u.)
  --------------------------------------------------------
      1 C                    -0.209923       0.020754
      2 C                     0.857752       0.039639
      3 C                     0.896321       0.029589
      4 C                    -0.714744       0.035142
      5 C                    -0.906179       0.036521
      6 C                    -0.215906       0.023977
      7 C                    -1.571283       0.056854
      8 C                    -0.285761       0.058493
      9 C                    -0.343937       0.073429
     10 C                    -2.465974       0.063463
     11 C                    -0.667454       0.016343
     12 C                     1.831809       0.041253
     13 C                     1.038946       0.051133
     14 C                     0.129136       0.019250
     15 O                    -0.217521       0.229048
     16 O                    -0.312461       0.220698
     17 H                     0.164957      -0.001540
     18 H                     0.175301      -0.001604
     19 H                     0.145280      -0.001167
     20 O                    -0.042884      -0.002581
     21 H                     0.391470      -0.003765
     22 H                     0.349387      -0.002411
     23 C                    -0.836229      -0.001134
     24 C                    -0.650491       0.013305
     25 C                    -1.081816      -0.012406
     26 C                     0.201179       0.001154
     27 C                     0.830298       0.000299
     28 C                     0.670736       0.000874
     29 O                    -0.114008      -0.000095
     30 C                    -0.135225       0.000846
     31 H                     0.349577      -0.003060
     32 H                     0.289887      -0.003071
     33 H                     0.092118       0.000037
     34 H                     0.298238      -0.000080
     35 H                     0.272571      -0.000104
     36 H                     0.326281       0.000096
     37 H                     0.194689       0.000116
     38 H                     0.132968      -0.000115
     39 H                     0.132893       0.000821
  --------------------------------------------------------
  Sum of atomic charges =    -1.000000

                    Cartesian Multipole Moments
 -----------------------------------------------------------------
    Charge (ESU x 10^10)
                -4.8032
    Dipole Moment (Debye)
         X       2.3744      Y     -12.7673      Z       2.0177
       Tot      13.1420
    Quadrupole Moments (Debye-Ang)
        XX    -155.1557     XY      -3.2225     YY    -221.1571
        XZ       4.7354     YZ      20.7649     ZZ    -158.1016

 Total job time:  2105.54s(wall), 15765.84s(cpu)
        *  Thank you very much for using Q-Chem.  Have a nice day.  *
