 Gaussian 16, Revision A.03,
 Gaussian 16:  ES64L-G16RevA.03 25-Dec-2016

 ----------------------------------------------------------------
 #P UB3LYP/6-311++G(d,p) SCRF=(PCM,Solvent=n,n-DiMethylFormamide)
 ----------------------------------------------------------------

 ------------------
 Quinone PCM in DMF
 ------------------
 Symbolic Z-matrix:
 Charge =  0 Multiplicity = 1

                         Standard orientation:
 ---------------------------------------------------------------------
 Center     Atomic      Atomic             Coordinates (Angstroms)
 Number     Number       Type             X           Y           Z
 ---------------------------------------------------------------------
      1          7           0       -2.769979   -2.191235    0.000716
      2          6           0       -2.496120   -0.861505    0.000326
      3          6           0       -3.564002    0.067916    0.000583
      4          6           0       -3.329440    1.426724    0.000585
      5          6           0       -2.022473    1.926489    0.000298
      6          6           0       -0.953177    1.043634    0.000053
      7          6           0        0.424318    1.628001   -0.000528
      8          8           0        0.600326    2.836302   -0.001354
      9          6           0        1.573886    0.683663   -0.000056
     10          6           0        2.877859    1.189824    0.000333
     11          6           0        3.962551    0.322017    0.000734
     12          6           0        3.752004   -1.060142    0.000648
     13          6           0        2.459374   -1.570272    0.000182
     14          6           0        1.361122   -0.703777   -0.000148
     15          6           0       -0.015549   -1.282245   -0.000492
     16          8           0       -0.151421   -2.510755   -0.001308
     17          6           0       -1.158412   -0.361970    0.000099
     18          1           0       -3.723316   -2.509951   -0.002026
     19          1           0       -1.997011   -2.844705   -0.001602
     20          1           0       -4.581161   -0.310624    0.000755
     21          1           0       -4.169281    2.112675    0.000751
     22          1           0       -1.822423    2.989517    0.000196
     23          1           0        3.013854    2.264208    0.000345
     24          1           0        4.972173    0.716968    0.001130
     25          1           0        4.599063   -1.736907    0.000956
     26          1           0        2.275066   -2.637061    0.000064
 ---------------------------------------------------------------------

 SCF Done:  E(UB3LYP) =  -744.348661782     A.U. after   14 cycles

 The electronic state is 1-A.
 Alpha  occ. eigenvalues --  -19.12767 -19.12559 -14.33563 -10.28010 -10.27845
 Alpha  occ. eigenvalues --  -10.24892 -10.20684 -10.20610 -10.20538 -10.20167
 Alpha  occ. eigenvalues --  -10.19767 -10.19764 -10.19690 -10.19631 -10.19531
 Alpha  occ. eigenvalues --  -10.19276 -10.18693  -1.06318  -1.05886  -0.94568
 Alpha  occ. eigenvalues --   -0.88924  -0.86761  -0.80997  -0.77716  -0.76942
 Alpha  occ. eigenvalues --   -0.75763  -0.68749  -0.66670  -0.64813  -0.61527
 Alpha  occ. eigenvalues --   -0.58915  -0.57371  -0.55835  -0.52854  -0.50923
 Alpha  occ. eigenvalues --   -0.50185  -0.48424  -0.47574  -0.46970  -0.45515
 Alpha  occ. eigenvalues --   -0.45452  -0.45013  -0.44089  -0.43112  -0.41912
 Alpha  occ. eigenvalues --   -0.40248  -0.39375  -0.38883  -0.37438  -0.37320
 Alpha  occ. eigenvalues --   -0.36671  -0.33545  -0.28887  -0.28586  -0.27753
 Alpha  occ. eigenvalues --   -0.27546  -0.27310  -0.22805
 Alpha virt. eigenvalues --   -0.11562  -0.06681  -0.03543  -0.01611  -0.00680
 Alpha virt. eigenvalues --    0.00100   0.00752   0.01730   0.01917   0.03371
 Alpha virt. eigenvalues --    0.03552   0.04002   0.04010   0.04084   0.04424

  Beta  occ. eigenvalues --  -19.12767 -19.12559 -14.33563 -10.28010 -10.27845
  Beta  occ. eigenvalues --  -10.24892 -10.20684 -10.20610 -10.20538 -10.20167
  Beta  occ. eigenvalues --  -10.19767 -10.19764 -10.19690 -10.19631 -10.19531
  Beta  occ. eigenvalues --  -10.19276 -10.18693  -1.06318  -1.05886  -0.94568
  Beta  occ. eigenvalues --   -0.88924  -0.86761  -0.80997  -0.77716  -0.76942
  Beta  occ. eigenvalues --   -0.75763  -0.68749  -0.66670  -0.64813  -0.61527
  Beta  occ. eigenvalues --   -0.58915  -0.57371  -0.55835  -0.52854  -0.50923
  Beta  occ. eigenvalues --   -0.50185  -0.48424  -0.47574  -0.46970  -0.45515
  Beta  occ. eigenvalues --   -0.45452  -0.45013  -0.44089  -0.43112  -0.41912
  Beta  occ. eigenvalues --   -0.40248  -0.39375  -0.38883  -0.37438  -0.37320
  Beta  occ. eigenvalues --   -0.36671  -0.33545  -0.28887  -0.28586  -0.27753
  Beta  occ. eigenvalues --   -0.27546  -0.27310  -0.22805
  Beta virt. eigenvalues --   -0.11562  -0.06681  -0.03543  -0.01611  -0.00680
  Beta virt. eigenvalues --    0.00100   0.00752   0.01730   0.01917   0.03371
  Beta virt. eigenvalues --    0.03552   0.04002   0.04010   0.04084   0.04424

 Mulliken charges and spin densities:
               1          2
     1  N   -0.441593   0.000000
     2  C    0.327856  -0.000000
     3  C   -0.204133  -0.000000
     4  C   -0.428377  -0.000000
     5  C    0.084627  -0.000000
     6  C    0.451120  -0.000000
     7  C   -0.554820  -0.000000
     8  O   -0.281825  -0.000000
     9  C    0.022066  -0.000000
    10  C    0.186832   0.000000
    11  C   -0.411580  -0.000000
    12  C   -0.448189  -0.000000
    13  C    0.274182   0.000000
    14  C    0.055063   0.000000
    15  C   -0.437417  -0.000000
    16  O   -0.316094   0.000000
    17  C    0.121135   0.000000
    18  H    0.313942  -0.000000
    19  H    0.335038  -0.000000
    20  H    0.187990   0.000000
    21  H    0.211316  -0.000000
    22  H    0.174206   0.000000
    23  H    0.181692   0.000000
    24  H    0.204173  -0.000000
    25  H    0.204868  -0.000000
    26  H    0.187923   0.000000
 Sum of Mulliken charges =  -0.00000  -0.00000

 Dipole moment (field-independent basis, Debye):
    X=             -2.0507    Y=             -2.2797    Z=             -0.0037  Tot=              3.0663
 Quadrupole moment (field-independent basis, Debye-Ang):
   XX=            -61.4526   YY=           -105.3011   ZZ=           -102.0196
   XY=              0.9817   XZ=              0.0308   YZ=              0.0265

 Normal termination of Gaussian 16 at Sun Jan 14 01:04:10 2024.
