 Gaussian 16, Revision A.03,
 Gaussian 16:  ES64L-G16RevA.03 25-Dec-2016

 ----------------------------------------------------------------------
 #P UB3LYP/6-311++G(d,p) nosym opt freq SCRF=(PCM,Solvent=n,n-DiMethylF
 ormamide)
 ----------------------------------------------------------------------

 -------
 Radical
 -------
 Symbolic Z-matrix:
 Charge = -1 Multiplicity = 2

 SCF Done:  E(UB3LYP) =  -614.066672990     A.U. after   19 cycles
 SCF Done:  E(UB3LYP) =  -614.066925986     A.U. after   15 cycles
 SCF Done:  E(UB3LYP) =  -614.066957711     A.U. after   14 cycles
 SCF Done:  E(UB3LYP) =  -614.066957111     A.U. after   11 cycles
 SCF Done:  E(UB3LYP) =  -614.066958525     A.U. after   11 cycles
 Optimization completed.
    -- Stationary point found.
 Normal termination of Gaussian 16 at Sun Feb 11 01:14:41 2024.

 ----------------------------------------------------------------------
 #P Geom=AllCheck Guess=TCheck SCRF=Check GenChk UB3LYP/6-311++G(d,p) F
 req
 ----------------------------------------------------------------------

 Structure from the checkpoint file:  "242-rad.chk"
 -------
 Radical
 -------
 Charge = -1 Multiplicity = 2

                          Input orientation:
 ---------------------------------------------------------------------
 Center     Atomic      Atomic             Coordinates (Angstroms)
 Number     Number       Type             X           Y           Z
 ---------------------------------------------------------------------
      1          6           0       -4.035285    0.279587    0.274542
      2          6           0       -2.568486    0.008374    0.041740
      3          6           0       -2.164871   -1.049888   -0.804494
      4          6           0       -0.826190   -1.311061   -1.026850
      5          6           0        0.182167   -0.533604   -0.420219
      6          6           0        1.599046   -0.832468   -0.673056
      7          8           0        1.946614   -1.787204   -1.433084
      8          6           0        2.573007    0.008333   -0.016111
      9          6           0        2.171298    1.042515    0.809058
     10          6           0        0.805008    1.371729    1.085118
     11          8           0        0.482772    2.332897    1.851211
     12          6           0       -0.209671    0.532154    0.430782
     13          6           0       -1.582164    0.776985    0.641667
     14          6           0        4.031945   -0.275211   -0.255948
     15          1           0       -4.550426    0.506111   -0.664763
     16          1           0       -4.180443    1.124367    0.950650
     17          1           0       -4.535154   -0.591783    0.710183
     18          1           0       -2.920211   -1.664791   -1.285256
     19          1           0       -0.525023   -2.124553   -1.676285
     20          1           0        2.922163    1.662205    1.293132
     21          1           0       -1.854284    1.596693    1.297355
     22          1           0        4.277856   -0.215555   -1.321203
     23          1           0        4.296707   -1.288491    0.063572
     24          1           0        4.663623    0.432661    0.284982
 ---------------------------------------------------------------------

 SCF Done:  E(UB3LYP) =  -614.066958525     A.U. after    1 cycles

 Alpha  occ. eigenvalues --  -19.07263 -19.07195 -10.21731 -10.21643 -10.17990
 Alpha  occ. eigenvalues --  -10.16983 -10.16974 -10.16872 -10.16830 -10.16772
 Alpha  occ. eigenvalues --  -10.16451 -10.16298 -10.15640 -10.15560  -0.99350
 Alpha  occ. eigenvalues --   -0.99009  -0.85767  -0.81142  -0.76914  -0.74836
 Alpha  occ. eigenvalues --   -0.70491  -0.68982  -0.64434  -0.61451  -0.58101
 Alpha  occ. eigenvalues --   -0.55018  -0.50568  -0.48381  -0.46805  -0.43673
 Alpha  occ. eigenvalues --   -0.42673  -0.42504  -0.42230  -0.41685  -0.40759
 Alpha  occ. eigenvalues --   -0.39119  -0.38768  -0.38318  -0.37542  -0.36797
 Alpha  occ. eigenvalues --   -0.36492  -0.34304  -0.33666  -0.33158  -0.26799
 Alpha  occ. eigenvalues --   -0.25292  -0.24089  -0.23930  -0.23432  -0.15032
 Alpha virt. eigenvalues --   -0.03015  -0.01310  -0.00346   0.00448   0.01415
 Alpha virt. eigenvalues --    0.02280   0.02816   0.03265   0.04368   0.04389
 Alpha virt. eigenvalues --    0.04706   0.04909   0.05487   0.06526   0.06820

  Beta  occ. eigenvalues --  -19.06642 -19.06571 -10.21570 -10.21466 -10.17950
  Beta  occ. eigenvalues --  -10.16927 -10.16842 -10.16808 -10.16796 -10.16757
  Beta  occ. eigenvalues --  -10.16443 -10.16302 -10.15653 -10.15443  -0.98256
  Beta  occ. eigenvalues --   -0.97892  -0.85587  -0.80639  -0.76783  -0.74632
  Beta  occ. eigenvalues --   -0.70318  -0.68532  -0.63851  -0.61253  -0.57907
  Beta  occ. eigenvalues --   -0.54690  -0.50374  -0.48131  -0.46548  -0.43570
  Beta  occ. eigenvalues --   -0.42306  -0.42115  -0.42034  -0.41325  -0.40220
  Beta  occ. eigenvalues --   -0.38526  -0.38275  -0.38224  -0.37399  -0.36327
  Beta  occ. eigenvalues --   -0.34384  -0.34151  -0.33025  -0.32619  -0.24674
  Beta  occ. eigenvalues --   -0.24025  -0.23508  -0.23361  -0.22861
  Beta virt. eigenvalues --   -0.08362  -0.02262  -0.00331  -0.00278   0.00455
  Beta virt. eigenvalues --    0.01427   0.02293   0.02825   0.03398   0.04403
  Beta virt. eigenvalues --    0.04472   0.04712   0.05496   0.06252   0.06544

 Mulliken charges and spin densities:
               1          2
     1  C   -0.401051  -0.001705
     2  C    0.432663   0.028684
     3  C   -0.401073   0.015512
     4  C    0.058750   0.028288
     5  C   -0.151035  -0.017441
     6  C   -0.512085   0.125337
     7  O   -0.489038   0.230352
     8  C    0.687657   0.109941
     9  C   -0.406245   0.080371
    10  C   -0.779417   0.093671
    11  O   -0.504548   0.224182
    12  C    0.404885   0.059655
    13  C   -0.260072   0.016618
    14  C   -0.266928   0.007075
    15  H    0.160643   0.001789
    16  H    0.165986   0.000062
    17  H    0.160422   0.001790
    18  H    0.178277  -0.001659
    19  H    0.163942  -0.002486
    20  H    0.145928  -0.009143
    21  H    0.129810  -0.002792
    22  H    0.164216   0.005914
    23  H    0.164429   0.006153
    24  H    0.153882  -0.000169
 Sum of Mulliken charges =  -1.00000   1.00000

 Dipole moment (field-independent basis, Debye):
    X=             -5.8025    Y=             -1.5919    Z=             -1.2244  Tot=              6.1402
 Quadrupole moment (field-independent basis, Debye-Ang):
   XX=            -87.1574   YY=           -109.1129   ZZ=           -101.3779
   XY=              6.5819   XZ=              5.1805   YZ=            -16.8553

  Exact polarizability: 318.242  -7.595 231.018  -8.103  87.309 190.439
 Approx polarizability: 325.521 -12.542 268.393 -11.970 103.826 220.284

                      1                      2                      3
                      A                      A                      A
 Frequencies --     68.4790                75.7572               107.0607
 Red. masses --      1.7545                 1.5618                 3.7652
 Frc consts  --      0.0048                 0.0053                 0.0254
 IR Inten    --      7.3146                 5.3185                 6.0272

                      4                      5                      6
                      A                      A                      A
 Frequencies --    135.2196               156.9105               200.8040
 Red. masses --      1.1571                 4.9940                 3.3077
 Frc consts  --      0.0125                 0.0724                 0.0786
 IR Inten    --      0.8939                 2.1841                 0.9231

                      7                      8                      9
                      A                      A                      A
 Frequencies --    202.3501               286.5186               289.6026
 Red. masses --      3.9984                 4.4107                 3.2019
 Frc consts  --      0.0965                 0.2133                 0.1582
 IR Inten    --      5.8606                 1.9804                 2.8343

                     10                     11                     12
                      A                      A                      A
 Frequencies --    341.3841               364.6043               393.1387
 Red. masses --      5.6095                 5.0938                 4.2134
 Frc consts  --      0.3852                 0.3990                 0.3837
 IR Inten    --     12.8492                10.7077                 4.8530

                     13                     14                     15
                      A                      A                      A
 Frequencies --    411.8740               439.1987               477.5283
 Red. masses --      5.2400                 3.3906                 8.1845
 Frc consts  --      0.5237                 0.3853                 1.0996
 IR Inten    --     10.1641                 1.4448                 0.1897

                     16                     17                     18
                      A                      A                      A
 Frequencies --    517.4476               530.9189               600.5348
 Red. masses --      3.3337                 7.5391                 5.0400
 Frc consts  --      0.5259                 1.2521                 1.0709
 IR Inten    --      7.4360                 3.4753                19.0075

                     19                     20                     21
                      A                      A                      A
 Frequencies --    647.0897               674.9702               696.6549
 Red. masses --      4.6475                 3.6390                 3.9177
 Frc consts  --      1.1466                 0.9768                 1.1203
 IR Inten    --      1.2096                 2.7403                19.7226

                     22                     23                     24
                      A                      A                      A
 Frequencies --    721.8174               758.0382               784.5792
 Red. masses --      5.6199                 5.1383                 4.0350
 Frc consts  --      1.7252                 1.7396                 1.4634
 IR Inten    --      0.2667                40.2289                 5.9965

                     25                     26                     27
                      A                      A                      A
 Frequencies --    838.1870               871.4034               911.4465
 Red. masses --      1.4896                 1.4934                 3.4975
 Frc consts  --      0.6166                 0.6682                 1.7119
 IR Inten    --     57.8500                26.8459                13.0810

                     28                     29                     30
                      A                      A                      A
 Frequencies --    914.0016               954.4402               990.4164
 Red. masses --      1.3979                 4.5214                 1.3266
 Frc consts  --      0.6880                 2.4267                 0.7667
 IR Inten    --      6.4054                49.5864                 0.8766

                     31                     32                     33
                      A                      A                      A
 Frequencies --   1009.4202              1025.7851              1046.1724
 Red. masses --      1.4730                 1.6735                 1.4980
 Frc consts  --      0.8843                 1.0375                 0.9660
 IR Inten    --     27.0028                 7.2455                 2.5939

                     34                     35                     36
                      A                      A                      A
 Frequencies --   1059.2376              1098.2007              1134.3495
 Red. masses --      1.5327                 2.2254                 1.6161
 Frc consts  --      1.0132                 1.5813                 1.2252
 IR Inten    --      7.0920                 5.0761                 8.5576

                     37                     38                     39
                      A                      A                      A
 Frequencies --   1185.6604              1214.3752              1235.5964
 Red. masses --      2.4241                 2.4587                 3.2009
 Frc consts  --      2.0078                 2.1363                 2.8792
 IR Inten    --     37.3154                14.8688                47.0337

                     40                     41                     42
                      A                      A                      A
 Frequencies --   1243.6387              1292.2409              1355.0593
 Red. masses --      2.4402                 1.7724                 7.9047
 Frc consts  --      2.2236                 1.7439                 8.5517
 IR Inten    --    101.7614                 5.0275                 1.1066

                     43                     44                     45
                      A                      A                      A
 Frequencies --   1383.1037              1399.7343              1406.8274
 Red. masses --      2.4868                 1.4012                 1.2505
 Frc consts  --      2.8028                 1.6175                 1.4581
 IR Inten    --     28.7338               115.9249                 3.4343

                     46                     47                     48
                      A                      A                      A
 Frequencies --   1443.5940              1461.5700              1463.5740
 Red. masses --      4.5409                 1.0469                 1.6734
 Frc consts  --      5.5754                 1.3176                 2.1119
 IR Inten    --    388.0369                10.0517               228.0627

                     49                     50                     51
                      A                      A                      A
 Frequencies --   1474.2496              1478.2330              1481.6327
 Red. masses --      1.0432                 1.6157                 2.5158
 Frc consts  --      1.3358                 2.0801                 3.2539
 IR Inten    --     10.2676               132.5247               325.3929

                     52                     53                     54
                      A                      A                      A
 Frequencies --   1495.7921              1509.0241              1554.6935
 Red. masses --      2.7850                 2.7387                 4.5333
 Frc consts  --      3.6713                 3.6744                 6.4559
 IR Inten    --     22.7350               709.0261               104.1142

                     55                     56                     57
                      A                      A                      A
 Frequencies --   1616.2736              1639.4381              3016.1504
 Red. masses --      7.1314                 6.2006                 1.0365
 Frc consts  --     10.9762                 9.8191                 5.5553
 IR Inten    --      9.7192                18.0217               122.5582

                     58                     59                     60
                      A                      A                      A
 Frequencies --   3016.8868              3058.4399              3062.0152
 Red. masses --      1.0376                 1.0992                 1.1002
 Frc consts  --      5.5639                 6.0578                 6.0778
 IR Inten    --     38.3831                38.2216                30.6817

                     61                     62                     63
                      A                      A                      A
 Frequencies --   3095.9258              3099.5219              3138.3070
 Red. masses --      1.1013                 1.1001                 1.0889
 Frc consts  --      6.2192                 6.2267                 6.3190
 IR Inten    --     33.5671                34.0497                58.0050

                     64                     65                     66
                      A                      A                      A
 Frequencies --   3149.5571              3172.3969              3185.5169
 Red. masses --      1.0886                 1.0893                 1.0917
 Frc consts  --      6.3626                 6.4593                 6.5273
 IR Inten    --     28.2708                16.4336                20.6696

 - Thermochemistry -
 -------------------
 Temperature   298.150 Kelvin.  Pressure   1.00000 Atm.
 Atom     1 has atomic number  6 and mass  12.00000

 Molecular mass:   186.06808 amu.
 Principal axes and moments of inertia in atomic units:
                           1         2         3
     Eigenvalues --  1442.135633360.307894780.25390
           X            0.99824   0.05859   0.00872
           Y           -0.04048   0.78225  -0.62164
           Z           -0.04325   0.62020   0.78325
 This molecule is an asymmetric top.
 Rotational symmetry number  1.
 Warning -- assumption of classical behavior for rotation
           may cause significant error
 Rotational temperatures (Kelvin)      0.06006     0.02578     0.01812
 Rotational constants (GHZ):           1.25144     0.53708     0.37754
 Zero-point vibrational energy     484873.8 (Joules/Mol)
                                  115.88762 (Kcal/Mol)
 Warning -- explicit consideration of  18 degrees of freedom as
           vibrations may cause significant error
 Vibrational temperatures:     98.53   109.00   154.04   194.55   225.76
          (Kelvin)            288.91   291.14   412.24   416.67   491.18
                              524.58   565.64   592.59   631.91   687.06
                              744.49   763.87   864.04   931.02   971.13
                             1002.33  1038.53  1090.65  1128.83  1205.96
                             1253.76  1311.37  1315.04  1373.23  1424.99
                             1452.33  1475.88  1505.21  1524.01  1580.07
                             1632.08  1705.90  1747.22  1777.75  1789.32
                             1859.25  1949.63  1989.98  2013.91  2024.11
                             2077.01  2102.87  2105.76  2121.12  2126.85
                             2131.74  2152.11  2171.15  2236.86  2325.46
                             2358.79  4339.57  4340.63  4400.41  4405.56
                             4454.35  4459.52  4515.32  4531.51  4564.37
                             4583.25

 Zero-point correction=                           0.184679 (Hartree/Particle)
 Thermal correction to Energy=                    0.196817
 Thermal correction to Enthalpy=                  0.197761
 Thermal correction to Gibbs Free Energy=         0.145752
 Sum of electronic and zero-point Energies=           -613.882280
 Sum of electronic and thermal Energies=              -613.870142
 Sum of electronic and thermal Enthalpies=            -613.869198
 Sum of electronic and thermal Free Energies=         -613.921207

                     E (Thermal)             CV                S
                      KCal/Mol        Cal/Mol-Kelvin    Cal/Mol-Kelvin
 Total                  123.504             46.718            109.462
 Electronic               0.000              0.000              1.377
 Translational            0.889              2.981             41.569
 Rotational               0.889              2.981             31.516
 Vibrational            121.727             40.756             34.999
 Vibration     1          0.598              1.969              4.197
 Vibration     2          0.599              1.965              3.998
 Vibration     3          0.606              1.944              3.322
 Vibration     4          0.613              1.918              2.870
 Vibration     5          0.621              1.895              2.587
 Vibration     6          0.638              1.839              2.126
 Vibration     7          0.639              1.837              2.112
 Vibration     8          0.684              1.699              1.494
 Vibration     9          0.686              1.693              1.476
 Vibration    10          0.721              1.593              1.206
 Vibration    11          0.738              1.545              1.102
 Vibration    12          0.760              1.485              0.988
 Vibration    13          0.776              1.444              0.920
 Vibration    14          0.799              1.385              0.829
 Vibration    15          0.834              1.300              0.717
 Vibration    16          0.872              1.211              0.616
 Vibration    17          0.886              1.182              0.585
 Vibration    18          0.959              1.031              0.449

                           ! Non-Optimized Parameters !
 Normal termination of Gaussian 16 at Sun Feb 11 01:49:41 2024.
