 Q-Chem 5.4, Q-Chem, Inc., Pleasanton, CA (2021)
 Q-Chem 5.4.0 for Intel X86 EM64T Linux

User input:
--------------------------------------------------------------
$molecule
-2 1
C                 -1.3185050000      1.9303960000     -4.2342790000
C                 -1.2309680000      0.5565970000     -4.3195750000
C                 -0.9456720000     -0.2036510000     -3.1514990000
C                 -1.1377030000      2.6200220000     -3.0075380000
C                 -0.8497530000      1.8519130000     -1.8274230000
C                 -0.7594140000      0.4404890000     -1.9465200000
C                 -1.2330810000      4.0576350000     -2.9776590000
C                 -0.6374080000      2.4736920000     -0.5461420000
C                 -1.0616110000      4.6894880000     -1.6904670000
C                 -0.7737230000      3.9083210000     -0.4928070000
C                 -1.1271350000      6.1366700000     -1.5782580000
C                 -0.8239210000      6.7521700000     -0.3744920000
C                 -0.5482160000      5.9927430000      0.7899600000
C                 -0.5743670000      4.6083770000      0.7662160000
O                 -1.4492740000      4.7117010000     -4.0848970000
O                 -0.3205960000      1.7377670000      0.4841390000
H                 -1.5301690000      2.5398540000     -5.1064720000
H                 -1.3782590000      0.0552980000     -5.2744650000
H                 -0.8744020000     -1.2881880000     -3.2104940000
H                 -0.5353000000     -0.1093240000     -1.0386130000
H                 -0.3578710000      6.5161770000      1.7209050000
H                 -0.8352130000      7.8346770000     -0.3005310000
N                 -1.5102350000      6.8745170000     -2.6976850000
C                 -1.1879950000      8.2648750000     -2.8179780000
H                 -1.5037430000      6.2656080000     -3.5384460000
H                 -0.1209590000      8.4931480000     -2.6175800000
H                 -1.7751100000      8.8949930000     -2.1288660000
H                 -1.4198010000      8.5950930000     -3.8362960000
N                 -0.4374860000      3.8508260000      1.9312240000
C                  0.1467240000      4.3966550000      3.1209160000
C                  0.3117570000      3.3089370000      4.1794620000
O                  0.8432010000      3.8172130000      5.4164430000
H                 -0.2589080000      2.8563380000      1.6714070000
H                 -0.4757520000      5.1998430000      3.5426030000
H                  1.1470360000      4.8544930000      2.9381780000
H                  0.9542450000      2.5076800000      3.7915800000
H                 -0.6570010000      2.8708430000      4.4268100000
H                  1.6739180000      4.2650830000      5.2098710000
$end
$rem
MAX_SCF_CYCLES=200
BASIS  =  6-311++G(d,p)
GUI  =  2
JOB_TYPE  =  SP
METHOD  =  B3LYP
SOLVENT_METHOD = PCM
$end
$pcm
theory = CPCM
$end
$solvent
dielectric 37.219
opticaldielectric 1.43
$end

--------------------------------------------------------------

             Standard Nuclear Orientation (Angstroms)
    I     Atom           X                Y                Z
 ----------------------------------------------------------------
    1      C      -1.3185050000     1.9303960000    -4.2342790000
    2      C      -1.2309680000     0.5565970000    -4.3195750000
    3      C      -0.9456720000    -0.2036510000    -3.1514990000
    4      C      -1.1377030000     2.6200220000    -3.0075380000
    5      C      -0.8497530000     1.8519130000    -1.8274230000
    6      C      -0.7594140000     0.4404890000    -1.9465200000
    7      C      -1.2330810000     4.0576350000    -2.9776590000
    8      C      -0.6374080000     2.4736920000    -0.5461420000
    9      C      -1.0616110000     4.6894880000    -1.6904670000
   10      C      -0.7737230000     3.9083210000    -0.4928070000
   11      C      -1.1271350000     6.1366700000    -1.5782580000
   12      C      -0.8239210000     6.7521700000    -0.3744920000
   13      C      -0.5482160000     5.9927430000     0.7899600000
   14      C      -0.5743670000     4.6083770000     0.7662160000
   15      O      -1.4492740000     4.7117010000    -4.0848970000
   16      O      -0.3205960000     1.7377670000     0.4841390000
   17      H      -1.5301690000     2.5398540000    -5.1064720000
   18      H      -1.3782590000     0.0552980000    -5.2744650000
   19      H      -0.8744020000    -1.2881880000    -3.2104940000
   20      H      -0.5353000000    -0.1093240000    -1.0386130000
   21      H      -0.3578710000     6.5161770000     1.7209050000
   22      H      -0.8352130000     7.8346770000    -0.3005310000
   23      N      -1.5102350000     6.8745170000    -2.6976850000
   24      C      -1.1879950000     8.2648750000    -2.8179780000
   25      H      -1.5037430000     6.2656080000    -3.5384460000
   26      H      -0.1209590000     8.4931480000    -2.6175800000
   27      H      -1.7751100000     8.8949930000    -2.1288660000
   28      H      -1.4198010000     8.5950930000    -3.8362960000
   29      N      -0.4374860000     3.8508260000     1.9312240000
   30      C       0.1467240000     4.3966550000     3.1209160000
   31      C       0.3117570000     3.3089370000     4.1794620000
   32      O       0.8432010000     3.8172130000     5.4164430000
   33      H      -0.2589080000     2.8563380000     1.6714070000
   34      H      -0.4757520000     5.1998430000     3.5426030000
   35      H       1.1470360000     4.8544930000     2.9381780000
   36      H       0.9542450000     2.5076800000     3.7915800000
   37      H      -0.6570010000     2.8708430000     4.4268100000
   38      H       1.6739180000     4.2650830000     5.2098710000
 ----------------------------------------------------------------

    8    -993.1471525477      7.43e-06  Convergence criterion met
 Total energy in the final basis set =     -993.1471525477

                    Orbital Energies (a.u.)
 --------------------------------------------------------------

 Alpha MOs
 -- Occupied --
-19.1250 -19.0294 -19.0290 -14.2765 -14.2749 -10.2094 -10.1845 -10.1804
-10.1800 -10.1754 -10.1753 -10.1742 -10.1505 -10.1500 -10.1474 -10.1474
-10.1433 -10.1429 -10.1382 -10.1378 -10.1298 -10.1289  -1.0203  -0.9516
 -0.9481  -0.8979  -0.8919  -0.8283  -0.8011  -0.7516  -0.7346  -0.7252
 -0.7089  -0.6904  -0.6507  -0.6336  -0.6228  -0.5979  -0.5862  -0.5487
 -0.5367  -0.5096  -0.5034  -0.4930  -0.4768  -0.4635  -0.4549  -0.4443
 -0.4379  -0.4334  -0.4249  -0.4157  -0.4078  -0.4005  -0.3953  -0.3875
 -0.3816  -0.3798  -0.3737  -0.3612  -0.3537  -0.3465  -0.3445  -0.3386
 -0.3343  -0.3279  -0.3185  -0.3072  -0.3040  -0.2833  -0.2807  -0.2349
 -0.2319  -0.2226  -0.2146  -0.2084  -0.2033  -0.1587  -0.1058

          Ground-State Mulliken Net Atomic Charges

     Atom                 Charge (a.u.)
  ----------------------------------------
      1 C                    -0.081203
      2 C                    -0.567233
      3 C                    -0.529139
      4 C                     0.187900
      5 C                     0.112006
      6 C                    -0.111768
      7 C                    -0.286381
      8 C                    -0.363596
      9 C                     0.253742
     10 C                     0.273305
     11 C                    -0.135897
     12 C                    -0.299564
     13 C                    -0.264928
     14 C                    -0.257463
     15 O                    -0.643379
     16 O                    -0.623838
     17 H                     0.149477
     18 H                     0.173499
     19 H                     0.174361
     20 H                     0.140551
     21 H                     0.164084
     22 H                     0.174530
     23 N                    -0.312755
     24 C                    -0.412651
     25 H                     0.385099
     26 H                     0.133037
     27 H                     0.141059
     28 H                     0.144481
     29 N                    -0.186169
     30 C                    -0.153427
     31 C                    -0.389789
     32 O                    -0.350812
     33 H                     0.441462
     34 H                     0.153836
     35 H                     0.134051
     36 H                     0.164845
     37 H                     0.182778
     38 H                     0.285886
  ----------------------------------------
  Sum of atomic charges =    -2.000004

                    Cartesian Multipole Moments
 -----------------------------------------------------------------
    Charge (ESU x 10^10)
                -9.6064
    Dipole Moment (Debye)
         X      10.5717      Y     -33.0098      Z      12.9778
       Tot      37.0112
    Quadrupole Moments (Debye-Ang)
        XX    -153.6858     XY      43.9372     YY    -279.8685
        XZ     -17.8494     YZ      55.0947     ZZ    -223.0495

 Total job time:  243.37s(wall), 581.28s(cpu)
        *  Thank you very much for using Q-Chem.  Have a nice day.  *
