 Q-Chem 5.4, Q-Chem, Inc., Pleasanton, CA (2021)
 Q-Chem 5.4.0 for Intel X86 EM64T Linux

User input:
--------------------------------------------------------------
$molecule
-2 1
C                 -1.2077860000      2.8447260000      0.0176700000
C                 -2.4868540000      2.3468500000     -0.0377410000
C                 -2.7284960000      0.9561560000     -0.0536310000
C                 -0.0763000000      1.9853100000      0.0654360000
C                 -0.3102820000      0.5616420000      0.0609590000
C                 -1.6378880000      0.0997340000     -0.0017670000
C                  1.2461810000      2.5803190000      0.1150800000
C                  2.2977130000      1.6065370000      0.1640480000
C                  2.0844670000      0.2184760000      0.1651690000
C                  0.7995040000     -0.3907380000      0.1153040000
O                  1.4301140000      3.8540690000      0.1247380000
O                  0.6171790000     -1.6629530000      0.1102360000
H                 -1.0052680000      3.9149960000      0.0270020000
H                 -1.7758160000     -0.9776250000     -0.0082550000
O                  3.5804730000      2.1424010000      0.2558440000
O                 -3.6088750000      3.1964320000     -0.0848380000
H                 -3.7486280000      0.5861680000     -0.1004100000
H                  2.9272630000     -0.4639350000      0.1947710000
C                  4.6681160000      1.3206640000     -0.0903150000
H                 -3.2605590000      4.0934830000     -0.0655140000
H                  5.5602630000      1.9550360000     -0.1063490000
H                  4.5413180000      0.8616970000     -1.0850510000
H                  4.8363710000      0.5137040000      0.6359830000
$end
$rem
MAX_SCF_CYCLES=200
BASIS  =  6-311++G(d,p)
GUI  =  2
JOB_TYPE  =  SP
METHOD  =  B3LYP
SOLVENT_METHOD = COSMO
$end
$solvent
dielectric 37.219
opticaldielectric 1.43
$end

--------------------------------------------------------------

             Standard Nuclear Orientation (Angstroms)
    I     Atom           X                Y                Z
 ----------------------------------------------------------------
    1      C       1.7511667286    -1.1615267390    -0.0003094907
    2      C       2.9561649067    -0.5028184625    -0.0326921403
    3      C       3.0166370459     0.9074011219    -0.0499256553
    4      C       0.5175295431    -0.4552640089     0.0213762346
    5      C       0.5659236354     0.9866856326     0.0152576243
    6      C       1.8238317670     1.6159787473    -0.0233241197
    7      C      -0.7178623799    -1.2159066431     0.0475642449
    8      C      -1.8870091871    -0.3859124102     0.0715248834
    9      C      -1.8546922847     1.0180617604     0.0707509271
   10      C      -0.6583253776     1.7879474218     0.0435402830
   11      O      -0.7360818220    -2.5027230905     0.0591905305
   12      O      -0.6415944214     3.0730424756     0.0364781187
   13      H       1.6882759481    -2.2489652152     0.0097309117
   14      H       1.8217137458     2.7021149688    -0.0318249750
   15      O      -3.0914983198    -1.0827014452     0.1403792199
   16      O       4.1791359378    -1.2005499777    -0.0539387017
   17      H       3.9812419663     1.4058843680    -0.0782186452
   18      H      -2.7789094667     1.5860308792     0.0807423997
   19      C      -4.2688860739    -0.4088572781    -0.2307503544
   20      H       3.9491465854    -2.1350198799    -0.0375420857
   21      H      -5.0712291864    -1.1531062966    -0.2615743961
   22      H      -4.1823862407     0.0608333441    -1.2248009808
   23      H      -4.5544142901     0.3709492799     0.4885398104
 ----------------------------------------------------------------

   13    -725.0335716840      6.37e-06  Convergence criterion met
 Total energy in the final basis set =     -725.0335716840
    6    -725.3317730840      3.84e-06  Convergence criterion met
 Total energy in the final basis set =     -725.3317730840

                    Orbital Energies (a.u.)
 --------------------------------------------------------------

 Alpha MOs
 -- Occupied --
-19.1400 -19.1265 -19.0269 -19.0207 -10.2134 -10.2010 -10.1855 -10.1799
-10.1700 -10.1533 -10.1505 -10.1438 -10.1431 -10.1372 -10.1216  -1.0403
 -1.0375  -0.9444  -0.9363  -0.8284  -0.7679  -0.7266  -0.7143  -0.6842
 -0.6354  -0.6049  -0.5748  -0.5372  -0.5234  -0.4959  -0.4720  -0.4466
 -0.4438  -0.4407  -0.4112  -0.4053  -0.3971  -0.3953  -0.3784  -0.3682
 -0.3665  -0.3609  -0.3358  -0.3334  -0.3218  -0.3124  -0.3039  -0.2849
 -0.2321  -0.2202  -0.2084  -0.2027  -0.2003  -0.1134

          Ground-State Mulliken Net Atomic Charges

     Atom                 Charge (a.u.)
  ----------------------------------------
      1 C                     0.292275
      2 C                    -0.620106
      3 C                    -0.290818
      4 C                     0.473529
      5 C                    -0.058620
      6 C                     0.137504
      7 C                    -0.579930
      8 C                    -0.397093
      9 C                     0.407400
     10 C                    -0.363018
     11 O                    -0.772770
     12 O                    -0.733980
     13 H                     0.140755
     14 H                     0.163199
     15 O                    -0.248266
     16 O                    -0.350821
     17 H                     0.200823
     18 H                     0.157810
     19 C                    -0.352750
     20 H                     0.312366
     21 H                     0.174777
     22 H                     0.159445
     23 H                     0.148289
  ----------------------------------------
  Sum of atomic charges =    -2.000000

                    Cartesian Multipole Moments
 -----------------------------------------------------------------
    Charge (ESU x 10^10)
                -9.6064
    Dipole Moment (Debye)
         X       2.3548      Y      -1.8593      Z      -0.8934
       Tot       3.1305
    Quadrupole Moments (Debye-Ang)
        XX    -110.7323     XY      -6.8822     YY    -152.6370
        XZ       2.5999     YZ       0.6583     ZZ     -97.7109

 Total job time:  48.82s(wall), 366.50s(cpu)
        *  Thank you very much for using Q-Chem.  Have a nice day.  *
