 Gaussian 16, Revision A.03,
 Gaussian 16:  ES64L-G16RevA.03 25-Dec-2016

 ----------------------------------------------------------------
 #P UB3LYP/6-311++G(d,p) SCRF=(PCM,Solvent=n,n-DiMethylFormamide)
 ----------------------------------------------------------------

 ------------------
 Radical PCM in DMF
 ------------------
 Symbolic Z-matrix:
 Charge = -1 Multiplicity = 2

                         Standard orientation:
 ---------------------------------------------------------------------
 Center     Atomic      Atomic             Coordinates (Angstroms)
 Number     Number       Type             X           Y           Z
 ---------------------------------------------------------------------
      1          6           0        1.428346   -1.222051   -0.000120
      2          6           0        0.699111   -2.401081   -0.000028
      3          6           0       -0.699127   -2.401076    0.000129
      4          6           0        0.720949    0.018553   -0.000072
      5          6           0       -0.720902    0.018560   -0.000144
      6          6           0       -1.428338   -1.222031    0.000074
      7          6           0        1.468041    1.299831    0.000155
      8          6           0        0.684553    2.501971    0.000481
      9          6           0       -0.684591    2.501979    0.000199
     10          6           0       -1.468044    1.299818   -0.000323
     11          8           0        2.730359    1.357724    0.000134
     12          8           0       -2.730369    1.357645   -0.000839
     13          6           0        2.937817   -1.338433   -0.000326
     14          1           0        1.230211   -3.349395   -0.000047
     15          1           0       -1.247790    3.431036    0.000289
     16          6           0       -2.937800   -1.338401    0.000541
     17          1           0       -1.230240   -3.349379    0.000323
     18          1           0        3.218271   -2.398135   -0.000584
     19          1           0        3.383723   -0.849179    0.867283
     20          1           0        3.383484   -0.848770   -0.867811
     21          1           0        1.247779    3.431014    0.000806
     22          1           0       -3.383848   -0.849381   -0.867127
     23          1           0       -3.383338   -0.848490    0.867956
     24          1           0       -3.218258   -2.398110    0.001155
 ---------------------------------------------------------------------

 SCF Done:  E(UB3LYP) =  -614.049687317     A.U. after   17 cycles

 The electronic state is 2-A.
 Alpha  occ. eigenvalues --  -19.06833 -19.06832 -10.21704 -10.21703 -10.17795
 Alpha  occ. eigenvalues --  -10.17794 -10.17427 -10.17388 -10.16343 -10.16290
 Alpha  occ. eigenvalues --  -10.15662 -10.15597 -10.15161 -10.15161  -0.99463
 Alpha  occ. eigenvalues --   -0.99219  -0.85556  -0.79996  -0.78020  -0.73441
 Alpha  occ. eigenvalues --   -0.70633  -0.67856  -0.63930  -0.61031  -0.59803
 Alpha  occ. eigenvalues --   -0.52615  -0.49842  -0.48685  -0.46877  -0.45246
 Alpha  occ. eigenvalues --   -0.42472  -0.41828  -0.41631  -0.40507  -0.38995
 Alpha  occ. eigenvalues --   -0.38682  -0.38642  -0.38499  -0.37688  -0.36479
 Alpha  occ. eigenvalues --   -0.35522  -0.34201  -0.33524  -0.33462  -0.27201
 Alpha  occ. eigenvalues --   -0.24761  -0.23865  -0.23278  -0.22873  -0.14665
 Alpha virt. eigenvalues --   -0.02347  -0.01565  -0.00215   0.00878   0.00985
 Alpha virt. eigenvalues --    0.02278   0.02997   0.03013   0.03897   0.04433
 Alpha virt. eigenvalues --    0.04869   0.05592   0.06162   0.06857   0.06986

  Beta  occ. eigenvalues --  -19.06187 -19.06186 -10.21561 -10.21560 -10.17780
  Beta  occ. eigenvalues --  -10.17778 -10.17393 -10.17353 -10.16299 -10.16246
  Beta  occ. eigenvalues --  -10.15507 -10.15441 -10.15161 -10.15161  -0.98346
  Beta  occ. eigenvalues --   -0.98072  -0.85379  -0.79423  -0.77913  -0.73236
  Beta  occ. eigenvalues --   -0.70604  -0.67054  -0.63655  -0.60708  -0.59572
  Beta  occ. eigenvalues --   -0.52335  -0.49573  -0.48569  -0.46625  -0.45073
  Beta  occ. eigenvalues --   -0.41883  -0.41476  -0.41410  -0.40256  -0.38670
  Beta  occ. eigenvalues --   -0.38532  -0.38312  -0.37583  -0.37388  -0.35363
  Beta  occ. eigenvalues --   -0.34032  -0.33952  -0.33371  -0.32897  -0.24370
  Beta  occ. eigenvalues --   -0.24068  -0.23181  -0.22690  -0.22302
  Beta virt. eigenvalues --   -0.08010  -0.01503  -0.00411  -0.00200   0.00892
  Beta virt. eigenvalues --    0.01000   0.02289   0.03036   0.03250   0.03921
  Beta virt. eigenvalues --    0.04481   0.04876   0.06189   0.06454   0.06868

 Mulliken charges and spin densities:
               1          2
     1  C    1.025141   0.035941
     2  C   -0.607531   0.024258
     3  C   -0.607566   0.024268
     4  C    0.208357   0.031631
     5  C    0.208370   0.031637
     6  C    1.025212   0.035933
     7  C   -0.869868   0.073927
     8  C   -0.232987   0.110181
     9  C   -0.233025   0.110173
    10  C   -0.869878   0.073927
    11  O   -0.460432   0.229879
    12  O   -0.460425   0.229874
    13  C   -0.326716   0.007183
    14  H    0.136077  -0.002856
    15  H    0.174307  -0.010455
    16  C   -0.326678   0.007185
    17  H    0.136074  -0.002857
    18  H    0.134794  -0.000453
    19  H    0.159415   0.000383
    20  H    0.159425   0.000383
    21  H    0.174306  -0.010456
    22  H    0.159429   0.000383
    23  H    0.159409   0.000383
    24  H    0.134792  -0.000453
 Sum of Mulliken charges =  -1.00000   1.00000

 Dipole moment (field-independent basis, Debye):
    X=              0.0000    Y=             -6.3464    Z=              0.0020  Tot=              6.3464
 Quadrupole moment (field-independent basis, Debye-Ang):
   XX=           -121.5852   YY=            -92.0531   ZZ=            -88.2242
   XY=             -0.0007   XZ=             -0.0083   YZ=              0.0025

 Normal termination of Gaussian 16 at Sun Jan 21 08:23:03 2024.
