 Q-Chem 5.4, Q-Chem, Inc., Pleasanton, CA (2021)
 Q-Chem 5.4.0 for Intel X86 EM64T Linux

User input:
--------------------------------------------------------------
$molecule
-2 1
C                  1.5729390000      1.1147160000     -1.6012390000
C                  0.1947460000      0.8954130000     -1.3431880000
C                 -0.2994150000      0.1548800000     -0.2309400000
C                  0.5616920000     -0.4527790000      0.7547800000
C                  1.9533140000     -0.2193700000      0.4757900000
C                  2.4228770000      0.5051410000     -0.6131200000
O                  2.0373570000      1.7911560000     -2.6166630000
O                  0.1577850000     -1.1313180000      1.7766290000
C                 -1.7565390000     -0.0031260000     -0.0715790000
F                 -2.5020900000      0.6134070000     -1.0637560000
F                 -2.2264000000     -1.3067080000     -0.0878380000
F                 -2.2945270000      0.5150940000      1.0955060000
H                 -0.5101410000      1.3265150000     -2.0479340000
H                  2.6577390000     -0.6543920000      1.1866440000
H                  3.4988040000      0.6346890000     -0.7504920000
$end

$rem
BASIS  =  6-311++G(d,p)
GUI  =  2
JOB_TYPE  =  SP
METHOD  =  B3LYP
SCF_CONVERGENCE  = 8
SOLVENT_METHOD = sm12
$end

$smx
solvent dimethylformamide
charges CM5
$end

--------------------------------------------------------------

             Standard Nuclear Orientation (Angstroms)
    I     Atom           X                Y                Z
 ----------------------------------------------------------------
    1      C       1.5729390000     1.1147160000    -1.6012390000
    2      C       0.1947460000     0.8954130000    -1.3431880000
    3      C      -0.2994150000     0.1548800000    -0.2309400000
    4      C       0.5616920000    -0.4527790000     0.7547800000
    5      C       1.9533140000    -0.2193700000     0.4757900000
    6      C       2.4228770000     0.5051410000    -0.6131200000
    7      O       2.0373570000     1.7911560000    -2.6166630000
    8      O       0.1577850000    -1.1313180000     1.7766290000
    9      C      -1.7565390000    -0.0031260000    -0.0715790000
   10      F      -2.5020900000     0.6134070000    -1.0637560000
   11      F      -2.2264000000    -1.3067080000    -0.0878380000
   12      F      -2.2945270000     0.5150940000     1.0955060000
   13      H      -0.5101410000     1.3265150000    -2.0479340000
   14      H       2.6577390000    -0.6543920000     1.1866440000
   15      H       3.4988040000     0.6346890000    -0.7504920000
 ----------------------------------------------------------------

   17    -718.7032376261      7.85e-09  Convergence criterion met
 Total energy in the final basis set =     -718.9831050330

                    Orbital Energies (a.u.)
 --------------------------------------------------------------

 Alpha MOs
 -- Occupied --
-24.6812 -24.6730 -24.6730 -19.0180 -19.0165 -10.3948 -10.1882 -10.1803
-10.1519 -10.1490 -10.1457 -10.1421  -1.2720  -1.1864  -1.1807  -0.9338
 -0.9233  -0.8001  -0.7462  -0.6816  -0.6507  -0.5936  -0.5703  -0.5524
 -0.5452  -0.4926  -0.4441  -0.4393  -0.4392  -0.4328  -0.4181  -0.3964
 -0.3901  -0.3773  -0.3750  -0.3611  -0.3562  -0.3369  -0.3310  -0.3125
 -0.2390  -0.2282  -0.1947  -0.1937  -0.1271

          Ground-State Mulliken Net Atomic Charges

     Atom                 Charge (a.u.)
  ----------------------------------------
      1 C                    -1.747426
      2 C                    -0.696353
      3 C                     1.000179
      4 C                    -0.091523
      5 C                    -0.942059
      6 C                    -0.580745
      7 O                    -0.485579
      8 O                    -0.402689
      9 C                     2.199744
     10 F                    -0.153622
     11 F                    -0.087589
     12 F                    -0.087574
     13 H                     0.096510
     14 H                    -0.007308
     15 H                    -0.013967
  ----------------------------------------
  Sum of atomic charges =    -2.000000

                    Cartesian Multipole Moments
 -----------------------------------------------------------------
    Charge (ESU x 10^10)
                -9.6064
    Dipole Moment (Debye)
         X      -6.9106      Y      -3.1987      Z       4.2901
       Tot       8.7403
    Quadrupole Moments (Debye-Ang)
        XX    -108.6699     XY     -13.6477     YY     -94.7172
        XZ      19.0873     YZ      24.8268     ZZ    -115.0600

 Total job time:  165.23s(wall), 1210.00s(cpu)
        *  Thank you very much for using Q-Chem.  Have a nice day.  *
