 Gaussian 16, Revision A.03,
 Gaussian 16:  ES64L-G16RevA.03 25-Dec-2016

 ----------------------------------------------------------------
 #P UB3LYP/6-311++G(d,p) SCRF=(PCM,Solvent=n,n-DiMethylFormamide)
 ----------------------------------------------------------------

 ------------------
 Quinone PCM in DMF
 ------------------
 Symbolic Z-matrix:
 Charge =  0 Multiplicity = 1

                         Standard orientation:
 ---------------------------------------------------------------------
 Center     Atomic      Atomic             Coordinates (Angstroms)
 Number     Number       Type             X           Y           Z
 ---------------------------------------------------------------------
      1          6           0        2.362214   -1.942565   -0.864611
      2          6           0        3.612244   -2.464804   -0.549311
      3          6           0        4.534980   -1.696249    0.164614
      4          6           0        2.023505   -0.647933   -0.461427
      5          6           0        2.951587    0.123107    0.257175
      6          6           0        4.206738   -0.405303    0.565496
      7          6           0        0.683668   -0.100197   -0.834761
      8          6           0        0.320173    1.252560   -0.277419
      9          6           0        1.231833    1.978661    0.405267
     10          6           0        2.597675    1.503074    0.695660
     11         16           0       -1.238231    1.990739   -0.693207
     12          6           0       -2.436274    0.689825   -0.361701
     13          6           0       -3.347791    0.348818   -1.358775
     14          6           0       -2.520767    0.106327    0.904691
     15          6           0       -3.498120   -0.851395    1.185627
     16          6           0       -4.341611   -0.585859   -1.076324
     17          6           0       -4.412680   -1.183568    0.178720
     18          6           0       -3.564371   -1.514505    2.540503
     19          8           0       -0.066057   -0.706134   -1.573190
     20          8           0        3.385745    2.214074    1.301680
     21          1           0        1.636664   -2.519592   -1.424451
     22          1           0        3.871167   -3.469965   -0.861968
     23          1           0        5.509221   -2.105765    0.406105
     24          1           0        4.906696    0.209982    1.117493
     25          1           0        0.993385    2.963522    0.791602
     26          1           0       -3.269608    0.794054   -2.342715
     27          1           0       -1.824087    0.404413    1.680701
     28          1           0       -5.056524   -0.856380   -1.845330
     29          1           0       -5.188567   -1.914603    0.382071
     30          1           0       -3.018053   -0.941585    3.292562
     31          1           0       -3.126479   -2.517828    2.506417
     32          1           0       -4.597615   -1.621556    2.880361
 ---------------------------------------------------------------------

 SCF Done:  E(UB3LYP) =  -1203.91485109     A.U. after   17 cycles

 The electronic state is 1-A.
 Alpha  occ. eigenvalues --  -88.87716 -19.14304 -19.13777 -10.29559 -10.28713
 Alpha  occ. eigenvalues --  -10.24850 -10.21985 -10.21448 -10.21328 -10.21145
 Alpha  occ. eigenvalues --  -10.20177 -10.20143 -10.20092 -10.20060 -10.19619
 Alpha  occ. eigenvalues --  -10.18664 -10.18650 -10.18577 -10.18198 -10.17049
 Alpha  occ. eigenvalues --   -7.96308  -5.92702  -5.92302  -5.91709  -1.07914
 Alpha  occ. eigenvalues --   -1.06970  -0.89575  -0.88232  -0.85828  -0.80777
 Alpha  occ. eigenvalues --   -0.78455  -0.78241  -0.77173  -0.72942  -0.69862
 Alpha  occ. eigenvalues --   -0.69214  -0.65397  -0.63820  -0.61261  -0.59769
 Alpha  occ. eigenvalues --   -0.58271  -0.55054  -0.53518  -0.52093  -0.50378
 Alpha  occ. eigenvalues --   -0.48659  -0.47990  -0.46856  -0.46559  -0.45833
 Alpha  occ. eigenvalues --   -0.45515  -0.45144  -0.43690  -0.43260  -0.42820
 Alpha  occ. eigenvalues --   -0.42461  -0.42240  -0.39737  -0.39392  -0.38650
 Alpha  occ. eigenvalues --   -0.38180  -0.37435  -0.36950  -0.35671  -0.35103
 Alpha  occ. eigenvalues --   -0.32295  -0.29674  -0.29089  -0.28577  -0.28238
 Alpha  occ. eigenvalues --   -0.27415  -0.26085  -0.24173
 Alpha virt. eigenvalues --   -0.13215  -0.06150  -0.04376  -0.03659  -0.02290
 Alpha virt. eigenvalues --   -0.00812  -0.00060   0.00658   0.00845   0.01182
 Alpha virt. eigenvalues --    0.01620   0.02121   0.02407   0.02784   0.03205

  Beta  occ. eigenvalues --  -88.87716 -19.14304 -19.13777 -10.29559 -10.28713
  Beta  occ. eigenvalues --  -10.24850 -10.21985 -10.21448 -10.21328 -10.21145
  Beta  occ. eigenvalues --  -10.20177 -10.20143 -10.20092 -10.20060 -10.19619
  Beta  occ. eigenvalues --  -10.18664 -10.18650 -10.18577 -10.18198 -10.17049
  Beta  occ. eigenvalues --   -7.96308  -5.92702  -5.92302  -5.91709  -1.07914
  Beta  occ. eigenvalues --   -1.06970  -0.89575  -0.88232  -0.85828  -0.80777
  Beta  occ. eigenvalues --   -0.78455  -0.78241  -0.77173  -0.72942  -0.69862
  Beta  occ. eigenvalues --   -0.69214  -0.65397  -0.63820  -0.61261  -0.59769
  Beta  occ. eigenvalues --   -0.58271  -0.55054  -0.53518  -0.52093  -0.50378
  Beta  occ. eigenvalues --   -0.48659  -0.47990  -0.46856  -0.46559  -0.45833
  Beta  occ. eigenvalues --   -0.45515  -0.45144  -0.43690  -0.43260  -0.42820
  Beta  occ. eigenvalues --   -0.42461  -0.42240  -0.39737  -0.39392  -0.38650
  Beta  occ. eigenvalues --   -0.38180  -0.37435  -0.36950  -0.35671  -0.35103
  Beta  occ. eigenvalues --   -0.32295  -0.29674  -0.29089  -0.28577  -0.28238
  Beta  occ. eigenvalues --   -0.27415  -0.26085  -0.24173
  Beta virt. eigenvalues --   -0.13215  -0.06150  -0.04376  -0.03659  -0.02290
  Beta virt. eigenvalues --   -0.00812  -0.00060   0.00658   0.00845   0.01182
  Beta virt. eigenvalues --    0.01620   0.02121   0.02407   0.02784   0.03205

 Mulliken charges and spin densities:
               1          2
     1  C    0.164675   0.000000
     2  C   -0.344820   0.000000
     3  C   -0.389614   0.000000
     4  C    0.089491   0.000000
     5  C    0.534735  -0.000000
     6  C    0.133319  -0.000000
     7  C   -0.961954  -0.000000
     8  C    0.837481  -0.000000
     9  C    0.034682  -0.000000
    10  C   -0.542050   0.000000
    11  S   -0.434483   0.000000
    12  C    0.653260   0.000000
    13  C    0.027245  -0.000000
    14  C   -0.780996   0.000000
    15  C    0.272637   0.000000
    16  C   -0.346290  -0.000000
    17  C   -0.301452   0.000000
    18  C   -0.553628   0.000000
    19  O   -0.194810   0.000000
    20  O   -0.293331  -0.000000
    21  H    0.203004  -0.000000
    22  H    0.208913  -0.000000
    23  H    0.211295   0.000000
    24  H    0.188786  -0.000000
    25  H    0.259627   0.000000
    26  H    0.205645   0.000000
    27  H    0.232319   0.000000
    28  H    0.200687  -0.000000
    29  H    0.185669  -0.000000
    30  H    0.163366  -0.000000
    31  H    0.184959  -0.000000
    32  H    0.151633   0.000000
 Sum of Mulliken charges =  -0.00000   0.00000

 Dipole moment (field-independent basis, Debye):
    X=             -0.3284    Y=             -4.1611    Z=              0.9856  Tot=              4.2888
 Quadrupole moment (field-independent basis, Debye-Ang):
   XX=           -108.8859   YY=           -122.0414   ZZ=           -124.0478
   XY=            -10.9397   XZ=             -6.3535   YZ=             -5.1870

 Normal termination of Gaussian 16 at Thu Jan 25 05:48:29 2024.
