 Gaussian 16, Revision A.03,
 Gaussian 16:  ES64L-G16RevA.03 25-Dec-2016

 --------------------------------------
 #P UB3LYP/6-311++G(d,p) nosym opt freq
 --------------------------------------

 -------
 Reduced
 -------
 Symbolic Z-matrix:
 Charge = -2 Multiplicity = 1

 SCF Done:  E(UB3LYP) =  -496.048121083     A.U. after   38 cycles
 SCF Done:  E(UB3LYP) =  -496.077351220     A.U. after   25 cycles
 SCF Done:  E(UB3LYP) =  -496.082511496     A.U. after   24 cycles
 SCF Done:  E(UB3LYP) =  -496.082993278     A.U. after   28 cycles
 SCF Done:  E(UB3LYP) =  -496.084162069     A.U. after   26 cycles
 SCF Done:  E(UB3LYP) =  -496.084345949     A.U. after   27 cycles
 SCF Done:  E(UB3LYP) =  -496.086083199     A.U. after   23 cycles
 SCF Done:  E(UB3LYP) =  -496.087112975     A.U. after   24 cycles
 SCF Done:  E(UB3LYP) =  -496.087411025     A.U. after   23 cycles
 SCF Done:  E(UB3LYP) =  -496.087525275     A.U. after   22 cycles
 SCF Done:  E(UB3LYP) =  -496.087548428     A.U. after   22 cycles
 SCF Done:  E(UB3LYP) =  -496.087549081     A.U. after   20 cycles
 SCF Done:  E(UB3LYP) =  -496.087552902     A.U. after   18 cycles
 Optimization completed.
    -- Stationary point found.
 Normal termination of Gaussian 16 at Wed Dec 20 01:50:46 2023.

 ----------------------------------------------------------------------
 #P Geom=AllCheck Guess=TCheck SCRF=Check GenChk UB3LYP/6-311++G(d,p) F
 req
 ----------------------------------------------------------------------

 Structure from the checkpoint file:  "082-an.chk"
 -------
 Reduced
 -------
 Charge = -2 Multiplicity = 1

                          Input orientation:
 ---------------------------------------------------------------------
 Center     Atomic      Atomic             Coordinates (Angstroms)
 Number     Number       Type             X           Y           Z
 ---------------------------------------------------------------------
      1          6           0        2.594174   -0.162396    0.704872
      2          8           0        1.828378    0.208531   -0.433058
      3          6           0        0.438835    0.102800   -0.254543
      4          6           0       -0.307732    1.258272   -0.487529
      5          6           0       -1.739241    1.308963   -0.424820
      6          8           0       -2.430684    2.385477   -0.644703
      7          6           0       -2.328874    0.045096   -0.083432
      8          6           0       -1.577586   -1.107252    0.151433
      9          6           0       -0.149256   -1.174266    0.069283
     10          8           0        0.531745   -2.265505    0.254392
     11          1           0        2.350690   -1.184509    1.009147
     12          1           0        3.652692   -0.087056    0.424938
     13          1           0        2.409221    0.532609    1.543179
     14          1           0        0.226700    2.174235   -0.732855
     15          1           0       -3.417147    0.009890   -0.013927
     16          1           0       -2.081916   -2.044889    0.390182
 ---------------------------------------------------------------------

 SCF Done:  E(UB3LYP) =  -496.087552902     A.U. after    2 cycles

 Alpha  occ. eigenvalues --  -18.86260 -18.75404 -18.74970  -9.95241  -9.92009
 Alpha  occ. eigenvalues --   -9.91156  -9.90958  -9.86893  -9.86624  -9.86046
 Alpha  occ. eigenvalues --   -0.76894  -0.66123  -0.65684  -0.51807  -0.45637
 Alpha  occ. eigenvalues --   -0.40912  -0.37903  -0.30259  -0.27648  -0.20720
 Alpha  occ. eigenvalues --   -0.19545  -0.18847  -0.16495  -0.15094  -0.12924
 Alpha  occ. eigenvalues --   -0.09581  -0.08885  -0.07827  -0.06642  -0.06091
 Alpha  occ. eigenvalues --   -0.04302  -0.01153   0.04263   0.05502   0.07143
 Alpha  occ. eigenvalues --    0.07525   0.15055
 Alpha virt. eigenvalues --    0.17044   0.19843   0.20848   0.21317   0.21862
 Alpha virt. eigenvalues --    0.23649   0.26829   0.27637   0.27876   0.29026
 Alpha virt. eigenvalues --    0.29545   0.31092   0.31155   0.31794   0.32571

  Beta  occ. eigenvalues --  -18.86260 -18.75404 -18.74970  -9.95241  -9.92009
  Beta  occ. eigenvalues --   -9.91156  -9.90958  -9.86893  -9.86624  -9.86046
  Beta  occ. eigenvalues --   -0.76894  -0.66123  -0.65684  -0.51807  -0.45637
  Beta  occ. eigenvalues --   -0.40912  -0.37903  -0.30259  -0.27648  -0.20720
  Beta  occ. eigenvalues --   -0.19545  -0.18847  -0.16495  -0.15094  -0.12924
  Beta  occ. eigenvalues --   -0.09581  -0.08885  -0.07827  -0.06642  -0.06091
  Beta  occ. eigenvalues --   -0.04302  -0.01153   0.04263   0.05502   0.07143
  Beta  occ. eigenvalues --    0.07525   0.15055
  Beta virt. eigenvalues --    0.17044   0.19843   0.20848   0.21317   0.21862
  Beta virt. eigenvalues --    0.23649   0.26829   0.27637   0.27876   0.29026
  Beta virt. eigenvalues --    0.29545   0.31092   0.31155   0.31794   0.32571

 Mulliken charges and spin densities:
               1          2
     1  C    0.601806  -0.000000
     2  O   -0.254409   0.000000
     3  C   -0.377385   0.000000
     4  C    0.805283  -0.000000
     5  C   -1.111693   0.000000
     6  O   -0.578420  -0.000000
     7  C    0.404855  -0.000000
     8  C    0.004838   0.000000
     9  C   -0.433489  -0.000000
    10  O   -0.572761  -0.000000
    11  H    0.211739  -0.000000
    12  H   -0.764331   0.000000
    13  H   -0.101281   0.000000
    14  H    0.071788   0.000000
    15  H    0.045101   0.000000
    16  H    0.048359   0.000000
 Sum of Mulliken charges =  -2.00000   0.00000

 Dipole moment (field-independent basis, Debye):
    X=              1.3544    Y=             -1.5851    Z=              1.8165  Tot=              2.7653
 Quadrupole moment (field-independent basis, Debye-Ang):
   XX=           -128.5510   YY=           -109.5391   ZZ=            -75.0059
   XY=             21.7586   XZ=             -6.4769   YZ=              7.0571

  Exact polarizability:1108.977  -1.890 192.591  90.494   4.618 224.409
 Approx polarizability:3041.516  52.488 275.819 315.816  -4.522 243.739

                      1                      2                      3
                      A                      A                      A
 Frequencies --     98.2513               124.2861               177.6581
 Red. masses --      3.2658                 4.9573                 1.8489
 Frc consts  --      0.0186                 0.0451                 0.0344
 IR Inten    --      2.4313                 5.1144                13.3420

                      4                      5                      6
                      A                      A                      A
 Frequencies --    197.8116               287.8817               331.2636
 Red. masses --      1.6948                 5.3155                 7.3932
 Frc consts  --      0.0391                 0.2596                 0.4780
 IR Inten    --     46.2260                11.2153                39.4830

                      7                      8                      9
                      A                      A                      A
 Frequencies --    348.9623               374.9261               444.1811
 Red. masses --      9.1847                 5.7224                 8.3204
 Frc consts  --      0.6590                 0.4739                 0.9672
 IR Inten    --     44.4325                 5.7304               453.1076

                     10                     11                     12
                      A                      A                      A
 Frequencies --    473.3218               506.7581               607.7007
 Red. masses --      3.2257                 4.9625                 3.4097
 Frc consts  --      0.4258                 0.7509                 0.7419
 IR Inten    --     90.7844               115.7237                 6.0239

                     13                     14                     15
                      A                      A                      A
 Frequencies --    643.0482               709.0848               712.7008
 Red. masses --      3.1961                 2.3822                 5.3307
 Frc consts  --      0.7787                 0.7057                 1.5953
 IR Inten    --     13.8867                 6.1805                 3.3444

                     16                     17                     18
                      A                      A                      A
 Frequencies --    786.4831               808.3444               819.3074
 Red. masses --      2.4623                 5.4227                 1.9320
 Frc consts  --      0.8974                 2.0877                 0.7641
 IR Inten    --      3.4689                59.9649                40.6894

                     19                     20                     21
                      A                      A                      A
 Frequencies --    859.0073               918.2223              1027.4304
 Red. masses --      1.2977                 3.6477                 3.5741
 Frc consts  --      0.5642                 1.8120                 2.2229
 IR Inten    --      6.2213                 9.0942               110.6289

                     22                     23                     24
                      A                      A                      A
 Frequencies --   1076.7653              1116.9541              1161.2015
 Red. masses --      2.0779                 2.3709                 1.2719
 Frc consts  --      1.4195                 1.7428                 1.0105
 IR Inten    --     11.0102               792.6169                80.1431

                     25                     26                     27
                      A                      A                      A
 Frequencies --   1187.1810              1197.8166              1218.9810
 Red. masses --      4.0740                 1.4360                 1.6217
 Frc consts  --      3.3830                 1.2139                 1.4197
 IR Inten    --    237.5391                 5.0040               248.4209

                     28                     29                     30
                      A                      A                      A
 Frequencies --   1300.0797              1337.9751              1407.3370
 Red. masses --      2.4579                 9.2212                 3.0012
 Frc consts  --      2.4477                 9.7260                 3.5022
 IR Inten    --    268.9444              2045.3937                39.5848

                     31                     32                     33
                      A                      A                      A
 Frequencies --   1430.1244              1444.4194              1454.4850
 Red. masses --      1.6170                 2.4302                 1.4108
 Frc consts  --      1.9486                 2.9872                 1.7584
 IR Inten    --    107.9910               109.6222               899.1697

                     34                     35                     36
                      A                      A                      A
 Frequencies --   1476.7490              1511.7566              1586.0855
 Red. masses --      3.0200                 1.0522                 5.9235
 Frc consts  --      3.8803                 1.4168                 8.7798
 IR Inten    --    509.0136               115.8512              2637.0038

                     37                     38                     39
                      A                      A                      A
 Frequencies --   2909.4628              2994.2745              3060.3450
 Red. masses --      1.0501                 1.0813                 1.1008
 Frc consts  --      5.2374                 5.7119                 6.0741
 IR Inten    --    113.7046               191.1522                20.6823

                     40                     41                     42
                      A                      A                      A
 Frequencies --   3067.1983              3095.5230              3117.9893
 Red. masses --      1.0830                 1.0917                 1.0878
 Frc consts  --      6.0029                 6.1632                 6.2307
 IR Inten    --     61.4043               520.6994               141.6297

 - Thermochemistry -
 -------------------
 Temperature   298.150 Kelvin.  Pressure   1.00000 Atm.
 Atom     1 has atomic number  6 and mass  12.00000

 Molecular mass:   138.03169 amu.
 Principal axes and moments of inertia in atomic units:
                           1         2         3
     Eigenvalues --   736.495421737.726642392.96730
           X            0.85795   0.50978  -0.06366
           Y           -0.49034   0.84953   0.19457
           Z            0.15327  -0.13571   0.97882
 This molecule is an asymmetric top.
 Rotational symmetry number  1.
 Warning -- assumption of classical behavior for rotation
           may cause significant error
 Rotational temperatures (Kelvin)      0.11760     0.04984     0.03620
 Rotational constants (GHZ):           2.45044     1.03856     0.75419
 Zero-point vibrational energy     295533.5 (Joules/Mol)
                                   70.63419 (Kcal/Mol)
 Warning -- explicit consideration of  12 degrees of freedom as
           vibrations may cause significant error
 Vibrational temperatures:    141.36   178.82   255.61   284.61   414.20
          (Kelvin)            476.61   502.08   539.44   639.08   681.00
                              729.11   874.35   925.20  1020.21  1025.42
                             1131.57  1163.03  1178.80  1235.92  1321.12
                             1478.24  1549.23  1607.05  1670.71  1708.09
                             1723.39  1753.84  1870.52  1925.05  2024.84
                             2057.63  2078.20  2092.68  2124.71  2175.08
                             2282.02  4186.07  4308.09  4403.15  4413.01
                             4453.77  4486.09

 Zero-point correction=                           0.112563 (Hartree/Particle)
 Thermal correction to Energy=                    0.121299
 Thermal correction to Enthalpy=                  0.122244
 Thermal correction to Gibbs Free Energy=         0.078910
 Sum of electronic and zero-point Energies=           -495.974990
 Sum of electronic and thermal Energies=              -495.966253
 Sum of electronic and thermal Enthalpies=            -495.965309
 Sum of electronic and thermal Free Energies=         -496.008643

                     E (Thermal)             CV                S
                      KCal/Mol        Cal/Mol-Kelvin    Cal/Mol-Kelvin
 Total                   76.117             33.044             91.204
 Electronic               0.000              0.000              0.000
 Translational            0.889              2.981             40.679
 Rotational               0.889              2.981             29.506
 Vibrational             74.339             27.082             21.020
 Vibration     1          0.604              1.950              3.489
 Vibration     2          0.610              1.929              3.033
 Vibration     3          0.628              1.870              2.353
 Vibration     4          0.637              1.843              2.153
 Vibration     5          0.685              1.696              1.486
 Vibration     6          0.714              1.613              1.254
 Vibration     7          0.726              1.577              1.171
 Vibration     8          0.746              1.524              1.060
 Vibration     9          0.804              1.374              0.814
 Vibration    10          0.830              1.309              0.728
 Vibration    11          0.862              1.235              0.641
 Vibration    12          0.966              1.015              0.437

                           ! Non-Optimized Parameters !
 Normal termination of Gaussian 16 at Wed Dec 20 01:59:39 2023.
