 Q-Chem 5.4, Q-Chem, Inc., Pleasanton, CA (2021)
 Q-Chem 5.4.0 for Intel X86 EM64T Linux

User input:
--------------------------------------------------------------
$molecule
-2 1
C                 -1.1973360000      2.6367070000     -0.6037770000
C                 -2.2624070000      2.0088500000     -0.0048080000
C                 -2.1313680000      0.6578310000      0.4526720000
C                  0.0572350000      1.9821140000     -0.7936250000
C                  0.1863160000      0.6060540000     -0.3345710000
C                 -0.9400310000     -0.0084370000      0.2857100000
C                  1.1577250000      2.5975260000     -1.4001740000
C                  2.3899000000      1.9600170000     -1.5878490000
C                  2.5098690000      0.5705950000     -1.1223780000
C                  1.4113150000     -0.0498810000     -0.5185290000
C                  3.4810560000      2.6929640000     -2.2252150000
C                  4.7624540000      1.9559360000     -2.4028590000
C                  4.8032160000      0.5876630000     -1.9325100000
C                  3.7522320000     -0.0783020000     -1.3304260000
O                  3.3420810000      3.8911920000     -2.6041310000
O                  5.7808290000      2.4810410000     -2.9378560000
H                 -1.2938200000      3.6633790000     -0.9502130000
H                 -3.2054520000      2.5333220000      0.1256810000
H                 -2.9740000000      0.1641170000      0.9292260000
H                 -0.8377080000     -1.0346540000      0.6327520000
H                  1.0833400000      3.6227020000     -1.7518330000
H                  1.5168860000     -1.0749360000     -0.1774680000
H                  5.7581090000      0.0968720000     -2.0897010000
O                  3.8112310000     -1.4202580000     -0.9270430000
C                  5.0878780000     -2.0190270000     -0.8182780000
C                  4.9196690000     -3.4397660000     -0.3660410000
C                  5.6896520000     -4.0486890000      0.5339800000
H                  5.7281650000     -1.4600320000     -0.1200490000
H                  5.5914380000     -2.0109240000     -1.7971890000
H                  4.1137460000     -3.9859850000     -0.8524860000
H                  6.4905510000     -3.5208450000      1.0453070000
H                  5.5552080000     -5.0936430000      0.8004120000
$end
$rem
MAX_SCF_CYCLES=200
BASIS  =  6-311++G(d,p)
GUI  =  2
JOB_TYPE  =  SP
METHOD  =  B3LYP
SOLVENT_METHOD = PCM
$end
$pcm
theory = CPCM
$end
$solvent
dielectric 37.219
opticaldielectric 1.43
$end

--------------------------------------------------------------

             Standard Nuclear Orientation (Angstroms)
    I     Atom           X                Y                Z
 ----------------------------------------------------------------
    1      C      -1.1973360000     2.6367070000    -0.6037770000
    2      C      -2.2624070000     2.0088500000    -0.0048080000
    3      C      -2.1313680000     0.6578310000     0.4526720000
    4      C       0.0572350000     1.9821140000    -0.7936250000
    5      C       0.1863160000     0.6060540000    -0.3345710000
    6      C      -0.9400310000    -0.0084370000     0.2857100000
    7      C       1.1577250000     2.5975260000    -1.4001740000
    8      C       2.3899000000     1.9600170000    -1.5878490000
    9      C       2.5098690000     0.5705950000    -1.1223780000
   10      C       1.4113150000    -0.0498810000    -0.5185290000
   11      C       3.4810560000     2.6929640000    -2.2252150000
   12      C       4.7624540000     1.9559360000    -2.4028590000
   13      C       4.8032160000     0.5876630000    -1.9325100000
   14      C       3.7522320000    -0.0783020000    -1.3304260000
   15      O       3.3420810000     3.8911920000    -2.6041310000
   16      O       5.7808290000     2.4810410000    -2.9378560000
   17      H      -1.2938200000     3.6633790000    -0.9502130000
   18      H      -3.2054520000     2.5333220000     0.1256810000
   19      H      -2.9740000000     0.1641170000     0.9292260000
   20      H      -0.8377080000    -1.0346540000     0.6327520000
   21      H       1.0833400000     3.6227020000    -1.7518330000
   22      H       1.5168860000    -1.0749360000    -0.1774680000
   23      H       5.7581090000     0.0968720000    -2.0897010000
   24      O       3.8112310000    -1.4202580000    -0.9270430000
   25      C       5.0878780000    -2.0190270000    -0.8182780000
   26      C       4.9196690000    -3.4397660000    -0.3660410000
   27      C       5.6896520000    -4.0486890000     0.5339800000
   28      H       5.7281650000    -1.4600320000    -0.1200490000
   29      H       5.5914380000    -2.0109240000    -1.7971890000
   30      H       4.1137460000    -3.9859850000    -0.8524860000
   31      H       6.4905510000    -3.5208450000     1.0453070000
   32      H       5.5552080000    -5.0936430000     0.8004120000
 ----------------------------------------------------------------

    9    -881.1593741088      5.75e-06  Convergence criterion met
 Total energy in the final basis set =     -881.1593741088

                    Orbital Energies (a.u.)
 --------------------------------------------------------------

 Alpha MOs
 -- Occupied --
-19.1308 -19.0253 -19.0208 -10.2158 -10.1925 -10.1753 -10.1720 -10.1657
-10.1645 -10.1614 -10.1603 -10.1599 -10.1595 -10.1591 -10.1579 -10.1524
-10.1513 -10.1430 -10.1398 -10.1316  -1.0411  -0.9593  -0.9323  -0.8532
 -0.8137  -0.7876  -0.7594  -0.7549  -0.7108  -0.7021  -0.6822  -0.6324
 -0.6135  -0.5819  -0.5734  -0.5609  -0.5419  -0.5076  -0.4991  -0.4908
 -0.4737  -0.4587  -0.4454  -0.4355  -0.4296  -0.4176  -0.4075  -0.4003
 -0.3955  -0.3854  -0.3801  -0.3702  -0.3648  -0.3608  -0.3559  -0.3382
 -0.3342  -0.3312  -0.3162  -0.3087  -0.3036  -0.2869  -0.2714  -0.2663
 -0.2425  -0.2172  -0.2057  -0.1933  -0.1870  -0.1060

          Ground-State Mulliken Net Atomic Charges

     Atom                 Charge (a.u.)
  ----------------------------------------
      1 C                    -0.180807
      2 C                    -0.347430
      3 C                    -0.403667
      4 C                     0.071239
      5 C                     0.050390
      6 C                    -0.167558
      7 C                    -0.101226
      8 C                     0.429693
      9 C                     0.197181
     10 C                    -0.176433
     11 C                    -0.467475
     12 C                    -0.048311
     13 C                     0.133517
     14 C                    -0.527578
     15 O                    -0.708128
     16 O                    -0.696836
     17 H                     0.162825
     18 H                     0.183008
     19 H                     0.185316
     20 H                     0.163875
     21 H                     0.116679
     22 H                     0.118932
     23 H                     0.177673
     24 O                    -0.184071
     25 C                    -0.502883
     26 C                     0.214624
     27 C                    -0.561400
     28 H                     0.178236
     29 H                     0.150145
     30 H                     0.208512
     31 H                     0.155081
     32 H                     0.176878
  ----------------------------------------
  Sum of atomic charges =    -2.000000

                    Cartesian Multipole Moments
 -----------------------------------------------------------------
    Charge (ESU x 10^10)
                -9.6064
    Dipole Moment (Debye)
         X     -33.7821      Y     -24.6679      Z      21.3289
       Tot      46.9538
    Quadrupole Moments (Debye-Ang)
        XX    -281.5252     XY    -100.1838     YY    -201.0843
        XZ      93.3823     YZ      61.2754     ZZ    -184.5566

 Total job time:  69.32s(wall), 477.12s(cpu)
        *  Thank you very much for using Q-Chem.  Have a nice day.  *
