 Q-Chem 5.4, Q-Chem, Inc., Pleasanton, CA (2021)
 Q-Chem 5.4.0 for Intel X86 EM64T Linux

User input:
--------------------------------------------------------------
$molecule
0 1
C                 -1.6745730000      2.8608340000     -0.5601910000
C                 -2.8738480000      2.1576970000     -0.5879230000
C                 -2.8526680000      0.7683330000     -0.4833410000
C                 -0.4609280000      2.1895540000     -0.3997280000
C                 -0.4352150000      0.7890430000     -0.2285750000
C                 -1.6470460000      0.0914950000     -0.3111780000
C                  0.8057520000      2.9662110000     -0.5198500000
C                  2.1155100000      2.1475070000     -0.6527060000
C                  2.0368700000      0.7315790000     -0.3503940000
C                  0.8673720000      0.0862790000     -0.0610160000
O                  0.8314420000      4.1758490000     -0.5453360000
O                  3.1565840000      2.7203590000     -0.9218640000
H                 -1.6493950000      3.9367100000     -0.6853900000
H                 -3.8127410000      2.6833170000     -0.7171570000
H                 -3.7765050000      0.2041660000     -0.5443750000
H                 -1.6476600000     -0.9890540000     -0.2667800000
H                  2.9905190000      0.2249170000     -0.2865550000
N                  0.8331970000     -1.2573700000      0.2951520000
C                  2.0241310000     -2.0638480000      0.0571290000
C                  0.1501650000     -1.6385610000      1.5390550000
H                  2.3907860000     -1.9012220000     -0.9563660000
H                  1.7526880000     -3.1160450000      0.1634470000
H                  2.8349550000     -1.8473200000      0.7683490000
H                 -0.6601090000     -0.9526790000      1.7690660000
H                  0.8564160000     -1.6225690000      2.3810010000
H                 -0.2554190000     -2.6493710000      1.4475670000
$end
$rem
MAX_SCF_CYCLES=200
BASIS  =  6-311++G(d,p)
GUI  =  2
JOB_TYPE  =  SP
METHOD  =  B3LYP
SOLVENT_METHOD = PCM
$end
$pcm
theory = CPCM
$end
$solvent
dielectric 37.219
opticaldielectric 1.43
$end

--------------------------------------------------------------

             Standard Nuclear Orientation (Angstroms)
    I     Atom           X                Y                Z
 ----------------------------------------------------------------
    1      C      -1.6745730000     2.8608340000    -0.5601910000
    2      C      -2.8738480000     2.1576970000    -0.5879230000
    3      C      -2.8526680000     0.7683330000    -0.4833410000
    4      C      -0.4609280000     2.1895540000    -0.3997280000
    5      C      -0.4352150000     0.7890430000    -0.2285750000
    6      C      -1.6470460000     0.0914950000    -0.3111780000
    7      C       0.8057520000     2.9662110000    -0.5198500000
    8      C       2.1155100000     2.1475070000    -0.6527060000
    9      C       2.0368700000     0.7315790000    -0.3503940000
   10      C       0.8673720000     0.0862790000    -0.0610160000
   11      O       0.8314420000     4.1758490000    -0.5453360000
   12      O       3.1565840000     2.7203590000    -0.9218640000
   13      H      -1.6493950000     3.9367100000    -0.6853900000
   14      H      -3.8127410000     2.6833170000    -0.7171570000
   15      H      -3.7765050000     0.2041660000    -0.5443750000
   16      H      -1.6476600000    -0.9890540000    -0.2667800000
   17      H       2.9905190000     0.2249170000    -0.2865550000
   18      N       0.8331970000    -1.2573700000     0.2951520000
   19      C       2.0241310000    -2.0638480000     0.0571290000
   20      C       0.1501650000    -1.6385610000     1.5390550000
   21      H       2.3907860000    -1.9012220000    -0.9563660000
   22      H       1.7526880000    -3.1160450000     0.1634470000
   23      H       2.8349550000    -1.8473200000     0.7683490000
   24      H      -0.6601090000    -0.9526790000     1.7690660000
   25      H       0.8564160000    -1.6225690000     2.3810010000
   26      H      -0.2554190000    -2.6493710000     1.4475670000
 ----------------------------------------------------------------

    9    -669.2753758873      3.33e-06  Convergence criterion met
 Total energy in the final basis set =     -669.2753758873

                    Orbital Energies (a.u.)
 --------------------------------------------------------------

 Alpha MOs
 -- Occupied --
-19.1415 -19.1224 -14.3576 -10.2813 -10.2683 -10.2533 -10.2160 -10.2045
-10.2028 -10.1994 -10.1967 -10.1961 -10.1953 -10.1927 -10.1790  -1.0810
 -1.0488  -0.9709  -0.8881  -0.8245  -0.7812  -0.7627  -0.7236  -0.7187
 -0.6622  -0.6386  -0.6182  -0.5836  -0.5450  -0.5278  -0.5194  -0.4861
 -0.4812  -0.4750  -0.4626  -0.4579  -0.4499  -0.4489  -0.4361  -0.4207
 -0.4099  -0.4009  -0.3963  -0.3892  -0.3842  -0.3754  -0.3635  -0.3342
 -0.3116  -0.2788  -0.2678  -0.2585  -0.2347

          Ground-State Mulliken Net Atomic Charges

     Atom                 Charge (a.u.)
  ----------------------------------------
      1 C                     0.102876
      2 C                    -0.532499
      3 C                    -0.176015
      4 C                     0.406429
      5 C                     0.247288
      6 C                     0.000181
      7 C                    -0.194656
      8 C                    -0.002934
      9 C                     0.026316
     10 C                    -0.805356
     11 O                    -0.307300
     12 O                    -0.379807
     13 H                     0.210298
     14 H                     0.218914
     15 H                     0.230229
     16 H                     0.227420
     17 H                     0.228795
     18 N                     0.230681
     19 C                    -0.363310
     20 C                    -0.445304
     21 H                     0.178532
     22 H                     0.182406
     23 H                     0.185303
     24 H                     0.140869
     25 H                     0.178897
     26 H                     0.211747
  ----------------------------------------
  Sum of atomic charges =     0.000000

                    Cartesian Multipole Moments
 -----------------------------------------------------------------
    Charge (ESU x 10^10)
                 0.0000
    Dipole Moment (Debye)
         X      -6.5589      Y     -10.1187      Z       2.8177
       Tot      12.3833
    Quadrupole Moments (Debye-Ang)
        XX     -91.9388     XY     -27.4149     YY    -112.4824
        XZ       7.9497     YZ       3.1734     ZZ     -88.7787

 Total job time:  43.21s(wall), 311.31s(cpu)
        *  Thank you very much for using Q-Chem.  Have a nice day.  *
