 Gaussian 16, Revision A.03,
 Gaussian 16:  ES64L-G16RevA.03 25-Dec-2016

 --------------------------------------
 #P UB3LYP/6-311++G(d,p) nosym opt freq
 --------------------------------------

 --------
 Oxidized
 --------
 Symbolic Z-matrix:
 Charge =  0 Multiplicity = 1

 SCF Done:  E(UB3LYP) =  -669.253168011     A.U. after   16 cycles
 Optimization completed.
    -- Stationary point found.
 Normal termination of Gaussian 16 at Tue Jan  9 20:30:06 2024.

 ----------------------------------------------------------------------
 #P Geom=AllCheck Guess=TCheck SCRF=Check GenChk UB3LYP/6-311++G(d,p) F
 req
 ----------------------------------------------------------------------

 Structure from the checkpoint file:  "323.chk"
 --------
 Oxidized
 --------
 Charge =  0 Multiplicity = 1

                          Input orientation:
 ---------------------------------------------------------------------
 Center     Atomic      Atomic             Coordinates (Angstroms)
 Number     Number       Type             X           Y           Z
 ---------------------------------------------------------------------
      1          6           0       -1.674573    2.860834   -0.560191
      2          6           0       -2.873848    2.157697   -0.587923
      3          6           0       -2.852668    0.768333   -0.483341
      4          6           0       -0.460928    2.189554   -0.399728
      5          6           0       -0.435215    0.789043   -0.228575
      6          6           0       -1.647046    0.091495   -0.311178
      7          6           0        0.805752    2.966211   -0.519850
      8          6           0        2.115510    2.147507   -0.652706
      9          6           0        2.036870    0.731579   -0.350394
     10          6           0        0.867372    0.086279   -0.061016
     11          8           0        0.831442    4.175849   -0.545336
     12          8           0        3.156584    2.720359   -0.921864
     13          1           0       -1.649395    3.936710   -0.685390
     14          1           0       -3.812741    2.683317   -0.717157
     15          1           0       -3.776505    0.204166   -0.544375
     16          1           0       -1.647660   -0.989054   -0.266780
     17          1           0        2.990519    0.224917   -0.286555
     18          7           0        0.833197   -1.257370    0.295152
     19          6           0        2.024131   -2.063848    0.057129
     20          6           0        0.150165   -1.638561    1.539055
     21          1           0        2.390786   -1.901222   -0.956366
     22          1           0        1.752688   -3.116045    0.163447
     23          1           0        2.834955   -1.847320    0.768349
     24          1           0       -0.660109   -0.952679    1.769066
     25          1           0        0.856416   -1.622569    2.381001
     26          1           0       -0.255419   -2.649371    1.447567
 ---------------------------------------------------------------------

 SCF Done:  E(UB3LYP) =  -669.253168011     A.U. after    1 cycles

 Alpha  occ. eigenvalues --  -19.12873 -19.11084 -14.36517 -10.26961 -10.25804
 Alpha  occ. eigenvalues --  -10.25570 -10.22539 -10.22174 -10.22103 -10.20711
 Alpha  occ. eigenvalues --  -10.20606 -10.20456 -10.20180 -10.20110 -10.18317
 Alpha  occ. eigenvalues --   -1.06642  -1.03405  -0.98199  -0.89389  -0.82988
 Alpha  occ. eigenvalues --   -0.78689  -0.76991  -0.74164  -0.72492  -0.66803
 Alpha  occ. eigenvalues --   -0.64585  -0.62079  -0.59146  -0.54792  -0.53405
 Alpha  occ. eigenvalues --   -0.52601  -0.49764  -0.49029  -0.47979  -0.46907
 Alpha  occ. eigenvalues --   -0.45820  -0.44669  -0.44382  -0.43463  -0.43100
 Alpha  occ. eigenvalues --   -0.42368  -0.41741  -0.40715  -0.39504  -0.38450
 Alpha  occ. eigenvalues --   -0.37702  -0.37179  -0.33909  -0.29642  -0.28215
 Alpha  occ. eigenvalues --   -0.27559  -0.24401  -0.23924
 Alpha virt. eigenvalues --   -0.11569  -0.05782  -0.02596  -0.02146  -0.00948
 Alpha virt. eigenvalues --    0.00214   0.00460   0.01315   0.01562   0.01873
 Alpha virt. eigenvalues --    0.02623   0.03601   0.03913   0.04244   0.04705

  Beta  occ. eigenvalues --  -19.12873 -19.11084 -14.36517 -10.26961 -10.25804
  Beta  occ. eigenvalues --  -10.25570 -10.22539 -10.22174 -10.22103 -10.20711
  Beta  occ. eigenvalues --  -10.20606 -10.20456 -10.20180 -10.20110 -10.18317
  Beta  occ. eigenvalues --   -1.06642  -1.03405  -0.98199  -0.89389  -0.82988
  Beta  occ. eigenvalues --   -0.78689  -0.76991  -0.74164  -0.72492  -0.66803
  Beta  occ. eigenvalues --   -0.64585  -0.62079  -0.59146  -0.54792  -0.53405
  Beta  occ. eigenvalues --   -0.52601  -0.49764  -0.49029  -0.47979  -0.46907
  Beta  occ. eigenvalues --   -0.45820  -0.44669  -0.44382  -0.43463  -0.43100
  Beta  occ. eigenvalues --   -0.42368  -0.41741  -0.40715  -0.39504  -0.38450
  Beta  occ. eigenvalues --   -0.37702  -0.37179  -0.33909  -0.29642  -0.28215
  Beta  occ. eigenvalues --   -0.27559  -0.24401  -0.23924
  Beta virt. eigenvalues --   -0.11569  -0.05782  -0.02596  -0.02146  -0.00948
  Beta virt. eigenvalues --    0.00214   0.00460   0.01315   0.01562   0.01873
  Beta virt. eigenvalues --    0.02623   0.03601   0.03913   0.04244   0.04705

 Mulliken charges and spin densities:
               1          2
     1  C    0.096178  -0.000000
     2  C   -0.467907   0.000000
     3  C   -0.122205  -0.000000
     4  C    0.413694  -0.000000
     5  C    0.268695   0.000000
     6  C   -0.019284  -0.000000
     7  C   -0.245090  -0.000000
     8  C   -0.157520  -0.000000
     9  C    0.076417  -0.000000
    10  C   -0.760645   0.000000
    11  O   -0.211122  -0.000000
    12  O   -0.245287  -0.000000
    13  H    0.198262  -0.000000
    14  H    0.174149   0.000000
    15  H    0.182136  -0.000000
    16  H    0.176540  -0.000000
    17  H    0.193053  -0.000000
    18  N    0.227133  -0.000000
    19  C   -0.317212  -0.000000
    20  C   -0.412562   0.000000
    21  H    0.167479  -0.000000
    22  H    0.151457   0.000000
    23  H    0.163605   0.000000
    24  H    0.127195  -0.000000
    25  H    0.154585  -0.000000
    26  H    0.188256  -0.000000
 Sum of Mulliken charges =  -0.00000  -0.00000

 Dipole moment (field-independent basis, Debye):
    X=             -4.3947    Y=             -6.8350    Z=              1.8758  Tot=              8.3396
 Quadrupole moment (field-independent basis, Debye-Ang):
   XX=            -90.9106   YY=           -105.0889   ZZ=            -88.9239
   XY=            -20.1137   XZ=              5.6292   YZ=              1.9786

  Exact polarizability: 197.734   7.665 193.232  -2.810 -24.354  96.485
 Approx polarizability: 323.769  48.269 324.582 -11.922 -35.762 149.537

                      1                      2                      3
                      A                      A                      A
 Frequencies --     44.3093                83.4712               101.0726
 Red. masses --      9.1641                 3.0127                 3.2596
 Frc consts  --      0.0106                 0.0124                 0.0196
 IR Inten    --      0.0638                 5.3697                 1.0816

                      4                      5                      6
                      A                      A                      A
 Frequencies --    137.9005               154.8899               185.2574
 Red. masses --      4.3983                 1.8857                 3.8957
 Frc consts  --      0.0493                 0.0267                 0.0788
 IR Inten    --      1.4977                 4.2993                 4.5172

                      7                      8                      9
                      A                      A                      A
 Frequencies --    244.5854               267.2469               280.6711
 Red. masses --      1.5989                 2.4267                 3.7467
 Frc consts  --      0.0564                 0.1021                 0.1739
 IR Inten    --      3.1314                 1.4188                10.5257

                     10                     11                     12
                      A                      A                      A
 Frequencies --    292.6496               337.0226               360.2588
 Red. masses --      1.5612                 4.1306                13.5949
 Frc consts  --      0.0788                 0.2764                 1.0396
 IR Inten    --      2.9670                 2.7350                 5.4113

                     13                     14                     15
                      A                      A                      A
 Frequencies --    388.7333               407.1431               439.1563
 Red. masses --      3.8415                 4.0606                 5.4853
 Frc consts  --      0.3420                 0.3966                 0.6233
 IR Inten    --      2.2496                 1.8569                 2.6333

                     16                     17                     18
                      A                      A                      A
 Frequencies --    457.5842               481.8093               513.7123
 Red. masses --      4.9458                 4.6992                 4.3317
 Frc consts  --      0.6101                 0.6427                 0.6735
 IR Inten    --      1.5329                 5.9421                 7.8056

                     19                     20                     21
                      A                      A                      A
 Frequencies --    535.8789               637.5342               662.8026
 Red. masses --      4.4291                 5.8054                 3.4798
 Frc consts  --      0.7494                 1.3902                 0.9007
 IR Inten    --      5.1516                 0.2355                 2.6111

                     22                     23                     24
                      A                      A                      A
 Frequencies --    691.1968               713.1292               744.7706
 Red. masses --      5.7798                 6.7567                 2.8145
 Frc consts  --      1.6269                 2.0245                 0.9198
 IR Inten    --      7.0539                 1.1579                19.1334

                     25                     26                     27
                      A                      A                      A
 Frequencies --    783.3381               801.2732               817.6543
 Red. masses --      2.1303                 3.1356                 2.9697
 Frc consts  --      0.7702                 1.1861                 1.1698
 IR Inten    --     35.8125                16.4601                 2.7245

                     28                     29                     30
                      A                      A                      A
 Frequencies --    869.2193               909.9114               916.2316
 Red. masses --      1.8239                 1.5651                 3.0150
 Frc consts  --      0.8119                 0.7635                 1.4913
 IR Inten    --     28.0424                 1.1373                17.1165

                     31                     32                     33
                      A                      A                      A
 Frequencies --    972.9500               992.1502              1011.5033
 Red. masses --      6.8632                 1.3750                 1.3202
 Frc consts  --      3.8279                 0.7974                 0.7959
 IR Inten    --     29.3371                 3.0056                 0.2316

                     34                     35                     36
                      A                      A                      A
 Frequencies --   1063.1558              1070.8207              1084.8083
 Red. masses --      2.4117                 1.6042                 2.2898
 Frc consts  --      1.6061                 1.0838                 1.5877
 IR Inten    --      4.7036                11.2230                66.9623

                     37                     38                     39
                      A                      A                      A
 Frequencies --   1117.9034              1138.6788              1159.4243
 Red. masses --      1.2709                 1.7158                 1.4372
 Frc consts  --      0.9358                 1.3107                 1.1383
 IR Inten    --      9.2736                 6.1148                71.8893

                     40                     41                     42
                      A                      A                      A
 Frequencies --   1186.2869              1196.5014              1215.2907
 Red. masses --      1.1582                 2.0919                 3.2068
 Frc consts  --      0.9603                 1.7644                 2.7905
 IR Inten    --      1.3834                 2.6961                27.9949

                     43                     44                     45
                      A                      A                      A
 Frequencies --   1230.5536              1264.7447              1305.3992
 Red. masses --      2.7418                 2.2726                 2.0707
 Frc consts  --      2.4462                 2.1418                 2.0790
 IR Inten    --     37.6117                67.0054                86.4387

                     46                     47                     48
                      A                      A                      A
 Frequencies --   1341.9270              1348.4190              1395.3803
 Red. masses --      6.0018                 2.6287                 3.1295
 Frc consts  --      6.3678                 2.8161                 3.5902
 IR Inten    --      8.6020                 7.8390               141.9277

                     49                     50                     51
                      A                      A                      A
 Frequencies --   1447.2052              1472.6089              1477.3710
 Red. masses --      1.1458                 1.4851                 1.7353
 Frc consts  --      1.4139                 1.8976                 2.2315
 IR Inten    --      0.5822                25.9331                 2.0699

                     52                     53                     54
                      A                      A                      A
 Frequencies --   1488.2704              1497.8677              1505.5340
 Red. masses --      1.0455                 1.0674                 1.0725
 Frc consts  --      1.3644                 1.4110                 1.4322
 IR Inten    --      8.7279                21.0332                 9.7192

                     55                     56                     57
                      A                      A                      A
 Frequencies --   1509.8617              1524.2950              1589.9981
 Red. masses --      2.4082                 1.1161                 5.3840
 Frc consts  --      3.2345                 1.5278                 8.0195
 IR Inten    --      0.5748                10.9992               175.2735

                     58                     59                     60
                      A                      A                      A
 Frequencies --   1627.2723              1631.7621              1715.6667
 Red. masses --      6.3220                 5.9856                12.0437
 Frc consts  --      9.8634                 9.3901                20.8871
 IR Inten    --    143.7246                16.8745               451.4598

                     61                     62                     63
                      A                      A                      A
 Frequencies --   1768.3204              2974.3647              2985.5600
 Red. masses --     12.8343                 1.0548                 1.0550
 Frc consts  --     23.6453                 5.4981                 5.5407
 IR Inten    --     90.2413                42.4575                91.7423

                     64                     65                     66
                      A                      A                      A
 Frequencies --   3066.3259              3075.6681              3123.5888
 Red. masses --      1.0869                 1.0790                 1.1031
 Frc consts  --      6.0212                 6.0140                 6.3412
 IR Inten    --     30.6034                24.9890                10.3248

                     67                     68                     69
                      A                      A                      A
 Frequencies --   3158.2614              3170.4607              3184.8992
 Red. masses --      1.0961                 1.0869                 1.0914
 Frc consts  --      6.4419                 6.4370                 6.5224
 IR Inten    --     10.4264                 2.9553                 8.1666

                     70                     71                     72
                      A                      A                      A
 Frequencies --   3197.4053              3204.0097              3207.7464
 Red. masses --      1.0945                 1.0897                 1.0927
 Frc consts  --      6.5925                 6.5911                 6.6246
 IR Inten    --      6.8154                 2.5841                 5.6883

 - Thermochemistry -
 -------------------
 Temperature   298.150 Kelvin.  Pressure   1.00000 Atm.
 Atom     1 has atomic number  6 and mass  12.00000

 Molecular mass:   201.07898 amu.
 Principal axes and moments of inertia in atomic units:
                           1         2         3
     Eigenvalues --  2457.107142841.206715055.67141
           X           -0.34030   0.94019   0.01543
           Y            0.91390   0.32683   0.24077
           Z           -0.22133  -0.09604   0.97046
 This molecule is an asymmetric top.
 Rotational symmetry number  1.
 Warning -- assumption of classical behavior for rotation
           may cause significant error
 Rotational temperatures (Kelvin)      0.03525     0.03048     0.01713
 Rotational constants (GHZ):           0.73450     0.63520     0.35697
 Zero-point vibrational energy     538084.1 (Joules/Mol)
                                  128.60518 (Kcal/Mol)
 Warning -- explicit consideration of  19 degrees of freedom as
           vibrations may cause significant error
 Vibrational temperatures:     63.75   120.10   145.42   198.41   222.85
          (Kelvin)            266.54   351.90   384.51   403.82   421.06
                              484.90   518.33   559.30   585.79   631.85
                              658.36   693.22   739.12   771.01   917.27
                              953.63   994.48  1026.03  1071.56  1127.05
                             1152.85  1176.42  1250.61  1309.16  1318.25
                             1399.86  1427.48  1455.33  1529.64  1540.67
                             1560.80  1608.41  1638.30  1668.15  1706.80
                             1721.50  1748.53  1770.49  1819.69  1878.18
                             1930.73  1940.07  2007.64  2082.21  2118.76
                             2125.61  2141.29  2155.10  2166.13  2172.35
                             2193.12  2287.65  2341.28  2347.74  2468.46
                             2544.22  4279.45  4295.55  4411.76  4425.20
                             4494.15  4544.03  4561.59  4582.36  4600.35
                             4609.86  4615.23

 Zero-point correction=                           0.204945 (Hartree/Particle)
 Thermal correction to Energy=                    0.217787
 Thermal correction to Enthalpy=                  0.218731
 Thermal correction to Gibbs Free Energy=         0.165688
 Sum of electronic and zero-point Energies=           -669.048223
 Sum of electronic and thermal Energies=              -669.035381
 Sum of electronic and thermal Enthalpies=            -669.034437
 Sum of electronic and thermal Free Energies=         -669.087480

                     E (Thermal)             CV                S
                      KCal/Mol        Cal/Mol-Kelvin    Cal/Mol-Kelvin
 Total                  136.664             49.776            111.640
 Electronic               0.000              0.000              0.000
 Translational            0.889              2.981             41.800
 Rotational               0.889              2.981             31.934
 Vibrational            134.886             43.815             37.905
 Vibration     1          0.595              1.980              5.056
 Vibration     2          0.600              1.961              3.808
 Vibration     3          0.604              1.948              3.434
 Vibration     4          0.614              1.915              2.833
 Vibration     5          0.620              1.897              2.611
 Vibration     6          0.631              1.860              2.275
 Vibration     7          0.660              1.772              1.769
 Vibration     8          0.672              1.733              1.614
 Vibration     9          0.680              1.709              1.530
 Vibration    10          0.688              1.687              1.459
 Vibration    11          0.718              1.602              1.226
 Vibration    12          0.735              1.554              1.121
 Vibration    13          0.757              1.494              1.005
 Vibration    14          0.772              1.455              0.937
 Vibration    15          0.799              1.385              0.829
 Vibration    16          0.816              1.344              0.773
 Vibration    17          0.838              1.290              0.705
 Vibration    18          0.869              1.220              0.625
 Vibration    19          0.891              1.171              0.574

 Optimization completed.
    -- Stationary point found.
 Normal termination of Gaussian 16 at Tue Jan  9 20:50:57 2024.
