 Gaussian 16, Revision A.03,
 Gaussian 16:  ES64L-G16RevA.03 25-Dec-2016

 --------------------------------------
 #P UB3LYP/6-311++G(d,p) nosym opt freq
 --------------------------------------

 -------
 Reduced
 -------
 Symbolic Z-matrix:
 Charge = -2 Multiplicity = 1

 SCF Done:  E(UB3LYP) =  -420.826650394     A.U. after   67 cycles
 SCF Done:  E(UB3LYP) =  -420.851779509     A.U. after   31 cycles
 SCF Done:  E(UB3LYP) =  -420.854079540     A.U. after   28 cycles
 SCF Done:  E(UB3LYP) =  -420.854224587     A.U. after   25 cycles
 SCF Done:  E(UB3LYP) =  -420.854254164     A.U. after   24 cycles
 SCF Done:  E(UB3LYP) =  -420.854271790     A.U. after   26 cycles
 SCF Done:  E(UB3LYP) =  -420.854280893     A.U. after   24 cycles
 SCF Done:  E(UB3LYP) =  -420.854285215     A.U. after   25 cycles
 SCF Done:  E(UB3LYP) =  -420.854286656     A.U. after   25 cycles
 SCF Done:  E(UB3LYP) =  -420.854286901     A.U. after   28 cycles
 Optimization completed.
    -- Stationary point found.
 Normal termination of Gaussian 16 at Sun Dec 17 21:15:54 2023.

 ----------------------------------------------------------------------
 #P Geom=AllCheck Guess=TCheck SCRF=Check GenChk UB3LYP/6-311++G(d,p) F
 req
 ----------------------------------------------------------------------

 Structure from the checkpoint file:  "032-an.chk"
 -------
 Reduced
 -------
 Charge = -2 Multiplicity = 1

                          Input orientation:
 ---------------------------------------------------------------------
 Center     Atomic      Atomic             Coordinates (Angstroms)
 Number     Number       Type             X           Y           Z
 ---------------------------------------------------------------------
      1          6           0       -2.187577   -0.377440    0.004215
      2          6           0       -0.700207   -0.124576   -0.005614
      3          6           0       -0.197732    1.181307   -0.043243
      4          6           0        1.197843    1.519072   -0.044016
      5          8           0        1.642730    2.740378   -0.095070
      6          6           0        2.050816    0.366988    0.000936
      7          6           0        1.563400   -0.941695    0.038117
      8          6           0        0.171259   -1.273027    0.037946
      9          8           0       -0.277621   -2.494493    0.076573
     10          1           0       -2.486090   -0.985680    0.874476
     11          1           0       -2.507825   -0.955141   -0.872143
     12          1           0       -2.758968    0.558962    0.034847
     13          1           0       -0.898674    2.016143   -0.102860
     14          1           0        3.127336    0.549123    0.007680
     15          1           0        2.261309   -1.779922    0.088157
 ---------------------------------------------------------------------

 SCF Done:  E(UB3LYP) =  -420.854286901     A.U. after    6 cycles

 Alpha  occ. eigenvalues --  -18.74452 -18.74272  -9.90047  -9.89835  -9.89241
 Alpha  occ. eigenvalues --   -9.86732  -9.85948  -9.85850  -9.85531  -0.65216
 Alpha  occ. eigenvalues --   -0.64786  -0.51460  -0.46480  -0.39883  -0.36432
 Alpha  occ. eigenvalues --   -0.28690  -0.25132  -0.16973  -0.15654  -0.13944
 Alpha  occ. eigenvalues --   -0.13883  -0.11191  -0.09572  -0.07811  -0.07150
 Alpha  occ. eigenvalues --   -0.04984  -0.04566  -0.03080   0.05141   0.05719
 Alpha  occ. eigenvalues --    0.08099   0.08235   0.15895
 Alpha virt. eigenvalues --    0.17807   0.20071   0.21013   0.21839   0.22942
 Alpha virt. eigenvalues --    0.23291   0.28079   0.28479   0.28635   0.29333
 Alpha virt. eigenvalues --    0.30332   0.31692   0.32020   0.32529   0.33331

  Beta  occ. eigenvalues --  -18.74452 -18.74272  -9.90047  -9.89835  -9.89241
  Beta  occ. eigenvalues --   -9.86732  -9.85948  -9.85850  -9.85531  -0.65216
  Beta  occ. eigenvalues --   -0.64786  -0.51460  -0.46480  -0.39883  -0.36432
  Beta  occ. eigenvalues --   -0.28690  -0.25132  -0.16973  -0.15654  -0.13944
  Beta  occ. eigenvalues --   -0.13883  -0.11191  -0.09572  -0.07811  -0.07150
  Beta  occ. eigenvalues --   -0.04984  -0.04566  -0.03080   0.05141   0.05719
  Beta  occ. eigenvalues --    0.08099   0.08235   0.15895
  Beta virt. eigenvalues --    0.17807   0.20071   0.21013   0.21839   0.22942
  Beta virt. eigenvalues --    0.23291   0.28079   0.28479   0.28635   0.29333
  Beta virt. eigenvalues --    0.30332   0.31692   0.32020   0.32529   0.33331

 Mulliken charges and spin densities:
               1          2
     1  C    1.470285   0.000000
     2  C   -0.218711  -0.000000
     3  C    0.355744   0.000000
     4  C   -0.721624   0.000000
     5  O   -0.582661   0.000000
     6  C    0.280687  -0.000000
     7  C    0.400345   0.000000
     8  C   -1.641367  -0.000000
     9  O   -0.580455   0.000000
    10  H   -0.219397  -0.000000
    11  H    0.116090  -0.000000
    12  H   -0.742060  -0.000000
    13  H    0.021648   0.000000
    14  H    0.029076  -0.000000
    15  H    0.032400   0.000000
 Sum of Mulliken charges =  -2.00000   0.00000

 Dipole moment (field-independent basis, Debye):
    X=             -1.0372    Y=             -1.6156    Z=             -1.0885  Tot=              2.2069
 Quadrupole moment (field-independent basis, Debye-Ang):
   XX=           -101.8267   YY=           -118.1065   ZZ=            -67.6208
   XY=            -16.2937   XZ=              4.8064   YZ=              2.1243

  Exact polarizability:1116.076 -99.358 376.817 -89.304 -66.345 170.125
 Approx polarizability:2156.822-146.601 383.601-282.545 -19.066 205.696

                      1                      2                      3
                      A                      A                      A
 Frequencies --    131.1014               165.8230               211.2260
 Red. masses --      5.9854                 1.2362                 2.3876
 Frc consts  --      0.0606                 0.0200                 0.0628
 IR Inten    --      3.0305                17.3292                16.3139

                      4                      5                      6
                      A                      A                      A
 Frequencies --    283.5358               339.5924               358.7361
 Red. masses --      3.1198                 7.0491                 9.6785
 Frc consts  --      0.1478                 0.4790                 0.7339
 IR Inten    --      1.2766                 6.0512                61.8956

                      7                      8                      9
                      A                      A                      A
 Frequencies --    436.8821               449.2270               511.6267
 Red. masses --      9.3841                 3.0595                 5.0844
 Frc consts  --      1.0553                 0.3638                 0.7841
 IR Inten    --    934.3096                22.6370                93.7368

                     10                     11                     12
                      A                      A                      A
 Frequencies --    579.5434               588.1771               717.5611
 Red. masses --      1.9835                 4.5267                 2.9236
 Frc consts  --      0.3925                 0.9227                 0.8869
 IR Inten    --     21.4050                 0.7502                13.5136

                     13                     14                     15
                      A                      A                      A
 Frequencies --    724.1651               776.2321               793.0253
 Red. masses --      5.3745                 1.7690                 4.6450
 Frc consts  --      1.6606                 0.6280                 1.7211
 IR Inten    --     29.4663                61.2118                48.4054

                     16                     17                     18
                      A                      A                      A
 Frequencies --    832.8161               848.9818               925.6668
 Red. masses --      1.8463                 1.3098                 3.0243
 Frc consts  --      0.7545                 0.5562                 1.5268
 IR Inten    --     47.9413                 9.7208                26.7937

                     19                     20                     21
                      A                      A                      A
 Frequencies --    985.2131              1052.8554              1078.8887
 Red. masses --      1.5940                 1.4862                 1.6401
 Frc consts  --      0.9116                 0.9706                 1.1248
 IR Inten    --    352.0925                28.3165               545.5734

                     22                     23                     24
                      A                      A                      A
 Frequencies --   1139.8036              1190.1365              1235.5314
 Red. masses --      1.9970                 4.2257                 1.5380
 Frc consts  --      1.5286                 3.5265                 1.3833
 IR Inten    --    116.9456               356.5934               265.7810

                     25                     26                     27
                      A                      A                      A
 Frequencies --   1306.2174              1330.8585              1378.2367
 Red. masses --      2.6145                 5.9601                 1.4485
 Frc consts  --      2.6283                 6.2196                 1.6211
 IR Inten    --    265.4417              2059.8237                17.7141

                     28                     29                     30
                      A                      A                      A
 Frequencies --   1408.0353              1456.0202              1463.3135
 Red. masses --      4.5991                 1.2730                 2.3746
 Frc consts  --      5.3722                 1.5900                 2.9958
 IR Inten    --    148.3532               364.8894               399.9593

                     31                     32                     33
                      A                      A                      A
 Frequencies --   1474.6104              1484.9495              1578.6778
 Red. masses --      2.9280                 1.3043                 4.8745
 Frc consts  --      3.7512                 1.6945                 7.1576
 IR Inten    --    294.7624               528.1193              2753.3780

                     34                     35                     36
                      A                      A                      A
 Frequencies --   2934.9283              2985.2122              3027.8121
 Red. masses --      1.0529                 1.0777                 1.1004
 Frc consts  --      5.3437                 5.6583                 5.9440
 IR Inten    --    168.9346               632.3591                17.1315

                     37                     38                     39
                      A                      A                      A
 Frequencies --   3055.9533              3072.9166              3086.2600
 Red. masses --      1.0826                 1.0869                 1.0912
 Frc consts  --      5.9570                 6.0468                 6.1240
 IR Inten    --     70.0290               172.6553               756.9069

 - Thermochemistry -
 -------------------
 Temperature   298.150 Kelvin.  Pressure   1.00000 Atm.
 Atom     1 has atomic number  6 and mass  12.00000

 Molecular mass:   122.03678 amu.
 Principal axes and moments of inertia in atomic units:
                           1         2         3
     Eigenvalues --   581.384021340.059941910.42622
           X            0.55889   0.82923  -0.00504
           Y            0.82884  -0.55842   0.03435
           Z           -0.02567   0.02337   0.99940
 This molecule is an asymmetric top.
 Rotational symmetry number  1.
 Warning -- assumption of classical behavior for rotation
           may cause significant error
 Rotational temperatures (Kelvin)      0.14898     0.06463     0.04534
 Rotational constants (GHZ):           3.10422     1.34676     0.94468
 Zero-point vibrational energy     283517.1 (Joules/Mol)
                                   67.76220 (Kcal/Mol)
 Warning -- explicit consideration of  11 degrees of freedom as
           vibrations may cause significant error
 Vibrational temperatures:    188.63   238.58   303.91   407.94   488.60
          (Kelvin)            516.14   628.58   646.34   736.12   833.83
                              846.26  1032.41  1041.91  1116.82  1140.99
                             1198.24  1221.50  1331.83  1417.50  1514.82
                             1552.28  1639.92  1712.34  1777.65  1879.36
                             1914.81  1982.98  2025.85  2094.89  2105.38
                             2121.64  2136.51  2271.37  4222.71  4295.05
                             4356.35  4396.84  4421.24  4440.44

 Zero-point correction=                           0.107986 (Hartree/Particle)
 Thermal correction to Energy=                    0.115684
 Thermal correction to Enthalpy=                  0.116629
 Thermal correction to Gibbs Free Energy=         0.075944
 Sum of electronic and zero-point Energies=           -420.746301
 Sum of electronic and thermal Energies=              -420.738602
 Sum of electronic and thermal Enthalpies=            -420.737658
 Sum of electronic and thermal Free Energies=         -420.778343

                     E (Thermal)             CV                S
                      KCal/Mol        Cal/Mol-Kelvin    Cal/Mol-Kelvin
 Total                   72.593             29.673             85.629
 Electronic               0.000              0.000              0.000
 Translational            0.889              2.981             40.312
 Rotational               0.889              2.981             28.789
 Vibrational             70.816             23.711             16.529
 Vibration     1          0.612              1.922              2.930
 Vibration     2          0.624              1.884              2.482
 Vibration     3          0.643              1.824              2.033
 Vibration     4          0.682              1.704              1.512
 Vibration     5          0.720              1.596              1.214
 Vibration     6          0.734              1.557              1.128
 Vibration     7          0.797              1.390              0.836
 Vibration     8          0.808              1.363              0.798
 Vibration     9          0.867              1.224              0.630
 Vibration    10          0.936              1.076              0.486
 Vibration    11          0.945              1.057              0.470

 Optimization completed.
    -- Stationary point found.
 Normal termination of Gaussian 16 at Sun Dec 17 21:25:11 2023.
