 Q-Chem 5.4, Q-Chem, Inc., Pleasanton, CA (2021)
 Q-Chem 5.4.0 for Intel X86 EM64T Linux

User input:
--------------------------------------------------------------
$molecule
-2 1
C                 -2.6591920000     -4.0485980000      4.0462890000
C                 -3.2385790000     -5.2262540000      3.6070490000
C                 -4.5832300000     -5.2295640000      3.1774070000
C                 -3.3854700000     -2.8405290000      4.0760510000
C                 -4.7431700000     -2.8448880000      3.6426240000
C                 -5.3144640000     -4.0547780000      3.1989350000
C                 -2.7355740000     -1.6130210000      4.5482170000
C                 -3.5537510000     -0.4179780000      4.5531260000
C                 -4.8788830000     -0.4239860000      4.1143510000
C                 -5.5455600000     -1.6192900000      3.6510660000
O                 -1.5246550000     -1.6151530000      4.9260220000
O                 -6.7556730000     -1.6124960000      3.2684100000
H                 -2.6610760000     -6.1469130000      3.5933420000
H                 -5.0419700000     -6.1523500000      2.8321250000
C                 -2.8930480000      0.8449110000      5.0516960000
H                 -1.6286030000     -4.0149210000      4.3823010000
H                 -6.3497070000     -4.0254910000      2.8769150000
H                 -2.7555530000      1.5831260000      4.2485850000
H                 -1.9078260000      0.5933780000      5.4464250000
H                 -3.4816530000      1.3314280000      5.8375470000
C                 -5.7189630000      0.8426890000      4.0888350000
C                 -6.5461650000      1.0177750000      5.3377300000
C                 -6.6582750000      2.0888490000      6.1379890000
C                 -7.5680440000      2.0512460000      7.3506280000
C                 -8.7965870000      2.9919430000      7.2481420000
C                 -9.6982150000      2.9169260000      8.4490820000
C                 -9.9744200000      3.8683840000      9.3530320000
C                 -5.9181910000      3.3902480000      5.9290460000
C                -10.9264400000      3.5935440000     10.5003580000
C                -12.2444010000      4.4064500000     10.4355930000
C                -13.1820540000      4.0934070000     11.5696010000
C                -13.6085720000      4.9028220000     12.5501490000
C                 -9.3831740000      5.2589550000      9.3263730000
C                -13.1880170000      6.3460810000     12.7026100000
C                -14.5715520000      4.3964780000     13.6053530000
C                -15.9662590000      5.0705150000     13.5658600000
C                -16.9129640000      4.5120740000     14.5932340000
C                -17.4764180000      5.1367510000     15.6377950000
C                -17.2325010000      6.5840870000     15.9961520000
C                -18.4230230000      4.3934690000     16.5586910000
C                -19.8813300000      4.9154870000     16.5250980000
C                -20.8078310000      4.1105380000     17.3950390000
C                -21.5101210000      4.5105500000     18.4654570000
C                -21.4750320000      5.9100810000     19.0333430000
C                -22.4090160000      3.5364020000     19.1994330000
C                -23.9193110000      3.8706830000     19.1042120000
C                -24.7801250000      2.8380400000     19.7795470000
C                -25.6160350000      2.9864160000     20.8177450000
C                -25.8792530000      4.2952690000     21.5237940000
C                -26.3911910000      1.7960690000     21.3478990000
C                -25.9425850000      1.3103830000     22.7498750000
C                -26.8206670000      0.2111580000     23.2811760000
C                -26.5073450000     -1.0663120000     23.5366270000
C                -25.1441750000     -1.6785400000     23.3299710000
C                -27.5449790000     -2.0270380000     24.0659080000
H                 -6.4192290000      0.7373590000      3.2509690000
H                 -5.0955110000      1.7188870000      3.8994800000
H                 -7.1266570000      0.1328060000      5.5915290000
H                 -7.0008450000      2.3305980000      8.2502220000
H                 -7.9195680000      1.0267700000      7.5081420000
H                 -9.3667530000      2.6987420000      6.3574180000
H                 -8.4629450000      4.0169510000      7.0732140000
H                -10.1722010000      1.9457220000      8.5954890000
H                 -5.1550080000      3.3124470000      5.1552670000
H                 -5.4235550000      3.7071580000      6.8565770000
H                 -6.5963380000      4.2039470000      5.6411180000
H                -10.4305750000      3.8244710000     11.4528630000
H                -11.1692060000      2.5264400000     10.5253400000
H                -12.7403550000      4.1672250000      9.4859170000
H                -12.0185240000      5.4739350000     10.4008160000
H                -13.5463520000      3.0657790000     11.5833300000
H                 -8.5842280000      5.3617700000      8.5927800000
H                 -8.9708480000      5.5160360000     10.3094630000
H                -10.1421410000      6.0162350000      9.0972180000
H                -12.3681750000      6.6217070000     12.0394320000
H                -12.8669910000      6.5414560000     13.7325580000
H                -14.0204920000      7.0299020000     12.5010950000
H                -14.1415640000      4.5626850000     14.6020580000
H                -14.6972780000      3.3145450000     13.4957540000
H                -16.3898850000      4.9108170000     12.5653740000
H                -15.8587200000      6.1504500000     13.6827220000
H                -17.1588110000      3.4587990000     14.4551890000
H                -16.4173960000      7.0334700000     15.4280880000
H                -16.9888270000      6.6764860000     17.0614100000
H                -18.1270830000      7.1949270000     15.8287410000
H                -18.0587560000      4.4667720000     17.5920460000
H                -18.4214990000      3.3292350000     16.3013180000
H                -20.2337810000      4.8650400000     15.4858560000
H                -19.9034210000      5.9705340000     16.8037510000
H                -20.9098020000      3.0659490000     17.0991540000
H                -20.6957020000      6.5321610000     18.5917480000
H                -21.3026880000      5.8773740000     20.1161660000
H                -22.4308350000      6.4264340000     18.8873060000
H                -22.1312660000      3.5124430000     20.2615300000
H                -22.2455970000      2.5260470000     18.8101220000
H                -24.1865950000      3.9218750000     18.0403160000
H                -24.1029980000      4.8643990000     19.5161130000
H                -24.6930400000      1.8362110000     19.3577010000
H                -25.3242750000      5.1328380000     21.0999330000
H                -25.6204950000      4.2344410000     22.5869010000
H                -26.9473630000      4.5437460000     21.4794160000
H                -26.3062610000      0.9591340000     20.6481380000
H                -27.4579320000      2.0542300000     21.3971750000
H                -25.9823780000      2.1542160000     23.4502450000
H                -24.8955760000      1.0040750000     22.6984370000
H                -27.8510180000      0.5131770000     23.4709080000
H                -24.4103090000     -0.9777640000     22.9309250000
H                -25.2083830000     -2.5296410000     22.6397120000
H                -24.7537910000     -2.0760020000     24.2755180000
H                -28.5155560000     -1.5439590000     24.2071130000
H                -27.2334550000     -2.4529050000     25.0281550000
H                -27.6816690000     -2.8745250000     23.3811060000
$end
$rem
MAX_SCF_CYCLES=200
BASIS  =  6-311++G(d,p)
GUI  =  2
JOB_TYPE  =  SP
METHOD  =  B3LYP
SCF_CONVERGENCE = 8
SCF_ALGORITHM = RCA_DIIS
scf_guess = GWH
THRESH = 14
SOLVENT_METHOD = PCM
$end
$pcm
theory = CPCM
$end
$solvent
dielectric 37.219
opticaldielectric 1.43
$end

--------------------------------------------------------------

             Standard Nuclear Orientation (Angstroms)
    I     Atom           X                Y                Z
 ----------------------------------------------------------------
    1      C      -2.6591920000    -4.0485980000     4.0462890000
    2      C      -3.2385790000    -5.2262540000     3.6070490000
    3      C      -4.5832300000    -5.2295640000     3.1774070000
    4      C      -3.3854700000    -2.8405290000     4.0760510000
    5      C      -4.7431700000    -2.8448880000     3.6426240000
    6      C      -5.3144640000    -4.0547780000     3.1989350000
    7      C      -2.7355740000    -1.6130210000     4.5482170000
    8      C      -3.5537510000    -0.4179780000     4.5531260000
    9      C      -4.8788830000    -0.4239860000     4.1143510000
   10      C      -5.5455600000    -1.6192900000     3.6510660000
   11      O      -1.5246550000    -1.6151530000     4.9260220000
   12      O      -6.7556730000    -1.6124960000     3.2684100000
   13      H      -2.6610760000    -6.1469130000     3.5933420000
   14      H      -5.0419700000    -6.1523500000     2.8321250000
   15      C      -2.8930480000     0.8449110000     5.0516960000
   16      H      -1.6286030000    -4.0149210000     4.3823010000
   17      H      -6.3497070000    -4.0254910000     2.8769150000
   18      H      -2.7555530000     1.5831260000     4.2485850000
   19      H      -1.9078260000     0.5933780000     5.4464250000
   20      H      -3.4816530000     1.3314280000     5.8375470000
   21      C      -5.7189630000     0.8426890000     4.0888350000
   22      C      -6.5461650000     1.0177750000     5.3377300000
   23      C      -6.6582750000     2.0888490000     6.1379890000
   24      C      -7.5680440000     2.0512460000     7.3506280000
   25      C      -8.7965870000     2.9919430000     7.2481420000
   26      C      -9.6982150000     2.9169260000     8.4490820000
   27      C      -9.9744200000     3.8683840000     9.3530320000
   28      C      -5.9181910000     3.3902480000     5.9290460000
   29      C     -10.9264400000     3.5935440000    10.5003580000
   30      C     -12.2444010000     4.4064500000    10.4355930000
   31      C     -13.1820540000     4.0934070000    11.5696010000
   32      C     -13.6085720000     4.9028220000    12.5501490000
   33      C      -9.3831740000     5.2589550000     9.3263730000
   34      C     -13.1880170000     6.3460810000    12.7026100000
   35      C     -14.5715520000     4.3964780000    13.6053530000
   36      C     -15.9662590000     5.0705150000    13.5658600000
   37      C     -16.9129640000     4.5120740000    14.5932340000
   38      C     -17.4764180000     5.1367510000    15.6377950000
   39      C     -17.2325010000     6.5840870000    15.9961520000
   40      C     -18.4230230000     4.3934690000    16.5586910000
   41      C     -19.8813300000     4.9154870000    16.5250980000
   42      C     -20.8078310000     4.1105380000    17.3950390000
   43      C     -21.5101210000     4.5105500000    18.4654570000
   44      C     -21.4750320000     5.9100810000    19.0333430000
   45      C     -22.4090160000     3.5364020000    19.1994330000
   46      C     -23.9193110000     3.8706830000    19.1042120000
   47      C     -24.7801250000     2.8380400000    19.7795470000
   48      C     -25.6160350000     2.9864160000    20.8177450000
   49      C     -25.8792530000     4.2952690000    21.5237940000
   50      C     -26.3911910000     1.7960690000    21.3478990000
   51      C     -25.9425850000     1.3103830000    22.7498750000
   52      C     -26.8206670000     0.2111580000    23.2811760000
   53      C     -26.5073450000    -1.0663120000    23.5366270000
   54      C     -25.1441750000    -1.6785400000    23.3299710000
   55      C     -27.5449790000    -2.0270380000    24.0659080000
   56      H      -6.4192290000     0.7373590000     3.2509690000
   57      H      -5.0955110000     1.7188870000     3.8994800000
   58      H      -7.1266570000     0.1328060000     5.5915290000
   59      H      -7.0008450000     2.3305980000     8.2502220000
   60      H      -7.9195680000     1.0267700000     7.5081420000
   61      H      -9.3667530000     2.6987420000     6.3574180000
   62      H      -8.4629450000     4.0169510000     7.0732140000
   63      H     -10.1722010000     1.9457220000     8.5954890000
   64      H      -5.1550080000     3.3124470000     5.1552670000
   65      H      -5.4235550000     3.7071580000     6.8565770000
   66      H      -6.5963380000     4.2039470000     5.6411180000
   67      H     -10.4305750000     3.8244710000    11.4528630000
   68      H     -11.1692060000     2.5264400000    10.5253400000
   69      H     -12.7403550000     4.1672250000     9.4859170000
   70      H     -12.0185240000     5.4739350000    10.4008160000
   71      H     -13.5463520000     3.0657790000    11.5833300000
   72      H      -8.5842280000     5.3617700000     8.5927800000
   73      H      -8.9708480000     5.5160360000    10.3094630000
   74      H     -10.1421410000     6.0162350000     9.0972180000
   75      H     -12.3681750000     6.6217070000    12.0394320000
   76      H     -12.8669910000     6.5414560000    13.7325580000
   77      H     -14.0204920000     7.0299020000    12.5010950000
   78      H     -14.1415640000     4.5626850000    14.6020580000
   79      H     -14.6972780000     3.3145450000    13.4957540000
   80      H     -16.3898850000     4.9108170000    12.5653740000
   81      H     -15.8587200000     6.1504500000    13.6827220000
   82      H     -17.1588110000     3.4587990000    14.4551890000
   83      H     -16.4173960000     7.0334700000    15.4280880000
   84      H     -16.9888270000     6.6764860000    17.0614100000
   85      H     -18.1270830000     7.1949270000    15.8287410000
   86      H     -18.0587560000     4.4667720000    17.5920460000
   87      H     -18.4214990000     3.3292350000    16.3013180000
   88      H     -20.2337810000     4.8650400000    15.4858560000
   89      H     -19.9034210000     5.9705340000    16.8037510000
   90      H     -20.9098020000     3.0659490000    17.0991540000
   91      H     -20.6957020000     6.5321610000    18.5917480000
   92      H     -21.3026880000     5.8773740000    20.1161660000
   93      H     -22.4308350000     6.4264340000    18.8873060000
   94      H     -22.1312660000     3.5124430000    20.2615300000
   95      H     -22.2455970000     2.5260470000    18.8101220000
   96      H     -24.1865950000     3.9218750000    18.0403160000
   97      H     -24.1029980000     4.8643990000    19.5161130000
   98      H     -24.6930400000     1.8362110000    19.3577010000
   99      H     -25.3242750000     5.1328380000    21.0999330000
  100      H     -25.6204950000     4.2344410000    22.5869010000
  101      H     -26.9473630000     4.5437460000    21.4794160000
  102      H     -26.3062610000     0.9591340000    20.6481380000
  103      H     -27.4579320000     2.0542300000    21.3971750000
  104      H     -25.9823780000     2.1542160000    23.4502450000
  105      H     -24.8955760000     1.0040750000    22.6984370000
  106      H     -27.8510180000     0.5131770000    23.4709080000
  107      H     -24.4103090000    -0.9777640000    22.9309250000
  108      H     -25.2083830000    -2.5296410000    22.6397120000
  109      H     -24.7537910000    -2.0760020000    24.2755180000
  110      H     -28.5155560000    -1.5439590000    24.2071130000
  111      H     -27.2334550000    -2.4529050000    25.0281550000
  112      H     -27.6816690000    -2.8745250000    23.3811060000
 ----------------------------------------------------------------

   90   -1942.5850398803      8.20E-09 Convergence criterion met
 Total energy in the final basis set = -1942.58503988

                    Orbital Energies (a.u.)
 --------------------------------------------------------------

 Alpha MOs
 -- Occupied --
-19.0137 -19.0124 -10.1734 -10.1719 -10.1716 -10.1714 -10.1708 -10.1693
-10.1634 -10.1633 -10.1631 -10.1630 -10.1630 -10.1626 -10.1626 -10.1625
-10.1623 -10.1623 -10.1618 -10.1614 -10.1591 -10.1589 -10.1572 -10.1571
-10.1571 -10.1569 -10.1569 -10.1568 -10.1567 -10.1565 -10.1564 -10.1563
-10.1560 -10.1556 -10.1545 -10.1544 -10.1500 -10.1461 -10.1448 -10.1443
-10.1422 -10.1420 -10.1402 -10.1307 -10.1290 -10.1286 -10.1203 -10.1193
 -0.9419  -0.9389  -0.8277  -0.8248  -0.8231  -0.8207  -0.8155  -0.8095
 -0.8034  -0.7998  -0.7773  -0.7701  -0.7601  -0.7489  -0.7379  -0.7282
 -0.7218  -0.7187  -0.7173  -0.7059  -0.6875  -0.6835  -0.6825  -0.6809
 -0.6779  -0.6731  -0.6668  -0.6609  -0.6421  -0.6325  -0.6204  -0.6126
 -0.6046  -0.5936  -0.5844  -0.5783  -0.5671  -0.5490  -0.5212  -0.5189
 -0.5176  -0.5159  -0.5132  -0.5097  -0.5055  -0.4992  -0.4791  -0.4768
 -0.4722  -0.4683  -0.4654  -0.4651  -0.4630  -0.4602  -0.4490  -0.4459
 -0.4410  -0.4385  -0.4353  -0.4311  -0.4290  -0.4279  -0.4274  -0.4258
 -0.4152  -0.4129  -0.4108  -0.4088  -0.4075  -0.4061  -0.4038  -0.3997
 -0.3984  -0.3978  -0.3934  -0.3907  -0.3869  -0.3848  -0.3825  -0.3804
 -0.3799  -0.3700  -0.3695  -0.3692  -0.3688  -0.3683  -0.3678  -0.3666
 -0.3657  -0.3635  -0.3624  -0.3618  -0.3611  -0.3609  -0.3600  -0.3588
 -0.3555  -0.3548  -0.3471  -0.3450  -0.3425  -0.3387  -0.3344  -0.3316
 -0.3310  -0.3283  -0.3259  -0.3244  -0.3237  -0.3219  -0.3184  -0.3156
 -0.3131  -0.3102  -0.3071  -0.3040  -0.3001  -0.2999  -0.2471  -0.2439
 -0.2389  -0.2334  -0.2287  -0.2273  -0.2261  -0.2238  -0.2204  -0.2013
 -0.1985  -0.1869  -0.0999

          Ground-State Mulliken Net Atomic Charges

     Atom                 Charge (a.u.)
  ----------------------------------------
      1 C                     0.031217
      2 C                    -0.539776
      3 C                    -0.471347
      4 C                    -0.116203
      5 C                     0.185954
      6 C                    -0.066682
      7 C                    -0.600729
      8 C                     0.539099
      9 C                     0.670987
     10 C                    -0.755749
     11 O                    -0.704262
     12 O                    -0.681553
     13 H                     0.162754
     14 H                     0.166677
     15 C                    -0.503009
     16 H                     0.144436
     17 H                     0.142547
     18 H                     0.153957
     19 H                     0.155835
     20 H                     0.149789
     21 C                     0.058883
     22 C                    -0.759875
     23 C                     1.002729
     24 C                    -1.021695
     25 C                    -0.321152
     26 C                    -0.250817
     27 C                     0.903059
     28 C                    -0.810794
     29 C                    -0.856132
     30 C                    -0.385244
     31 C                    -0.268009
     32 C                     0.933264
     33 C                    -0.789421
     34 C                    -0.780781
     35 C                    -0.835189
     36 C                    -0.416114
     37 C                    -0.221126
     38 C                     0.931480
     39 C                    -0.785614
     40 C                    -0.846267
     41 C                    -0.407053
     42 C                    -0.252308
     43 C                     0.847497
     44 C                    -0.791588
     45 C                    -0.723039
     46 C                    -0.276402
     47 C                    -0.266865
     48 C                     0.559989
     49 C                    -0.792762
     50 C                    -0.549289
     51 C                    -0.291774
     52 C                     0.049673
     53 C                     0.272686
     54 C                    -0.710346
     55 C                    -0.644429
     56 H                     0.173683
     57 H                     0.180131
     58 H                     0.223340
     59 H                     0.179488
     60 H                     0.132236
     61 H                     0.178193
     62 H                     0.154264
     63 H                     0.195207
     64 H                     0.109414
     65 H                     0.164557
     66 H                     0.171863
     67 H                     0.182511
     68 H                     0.156182
     69 H                     0.183957
     70 H                     0.146958
     71 H                     0.193364
     72 H                     0.131094
     73 H                     0.163529
     74 H                     0.176907
     75 H                     0.136885
     76 H                     0.163747
     77 H                     0.176941
     78 H                     0.184599
     79 H                     0.154439
     80 H                     0.184330
     81 H                     0.147607
     82 H                     0.195091
     83 H                     0.137121
     84 H                     0.164161
     85 H                     0.177110
     86 H                     0.184648
     87 H                     0.152958
     88 H                     0.185089
     89 H                     0.149856
     90 H                     0.196269
     91 H                     0.136964
     92 H                     0.163887
     93 H                     0.177144
     94 H                     0.179781
     95 H                     0.147794
     96 H                     0.172210
     97 H                     0.154395
     98 H                     0.191719
     99 H                     0.130332
    100 H                     0.177675
    101 H                     0.168976
    102 H                     0.181754
    103 H                     0.140286
    104 H                     0.134042
    105 H                     0.162572
    106 H                     0.203894
    107 H                     0.144562
    108 H                     0.154307
    109 H                     0.152081
    110 H                     0.158578
    111 H                     0.152629
    112 H                     0.157568
  ----------------------------------------
  Sum of atomic charges =    -2.000000

                    Cartesian Multipole Moments
 -----------------------------------------------------------------
    Charge (ESU x 10^10)
                -9.6064
    Dipole Moment (Debye)
         X      40.0279      Y      19.3443      Z     -38.5001
       Tot      58.8107
    Quadrupole Moments (Debye-Ang)
        XX    -533.3513     XY     -91.5044     YY    -331.4905
        XZ     127.7710     YZ      94.6334     ZZ    -450.5877

 Total job time:  16671.76s(wall), 96688.65s(cpu)
        *  Thank you very much for using Q-Chem.  Have a nice day.  *
