 Q-Chem 5.4, Q-Chem, Inc., Pleasanton, CA (2021)
 Q-Chem 5.4.0 for Intel X86 EM64T Linux

User input:
--------------------------------------------------------------
$molecule
-1 2
C                  4.6963750000     -0.7094830000      0.8810070000
O                  4.2676990000      0.3488650000      0.0452660000
C                  2.9082210000      0.4962920000     -0.1489750000
C                  2.5367500000      1.5693780000     -0.9931010000
C                  1.2046010000      1.8008940000     -1.2503080000
C                  0.1894090000      0.9920280000     -0.6916180000
C                 -1.2115180000      1.2818170000     -0.9977950000
O                 -1.5479130000      2.2321900000     -1.7460930000
C                 -2.1997500000      0.3943960000     -0.3772870000
C                 -3.5722250000      0.6109550000     -0.6256540000
C                 -4.5395310000     -0.1986730000     -0.0634810000
C                 -4.1579660000     -1.2674000000      0.7782260000
C                 -2.8220150000     -1.4992110000      1.0361160000
C                 -1.8136670000     -0.6844490000      0.4724510000
C                 -0.4121210000     -0.9696160000      0.7751530000
O                 -0.0683420000     -1.9219880000      1.5255580000
C                  0.5715610000     -0.0838200000      0.1554400000
C                  1.9453620000     -0.3138820000      0.4139640000
H                  4.3884470000     -1.6853120000      0.4869250000
H                  4.3043180000     -0.6038480000      1.8995880000
H                  5.7856520000     -0.6548260000      0.9040970000
H                  3.3163330000      2.1897230000     -1.4214400000
H                  0.8941790000      2.6163260000     -1.8935630000
H                 -3.8342990000      1.4383660000     -1.2753030000
H                 -5.5906360000     -0.0158420000     -0.2666930000
H                 -4.9169650000     -1.9056120000      1.2215960000
H                 -2.5020970000     -2.3119770000      1.6781050000
H                  2.1801380000     -1.1452910000      1.0648960000
$end

$rem
BASIS  =  6-311++G(d,p)
GUI  =  2
JOB_TYPE  =  SP
METHOD  =  B3LYP
SCF_CONVERGENCE  = 8
SOLVENT_METHOD = sm12
$end

$smx
solvent dimethylformamide
charges CM5
$end

--------------------------------------------------------------

             Standard Nuclear Orientation (Angstroms)
    I     Atom           X                Y                Z
 ----------------------------------------------------------------
    1      C       4.6963750000    -0.7094830000     0.8810070000
    2      O       4.2676990000     0.3488650000     0.0452660000
    3      C       2.9082210000     0.4962920000    -0.1489750000
    4      C       2.5367500000     1.5693780000    -0.9931010000
    5      C       1.2046010000     1.8008940000    -1.2503080000
    6      C       0.1894090000     0.9920280000    -0.6916180000
    7      C      -1.2115180000     1.2818170000    -0.9977950000
    8      O      -1.5479130000     2.2321900000    -1.7460930000
    9      C      -2.1997500000     0.3943960000    -0.3772870000
   10      C      -3.5722250000     0.6109550000    -0.6256540000
   11      C      -4.5395310000    -0.1986730000    -0.0634810000
   12      C      -4.1579660000    -1.2674000000     0.7782260000
   13      C      -2.8220150000    -1.4992110000     1.0361160000
   14      C      -1.8136670000    -0.6844490000     0.4724510000
   15      C      -0.4121210000    -0.9696160000     0.7751530000
   16      O      -0.0683420000    -1.9219880000     1.5255580000
   17      C       0.5715610000    -0.0838200000     0.1554400000
   18      C       1.9453620000    -0.3138820000     0.4139640000
   19      H       4.3884470000    -1.6853120000     0.4869250000
   20      H       4.3043180000    -0.6038480000     1.8995880000
   21      H       5.7856520000    -0.6548260000     0.9040970000
   22      H       3.3163330000     2.1897230000    -1.4214400000
   23      H       0.8941790000     2.6163260000    -1.8935630000
   24      H      -3.8342990000     1.4383660000    -1.2753030000
   25      H      -5.5906360000    -0.0158420000    -0.2666930000
   26      H      -4.9169650000    -1.9056120000     1.2215960000
   27      H      -2.5020970000    -2.3119770000     1.6781050000
   28      H       2.1801380000    -1.1452910000     1.0648960000
 ----------------------------------------------------------------

   17    -803.5719780342      7.95e-09  Convergence criterion met
 Total energy in the final basis set =     -803.6612077567

                    Orbital Energies (a.u.)
 --------------------------------------------------------------

 Alpha MOs
 -- Occupied --
-19.1577 -19.0778 -19.0764 -10.2398 -10.2282 -10.2239 -10.2175 -10.1827
-10.1818 -10.1815 -10.1813 -10.1797 -10.1796 -10.1793 -10.1788 -10.1785
-10.1750 -10.1728  -1.0692  -1.0042  -1.0003  -0.8669  -0.8581  -0.7927
 -0.7595  -0.7575  -0.7519  -0.7030  -0.6719  -0.6390  -0.6196  -0.5957
 -0.5657  -0.5441  -0.5397  -0.4982  -0.4883  -0.4738  -0.4677  -0.4657
 -0.4419  -0.4354  -0.4311  -0.4262  -0.4194  -0.4119  -0.4032  -0.3969
 -0.3814  -0.3800  -0.3617  -0.3610  -0.3545  -0.3441  -0.3355  -0.3154
 -0.2701  -0.2655  -0.2616  -0.2471  -0.2384  -0.2356  -0.1448

 Beta MOs
 -- Occupied --
-19.1576 -19.0724 -19.0701 -10.2395 -10.2269 -10.2222 -10.2175 -10.1823
-10.1814 -10.1812 -10.1806 -10.1794 -10.1792 -10.1789 -10.1784 -10.1779
-10.1745 -10.1725  -1.0690  -0.9947  -0.9894  -0.8642  -0.8570  -0.7890
 -0.7571  -0.7560  -0.7504  -0.7020  -0.6646  -0.6376  -0.6173  -0.5952
 -0.5635  -0.5426  -0.5382  -0.4966  -0.4872  -0.4715  -0.4670  -0.4644
 -0.4414  -0.4345  -0.4304  -0.4171  -0.4142  -0.4079  -0.4008  -0.3943
 -0.3774  -0.3611  -0.3598  -0.3582  -0.3468  -0.3428  -0.3345  -0.3076
 -0.2622  -0.2527  -0.2497  -0.2417  -0.2330  -0.2289

          Ground-State Mulliken Net Atomic Charges

     Atom                 Charge (a.u.)    Spin (a.u.)
  --------------------------------------------------------
      1 C                     0.160829      -0.000478
      2 O                    -0.106849       0.002982
      3 C                     1.214457       0.010538
      4 C                     1.037714       0.026971
      5 C                     0.170575       0.015511
      6 C                    -1.303698       0.025574
      7 C                    -2.638344       0.058783
      8 O                    -0.298114       0.202489
      9 C                    -1.219660       0.050955
     10 C                    -0.058739       0.013433
     11 C                     1.006585       0.055972
     12 C                     0.920149       0.027554
     13 C                    -0.076180       0.037507
     14 C                    -0.417493       0.029662
     15 C                    -1.931059       0.097653
     16 O                    -0.296790       0.237309
     17 C                     0.216156       0.068684
     18 C                     0.282715       0.054322
     19 H                     0.178222       0.000490
     20 H                     0.178066       0.000502
     21 H                     0.354173      -0.000122
     22 H                     0.338602      -0.002685
     23 H                     0.169386      -0.000783
     24 H                     0.157136      -0.000723
     25 H                     0.356699      -0.004072
     26 H                     0.359967      -0.002490
     27 H                     0.152709      -0.002479
     28 H                     0.092788      -0.003058
  --------------------------------------------------------
  Sum of atomic charges =    -1.000000

                    Cartesian Multipole Moments
 -----------------------------------------------------------------
    Charge (ESU x 10^10)
                -4.8032
    Dipole Moment (Debye)
         X       4.6677      Y      -1.7151      Z       1.3198
       Tot       5.1450
    Quadrupole Moments (Debye-Ang)
        XX    -113.8017     XY       1.0306     YY    -126.7441
        XZ      -0.6352     YZ      11.3530     ZZ    -120.5625

 Total job time:  749.41s(wall), 5569.16s(cpu)
        *  Thank you very much for using Q-Chem.  Have a nice day.  *
