 Gaussian 16, Revision A.03,
 Gaussian 16:  ES64L-G16RevA.03 25-Dec-2016

 ----------------------------------------------------------------
 #P UB3LYP/6-311++G(d,p) SCRF=(PCM,Solvent=n,n-DiMethylFormamide)
 ----------------------------------------------------------------

 -------
 Reduced
 -------
 Symbolic Z-matrix:
 Charge = -2 Multiplicity = 1

                         Standard orientation:
 ---------------------------------------------------------------------
 Center     Atomic      Atomic             Coordinates (Angstroms)
 Number     Number       Type             X           Y           Z
 ---------------------------------------------------------------------
      1          8           0        5.055515   -0.590110    0.000312
      2          6           0        3.725096   -0.133567   -0.000882
      3          6           0        3.525637    1.268361    0.001339
      4          6           0        2.231208    1.752042    0.002348
      5          6           0        1.096871    0.906628    0.005010
      6          6           0       -0.231034    1.498587    0.000497
      7          8           0       -0.417517    2.765655   -0.004918
      8          6           0       -1.317833    0.541823   -0.000271
      9          6           0       -2.658728    1.016206    0.008917
     10          6           0       -3.724991    0.153223   -0.014758
     11          8           0       -5.028172    0.661976   -0.037029
     12          6           0       -3.512257   -1.250953   -0.013452
     13          6           0       -2.220695   -1.737319    0.011834
     14          6           0       -1.089429   -0.887350    0.000121
     15          6           0        0.236057   -1.477689   -0.002889
     16          8           0        0.437292   -2.746777   -0.004391
     17          6           0        1.317643   -0.522121    0.002685
     18          6           0        2.659270   -0.995701   -0.000563
     19          1           0        5.007739   -1.551351    0.005280
     20          1           0        4.385350    1.932074    0.001686
     21          1           0        2.036448    2.820021    0.002435
     22          1           0       -2.812866    2.089175    0.030667
     23          1           0       -5.616124   -0.000373    0.356917
     24          1           0       -4.365092   -1.926989   -0.044563
     25          1           0       -2.026436   -2.805105    0.017876
     26          1           0        2.793152   -2.076416   -0.001710
 ---------------------------------------------------------------------

 SCF Done:  E(UB3LYP) =  -839.688234055     A.U. after   18 cycles

 The electronic state is 1-A.
 Alpha  occ. eigenvalues --  -19.13900 -19.13787 -19.01813 -19.01732 -10.20953
 Alpha  occ. eigenvalues --  -10.20760 -10.17146 -10.16987 -10.15249 -10.15108
 Alpha  occ. eigenvalues --  -10.15071 -10.15048 -10.14265 -10.14117 -10.13544
 Alpha  occ. eigenvalues --  -10.13532 -10.13406 -10.13371  -1.03955  -1.03832
 Alpha  occ. eigenvalues --   -0.93896  -0.93482  -0.82702  -0.82049  -0.74938
 Alpha  occ. eigenvalues --   -0.72636  -0.72364  -0.70393  -0.63610  -0.62027
 Alpha  occ. eigenvalues --   -0.59447  -0.57271  -0.54457  -0.52671  -0.51062
 Alpha  occ. eigenvalues --   -0.49545  -0.46362  -0.44165  -0.43984  -0.41638
 Alpha  occ. eigenvalues --   -0.40941  -0.40319  -0.40098  -0.39400  -0.38360
 Alpha  occ. eigenvalues --   -0.37869  -0.36639  -0.36414  -0.35799  -0.34985
 Alpha  occ. eigenvalues --   -0.32581  -0.32484  -0.32356  -0.31078  -0.30146
 Alpha  occ. eigenvalues --   -0.28298  -0.23260  -0.22482  -0.21444  -0.20112
 Alpha  occ. eigenvalues --   -0.20096  -0.19375  -0.10083
 Alpha virt. eigenvalues --   -0.02678  -0.00174   0.00269   0.01239   0.01358
 Alpha virt. eigenvalues --    0.01839   0.01977   0.02498   0.04045   0.04619
 Alpha virt. eigenvalues --    0.05004   0.05177   0.05855   0.06555   0.06802

  Beta  occ. eigenvalues --  -19.13900 -19.13787 -19.01813 -19.01732 -10.20953
  Beta  occ. eigenvalues --  -10.20760 -10.17146 -10.16987 -10.15249 -10.15108
  Beta  occ. eigenvalues --  -10.15071 -10.15048 -10.14265 -10.14117 -10.13544
  Beta  occ. eigenvalues --  -10.13532 -10.13406 -10.13371  -1.03955  -1.03832
  Beta  occ. eigenvalues --   -0.93896  -0.93482  -0.82702  -0.82049  -0.74938
  Beta  occ. eigenvalues --   -0.72636  -0.72364  -0.70393  -0.63610  -0.62027
  Beta  occ. eigenvalues --   -0.59447  -0.57271  -0.54457  -0.52671  -0.51062
  Beta  occ. eigenvalues --   -0.49545  -0.46362  -0.44165  -0.43984  -0.41638
  Beta  occ. eigenvalues --   -0.40941  -0.40319  -0.40098  -0.39400  -0.38360
  Beta  occ. eigenvalues --   -0.37869  -0.36639  -0.36414  -0.35799  -0.34985
  Beta  occ. eigenvalues --   -0.32581  -0.32484  -0.32356  -0.31078  -0.30146
  Beta  occ. eigenvalues --   -0.28298  -0.23260  -0.22482  -0.21444  -0.20112
  Beta  occ. eigenvalues --   -0.20096  -0.19375  -0.10083
  Beta virt. eigenvalues --   -0.02678  -0.00174   0.00269   0.01239   0.01358
  Beta virt. eigenvalues --    0.01839   0.01977   0.02498   0.04045   0.04619
  Beta virt. eigenvalues --    0.05004   0.05177   0.05855   0.06555   0.06802

 Mulliken charges and spin densities:
               1          2
     1  O   -0.328759  -0.000000
     2  C   -0.642504  -0.000000
     3  C   -0.236329   0.000000
     4  C    0.038427   0.000000
     5  C    0.180593  -0.000000
     6  C   -0.552148  -0.000000
     7  O   -0.653998   0.000000
     8  C    0.395998   0.000000
     9  C   -0.218232   0.000000
    10  C   -0.628844  -0.000000
    11  O   -0.335290  -0.000000
    12  C    0.007913   0.000000
    13  C   -0.119372   0.000000
    14  C    0.167875  -0.000000
    15  C   -0.436486   0.000000
    16  O   -0.666309  -0.000000
    17  C    0.436285  -0.000000
    18  C    0.065846  -0.000000
    19  H    0.293028   0.000000
    20  H    0.184585   0.000000
    21  H    0.151097   0.000000
    22  H    0.159691   0.000000
    23  H    0.286614   0.000000
    24  H    0.173583  -0.000000
    25  H    0.148580  -0.000000
    26  H    0.128156  -0.000000
 Sum of Mulliken charges =  -2.00000   0.00000

 Dipole moment (field-independent basis, Debye):
    X=             -1.2101    Y=             -3.0981    Z=              0.7949  Tot=              3.4197
 Quadrupole moment (field-independent basis, Debye-Ang):
   XX=           -141.0552   YY=           -161.4749   ZZ=           -115.9178
   XY=              9.9989   XZ=             -4.4104   YZ=              0.0164

 Normal termination of Gaussian 16 at Tue Jan 16 06:17:44 2024.
