 Q-Chem 5.4, Q-Chem, Inc., Pleasanton, CA (2021)
 Q-Chem 5.4.0 for Intel X86 EM64T Linux

User input:
--------------------------------------------------------------
$molecule
-2 1
O                  5.0749340000     -0.2739330000     -0.4306260000
C                  3.7328030000      0.1079810000     -0.2537830000
C                  3.4832510000      1.4745540000      0.0207910000
C                  2.1761600000      1.8845290000      0.2022550000
C                  1.0770560000      0.9967920000      0.1291410000
C                 -0.2677590000      1.5124390000      0.3275050000
O                 -0.5000760000      2.7485850000      0.5688280000
C                 -1.3157210000      0.5183380000      0.2271560000
C                 -2.6681220000      0.9153690000      0.4182040000
C                 -3.7008370000      0.0185570000      0.3112290000
O                 -5.0193880000      0.4569320000      0.4751080000
C                 -3.4377010000     -1.3501980000      0.0387620000
C                 -2.1313030000     -1.7677130000     -0.1172160000
C                 -1.0361350000     -0.8740180000     -0.0519190000
C                  0.3056200000     -1.3868330000     -0.2571890000
O                  0.5521640000     -2.6229720000     -0.5067060000
C                  1.3488090000     -0.3950380000     -0.1519810000
C                  2.7023770000     -0.7923190000     -0.3371100000
H                  5.0627080000     -1.2213630000     -0.5995030000
H                  4.3156100000      2.1695070000      0.0827550000
H                  1.9432740000      2.9237190000      0.4128710000
H                 -2.8590180000      1.9575770000      0.6481100000
H                 -5.5500820000     -0.2944200000      0.7807580000
H                 -4.2651760000     -2.0513410000     -0.0561170000
H                 -1.8984410000     -2.8078480000     -0.3217530000
H                  2.8749940000     -1.8468800000     -0.5468160000
$end
$rem
MAX_SCF_CYCLES=200
BASIS  =  6-311++G(d,p)
GUI  =  2
JOB_TYPE  =  SP
METHOD  =  B3LYP
SOLVENT_METHOD = PCM
$end
$pcm
theory = CPCM
$end
$solvent
dielectric 37.219
opticaldielectric 1.43
$end

--------------------------------------------------------------

             Standard Nuclear Orientation (Angstroms)
    I     Atom           X                Y                Z
 ----------------------------------------------------------------
    1      O       5.0749340000    -0.2739330000    -0.4306260000
    2      C       3.7328030000     0.1079810000    -0.2537830000
    3      C       3.4832510000     1.4745540000     0.0207910000
    4      C       2.1761600000     1.8845290000     0.2022550000
    5      C       1.0770560000     0.9967920000     0.1291410000
    6      C      -0.2677590000     1.5124390000     0.3275050000
    7      O      -0.5000760000     2.7485850000     0.5688280000
    8      C      -1.3157210000     0.5183380000     0.2271560000
    9      C      -2.6681220000     0.9153690000     0.4182040000
   10      C      -3.7008370000     0.0185570000     0.3112290000
   11      O      -5.0193880000     0.4569320000     0.4751080000
   12      C      -3.4377010000    -1.3501980000     0.0387620000
   13      C      -2.1313030000    -1.7677130000    -0.1172160000
   14      C      -1.0361350000    -0.8740180000    -0.0519190000
   15      C       0.3056200000    -1.3868330000    -0.2571890000
   16      O       0.5521640000    -2.6229720000    -0.5067060000
   17      C       1.3488090000    -0.3950380000    -0.1519810000
   18      C       2.7023770000    -0.7923190000    -0.3371100000
   19      H       5.0627080000    -1.2213630000    -0.5995030000
   20      H       4.3156100000     2.1695070000     0.0827550000
   21      H       1.9432740000     2.9237190000     0.4128710000
   22      H      -2.8590180000     1.9575770000     0.6481100000
   23      H      -5.5500820000    -0.2944200000     0.7807580000
   24      H      -4.2651760000    -2.0513410000    -0.0561170000
   25      H      -1.8984410000    -2.8078480000    -0.3217530000
   26      H       2.8749940000    -1.8468800000    -0.5468160000
 ----------------------------------------------------------------

    9    -839.6991525819      7.89e-06  Convergence criterion met
 Total energy in the final basis set =     -839.6991525819

                    Orbital Energies (a.u.)
 --------------------------------------------------------------

 Alpha MOs
 -- Occupied --
-19.1381 -19.1369 -19.0232 -19.0227 -10.2108 -10.2091 -10.1751 -10.1737
-10.1531 -10.1525 -10.1521 -10.1517 -10.1438 -10.1428 -10.1384 -10.1382
-10.1369 -10.1365  -1.0386  -1.0373  -0.9442  -0.9403  -0.8293  -0.8222
 -0.7515  -0.7283  -0.7254  -0.7056  -0.6386  -0.6215  -0.5956  -0.5740
 -0.5451  -0.5281  -0.5120  -0.4962  -0.4652  -0.4434  -0.4414  -0.4177
 -0.4110  -0.4044  -0.4025  -0.3953  -0.3857  -0.3809  -0.3690  -0.3664
 -0.3622  -0.3512  -0.3296  -0.3278  -0.3254  -0.3125  -0.3043  -0.2855
 -0.2351  -0.2274  -0.2176  -0.2069  -0.2030  -0.1993  -0.1048

          Ground-State Mulliken Net Atomic Charges

     Atom                 Charge (a.u.)
  ----------------------------------------
      1 O                    -0.344318
      2 C                    -0.673939
      3 C                    -0.256429
      4 C                     0.024314
      5 C                     0.160787
      6 C                    -0.462961
      7 O                    -0.682447
      8 C                     0.374070
      9 C                    -0.235059
     10 C                    -0.645252
     11 O                    -0.351764
     12 C                     0.008854
     13 C                    -0.120970
     14 C                     0.140526
     15 C                    -0.352245
     16 O                    -0.694777
     17 C                     0.429436
     18 C                     0.069345
     19 H                     0.311364
     20 H                     0.201480
     21 H                     0.151564
     22 H                     0.161365
     23 H                     0.305176
     24 H                     0.196288
     25 H                     0.149218
     26 H                     0.136373
  ----------------------------------------
  Sum of atomic charges =    -2.000000

                    Cartesian Multipole Moments
 -----------------------------------------------------------------
    Charge (ESU x 10^10)
                -9.6064
    Dipole Moment (Debye)
         X      -1.2735      Y      -3.9492      Z      -0.0242
       Tot       4.1495
    Quadrupole Moments (Debye-Ang)
        XX    -138.8880     XY      11.5658     YY    -159.4548
        XZ      -0.7238     YZ      -9.2630     ZZ    -117.1122

 Total job time:  93.11s(wall), 360.14s(cpu)
        *  Thank you very much for using Q-Chem.  Have a nice day.  *
