 Q-Chem 5.4, Q-Chem, Inc., Pleasanton, CA (2021)
 Q-Chem 5.4.0 for Intel X86 EM64T Linux

User input:
--------------------------------------------------------------
$molecule
-1 2
Cl                 5.1971430000     -1.4849390000     -0.0050030000
C                  3.6333810000     -0.6451270000     -0.1494900000
C                  3.6413290000      0.7243520000     -0.4808660000
C                  2.4323880000      1.3794340000     -0.5939690000
C                  1.2054190000      0.7133150000     -0.3869860000
C                 -0.0449090000      1.4611820000     -0.5209530000
O                 -0.0610270000      2.6814790000     -0.8152970000
C                 -1.2757530000      0.6999470000     -0.2909360000
C                 -2.5210520000      1.3561920000     -0.4029930000
C                 -3.7070710000      0.6808410000     -0.1955250000
C                 -3.6864720000     -0.6919460000      0.1354920000
C                 -2.4812550000     -1.3548160000      0.2507120000
C                 -1.2547590000     -0.6853170000      0.0430740000
C                 -0.0030590000     -1.4338560000      0.1772270000
O                  0.0173020000     -2.6547480000      0.4715870000
C                  1.2247430000     -0.6724170000     -0.0527560000
C                  2.4674010000     -1.3374650000      0.0614880000
H                  4.5800270000      1.2404260000     -0.6408030000
H                  2.3920190000      2.4325920000     -0.8471410000
H                 -2.5062840000      2.4095890000     -0.6581030000
H                 -4.6550500000      1.2027890000     -0.2862590000
H                 -4.6188710000     -1.2242320000      0.2989800000
H                 -2.4358570000     -2.4078240000      0.5036130000
H                  2.4602660000     -2.3894510000      0.3160450000
$end
$rem
MAX_SCF_CYCLES=200
BASIS  =  6-311++G(d,p)
GUI  =  2
JOB_TYPE  =  SP
METHOD  =  B3LYP
SOLVENT_METHOD = PCM
$end
$pcm
theory = CPCM
$end
$solvent
dielectric 37.219
opticaldielectric 1.43
$end

--------------------------------------------------------------

             Standard Nuclear Orientation (Angstroms)
    I     Atom           X                Y                Z
 ----------------------------------------------------------------
    1      Cl      5.1971430000    -1.4849390000    -0.0050030000
    2      C       3.6333810000    -0.6451270000    -0.1494900000
    3      C       3.6413290000     0.7243520000    -0.4808660000
    4      C       2.4323880000     1.3794340000    -0.5939690000
    5      C       1.2054190000     0.7133150000    -0.3869860000
    6      C      -0.0449090000     1.4611820000    -0.5209530000
    7      O      -0.0610270000     2.6814790000    -0.8152970000
    8      C      -1.2757530000     0.6999470000    -0.2909360000
    9      C      -2.5210520000     1.3561920000    -0.4029930000
   10      C      -3.7070710000     0.6808410000    -0.1955250000
   11      C      -3.6864720000    -0.6919460000     0.1354920000
   12      C      -2.4812550000    -1.3548160000     0.2507120000
   13      C      -1.2547590000    -0.6853170000     0.0430740000
   14      C      -0.0030590000    -1.4338560000     0.1772270000
   15      O       0.0173020000    -2.6547480000     0.4715870000
   16      C       1.2247430000    -0.6724170000    -0.0527560000
   17      C       2.4674010000    -1.3374650000     0.0614880000
   18      H       4.5800270000     1.2404260000    -0.6408030000
   19      H       2.3920190000     2.4325920000    -0.8471410000
   20      H      -2.5062840000     2.4095890000    -0.6581030000
   21      H      -4.6550500000     1.2027890000    -0.2862590000
   22      H      -4.6188710000    -1.2242320000     0.2989800000
   23      H      -2.4358570000    -2.4078240000     0.5036130000
   24      H       2.4602660000    -2.3894510000     0.3160450000
 ----------------------------------------------------------------

    8   -1148.7234165116      8.84e-06  Convergence criterion met
 Total energy in the final basis set =    -1148.7234165116

                    Orbital Energies (a.u.)
 --------------------------------------------------------------

 Alpha MOs
 -- Occupied --
******** -19.0813 -19.0811 -10.2374 -10.2304 -10.2296 -10.1840 -10.1825
-10.1818 -10.1800 -10.1787 -10.1765 -10.1759 -10.1741 -10.1736 -10.1716
-10.1715  -9.4701  -7.2344  -7.2252  -7.2247  -1.0094  -1.0070  -0.8909
 -0.8602  -0.8395  -0.7834  -0.7596  -0.7526  -0.7356  -0.6714  -0.6426
 -0.6174  -0.5948  -0.5617  -0.5377  -0.5271  -0.4805  -0.4719  -0.4638
 -0.4580  -0.4355  -0.4292  -0.4256  -0.4197  -0.4161  -0.4105  -0.3911
 -0.3873  -0.3860  -0.3580  -0.3559  -0.3529  -0.3384  -0.3269  -0.3204
 -0.2714  -0.2638  -0.2591  -0.2527  -0.2490  -0.2431  -0.1467

 Beta MOs
 -- Occupied --
******** -19.0762 -19.0758 -10.2368 -10.2286 -10.2276 -10.1835 -10.1820
-10.1813 -10.1800 -10.1779 -10.1758 -10.1752 -10.1737 -10.1731 -10.1715
-10.1713  -9.4701  -7.2344  -7.2251  -7.2247  -1.0003  -0.9975  -0.8897
 -0.8580  -0.8382  -0.7799  -0.7573  -0.7507  -0.7337  -0.6639  -0.6408
 -0.6148  -0.5941  -0.5593  -0.5354  -0.5254  -0.4777  -0.4707  -0.4621
 -0.4572  -0.4351  -0.4251  -0.4172  -0.4148  -0.4139  -0.4080  -0.3863
 -0.3859  -0.3632  -0.3573  -0.3515  -0.3500  -0.3371  -0.3202  -0.3185
 -0.2609  -0.2514  -0.2500  -0.2480  -0.2436  -0.2383

          Ground-State Mulliken Net Atomic Charges

     Atom                 Charge (a.u.)    Spin (a.u.)
  --------------------------------------------------------
      1 Cl                    0.441956       0.002483
      2 C                     0.600460       0.031527
      3 C                    -0.524089       0.047649
      4 C                     0.001259       0.020645
      5 C                     0.053807       0.041027
      6 C                    -0.588318       0.100749
      7 O                    -0.471380       0.193873
      8 C                     0.133474       0.025068
      9 C                     0.119734       0.026029
     10 C                    -0.466414       0.038588
     11 C                    -0.463681       0.030204
     12 C                     0.102747       0.033369
     13 C                     0.214430       0.024919
     14 C                    -0.618258       0.111544
     15 O                    -0.474295       0.202557
     16 C                    -0.116571       0.058373
     17 C                    -0.296729       0.026844
     18 H                     0.221873      -0.003578
     19 H                     0.184166      -0.000977
     20 H                     0.174919      -0.001344
     21 H                     0.199508      -0.003151
     22 H                     0.200067      -0.002599
     23 H                     0.172827      -0.001903
     24 H                     0.198507      -0.001897
  --------------------------------------------------------
  Sum of atomic charges =    -1.000000

                    Cartesian Multipole Moments
 -----------------------------------------------------------------
    Charge (ESU x 10^10)
                -4.8032
    Dipole Moment (Debye)
         X      -2.7743      Y       1.2591      Z       0.6134
       Tot       3.1078
    Quadrupole Moments (Debye-Ang)
        XX    -115.5421     XY       7.5025     YY    -139.3885
        XZ      -1.1809     YZ       6.2842     ZZ    -112.9621

 Total job time:  154.90s(wall), 313.41s(cpu)
        *  Thank you very much for using Q-Chem.  Have a nice day.  *
