 Gaussian 16, Revision A.03,
 Gaussian 16:  ES64L-G16RevA.03 25-Dec-2016

 --------------------------------------
 #P UB3LYP/6-311++G(d,p) nosym opt freq
 --------------------------------------

 -------
 Radical
 -------
 Symbolic Z-matrix:
 Charge = -1 Multiplicity = 2

 SCF Done:  E(UB3LYP) =  -1148.64868832     A.U. after   24 cycles
 SCF Done:  E(UB3LYP) =  -1148.64868785     A.U. after   11 cycles
 SCF Done:  E(UB3LYP) =  -1148.64868846     A.U. after   10 cycles
 Optimization completed.
    -- Stationary point found.
 Normal termination of Gaussian 16 at Wed Dec 27 19:59:48 2023.

 ----------------------------------------------------------------------
 #P Geom=AllCheck Guess=TCheck SCRF=Check GenChk UB3LYP/6-311++G(d,p) F
 req
 ----------------------------------------------------------------------

 Structure from the checkpoint file:  "118-rad.chk"
 -------
 Radical
 -------
 Charge = -1 Multiplicity = 2

                          Input orientation:
 ---------------------------------------------------------------------
 Center     Atomic      Atomic             Coordinates (Angstroms)
 Number     Number       Type             X           Y           Z
 ---------------------------------------------------------------------
      1         17           0        5.197143   -1.484939   -0.005003
      2          6           0        3.633381   -0.645127   -0.149490
      3          6           0        3.641329    0.724352   -0.480866
      4          6           0        2.432388    1.379434   -0.593969
      5          6           0        1.205419    0.713315   -0.386986
      6          6           0       -0.044909    1.461182   -0.520953
      7          8           0       -0.061027    2.681479   -0.815297
      8          6           0       -1.275753    0.699947   -0.290936
      9          6           0       -2.521052    1.356192   -0.402993
     10          6           0       -3.707071    0.680841   -0.195525
     11          6           0       -3.686472   -0.691946    0.135492
     12          6           0       -2.481255   -1.354816    0.250712
     13          6           0       -1.254759   -0.685317    0.043074
     14          6           0       -0.003059   -1.433856    0.177227
     15          8           0        0.017302   -2.654748    0.471587
     16          6           0        1.224743   -0.672417   -0.052756
     17          6           0        2.467401   -1.337465    0.061488
     18          1           0        4.580027    1.240426   -0.640803
     19          1           0        2.392019    2.432592   -0.847141
     20          1           0       -2.506284    2.409589   -0.658103
     21          1           0       -4.655050    1.202789   -0.286259
     22          1           0       -4.618871   -1.224232    0.298980
     23          1           0       -2.435857   -2.407824    0.503613
     24          1           0        2.460266   -2.389451    0.316045
 ---------------------------------------------------------------------

 SCF Done:  E(UB3LYP) =  -1148.64868846     A.U. after    1 cycles

 Alpha  occ. eigenvalues -- -101.44894 -18.95390 -18.95337 -10.12386 -10.10437
 Alpha  occ. eigenvalues --  -10.10332 -10.07306 -10.06618 -10.06555 -10.06468
 Alpha  occ. eigenvalues --  -10.06418 -10.06248 -10.05907 -10.05782 -10.05768
 Alpha  occ. eigenvalues --  -10.05724 -10.05685  -9.36349  -7.12766  -7.11854
 Alpha  occ. eigenvalues --   -7.11830  -0.88108  -0.87827  -0.77900  -0.74385
 Alpha  occ. eigenvalues --   -0.72583  -0.66797  -0.64309  -0.63692  -0.62079
 Alpha  occ. eigenvalues --   -0.55220  -0.52804  -0.50218  -0.48045  -0.44426
 Alpha  occ. eigenvalues --   -0.42366  -0.41219  -0.36131  -0.36035  -0.35141
 Alpha  occ. eigenvalues --   -0.34418  -0.32037  -0.31095  -0.30662  -0.29954
 Alpha  occ. eigenvalues --   -0.29154  -0.29011  -0.27671  -0.27420  -0.25763
 Alpha  occ. eigenvalues --   -0.24370  -0.24050  -0.23842  -0.22155  -0.21350
 Alpha  occ. eigenvalues --   -0.21130  -0.15153  -0.14643  -0.14140  -0.13381
 Alpha  occ. eigenvalues --   -0.12355  -0.11517  -0.02313
 Alpha virt. eigenvalues --    0.05866   0.07974   0.08692   0.08883   0.09928
 Alpha virt. eigenvalues --    0.10109   0.10562   0.11251   0.11986   0.12937
 Alpha virt. eigenvalues --    0.13852   0.14451   0.15225   0.15248   0.16501

  Beta  occ. eigenvalues -- -101.44893 -18.94803 -18.94720 -10.12325 -10.10312
  Beta  occ. eigenvalues --  -10.10198 -10.07247 -10.06628 -10.06576 -10.06422
  Beta  occ. eigenvalues --  -10.06368 -10.06136 -10.05806 -10.05790 -10.05761
  Beta  occ. eigenvalues --  -10.05656 -10.05600  -9.36348  -7.12768  -7.11847
  Beta  occ. eigenvalues --   -7.11829  -0.87094  -0.86766  -0.77796  -0.74165
  Beta  occ. eigenvalues --   -0.72448  -0.66429  -0.64113  -0.63526  -0.61880
  Beta  occ. eigenvalues --   -0.54499  -0.52643  -0.49958  -0.47984  -0.44210
  Beta  occ. eigenvalues --   -0.42151  -0.41073  -0.35991  -0.35816  -0.34970
  Beta  occ. eigenvalues --   -0.34325  -0.32011  -0.31065  -0.29804  -0.29663
  Beta  occ. eigenvalues --   -0.28765  -0.28663  -0.27165  -0.27086  -0.24307
  Beta  occ. eigenvalues --   -0.23700  -0.23677  -0.23311  -0.21967  -0.21322
  Beta  occ. eigenvalues --   -0.20242  -0.14476  -0.13305  -0.12844  -0.12541
  Beta  occ. eigenvalues --   -0.11796  -0.10954
  Beta virt. eigenvalues --    0.03659   0.06660   0.07967   0.08874   0.09778
  Beta virt. eigenvalues --    0.09922   0.10129   0.10755   0.11253   0.11997
  Beta virt. eigenvalues --    0.12922   0.13845   0.14656   0.15243   0.15373

 Mulliken charges and spin densities:
               1          2
     1  Cl   0.423606   0.002304
     2  C    0.674943   0.034122
     3  C   -0.503466   0.051515
     4  C    0.036932   0.010311
     5  C    0.098702   0.054383
     6  C   -0.810064   0.062469
     7  O   -0.363886   0.218980
     8  C    0.204314   0.039372
     9  C    0.111314   0.015019
    10  C   -0.389519   0.040825
    11  C   -0.384829   0.033764
    12  C    0.085715   0.020647
    13  C    0.286606   0.041971
    14  C   -0.792394   0.069458
    15  O   -0.364846   0.230245
    16  C   -0.069586   0.077079
    17  C   -0.311664   0.012606
    18  H    0.149787  -0.003991
    19  H    0.166404  -0.000699
    20  H    0.159755  -0.001061
    21  H    0.125396  -0.003396
    22  H    0.126036  -0.002931
    23  H    0.157191  -0.001528
    24  H    0.183554  -0.001463
 Sum of Mulliken charges =  -1.00000   1.00000

 Dipole moment (field-independent basis, Debye):
    X=             -2.6565    Y=              1.0898    Z=              0.6499  Tot=              2.9439
 Quadrupole moment (field-independent basis, Debye-Ang):
   XX=           -133.8214   YY=           -136.5732   ZZ=           -112.9655
   XY=              7.2378   XZ=             -0.4652   YZ=              5.6001

  Exact polarizability: 355.837 -12.725 215.116  -6.609 -28.107 103.925
 Approx polarizability: 511.104 -11.933 411.272 -10.476 -61.789 169.116

                      1                      2                      3
                      A                      A                      A
 Frequencies --     45.2878                91.4873               130.8379
 Red. masses --      9.0085                 6.2374                 4.9712
 Frc consts  --      0.0109                 0.0308                 0.0501
 IR Inten    --      3.1270                 3.3646                 0.7728

                      4                      5                      6
                      A                      A                      A
 Frequencies --    152.1590               158.4080               197.3826
 Red. masses --     10.9242                 6.7957                 6.1707
 Frc consts  --      0.1490                 0.1005                 0.1416
 IR Inten    --      0.7972                 2.1353                 0.3278

                      7                      8                      9
                      A                      A                      A
 Frequencies --    262.0120               285.4026               294.4821
 Red. masses --      7.1811                 6.4407                11.3083
 Frc consts  --      0.2905                 0.3091                 0.5778
 IR Inten    --      2.5871                 0.3993                 0.7132

                     10                     11                     12
                      A                      A                      A
 Frequencies --    351.8628               378.6260               420.1501
 Red. masses --      6.9053                10.8127                 3.7388
 Frc consts  --      0.5037                 0.9133                 0.3889
 IR Inten    --      2.1097                 4.3908                 1.4408

                     13                     14                     15
                      A                      A                      A
 Frequencies --    421.5560               434.1723               467.4933
 Red. masses --      7.1982                 5.4205                 3.1533
 Frc consts  --      0.7537                 0.6020                 0.4060
 IR Inten    --      3.9500                 1.8024                 0.0000

                     16                     17                     18
                      A                      A                      A
 Frequencies --    477.9805               513.6608               525.9460
 Red. masses --     11.2512                 8.8325                 4.6783
 Frc consts  --      1.5145                 1.3731                 0.7625
 IR Inten    --      5.5424                13.2431                 4.0956

                     19                     20                     21
                      A                      A                      A
 Frequencies --    637.3953               640.8323               648.0444
 Red. masses --      6.9827                 4.5016                 7.0131
 Frc consts  --      1.6714                 1.0892                 1.7353
 IR Inten    --     13.6616                 3.4227                18.2421

                     22                     23                     24
                      A                      A                      A
 Frequencies --    695.7147               705.3123               705.3725
 Red. masses --      6.5707                 2.3291                 7.6208
 Frc consts  --      1.8738                 0.6827                 2.2340
 IR Inten    --      1.7088                72.3143                26.2736

                     25                     26                     27
                      A                      A                      A
 Frequencies --    727.1401               777.9952               794.4613
 Red. masses --      4.5600                 1.5967                 2.2396
 Frc consts  --      1.4205                 0.5694                 0.8328
 IR Inten    --      0.0195                 5.4127                15.9869

                     28                     29                     30
                      A                      A                      A
 Frequencies --    821.4752               822.6333               872.5473
 Red. masses --      2.3481                 6.7654                 1.5368
 Frc consts  --      0.9336                 2.6975                 0.6893
 IR Inten    --     15.6196                41.2585                 0.0751

                     31                     32                     33
                      A                      A                      A
 Frequencies --    924.8520               936.3355               958.0556
 Red. masses --      1.4098                 6.5618                 6.6497
 Frc consts  --      0.7105                 3.3895                 3.5961
 IR Inten    --     10.9366                26.1529                23.8628

                     34                     35                     36
                      A                      A                      A
 Frequencies --    979.9632               984.8186               985.8853
 Red. masses --      1.3133                 1.3687                 1.2726
 Frc consts  --      0.7431                 0.7821                 0.7288
 IR Inten    --      0.1122                 4.3459                 0.0012

                     37                     38                     39
                      A                      A                      A
 Frequencies --   1037.9758              1070.2127              1109.8841
 Red. masses --      2.0181                 1.9692                 2.1794
 Frc consts  --      1.2811                 1.3288                 1.5817
 IR Inten    --     28.9961                11.8696                17.8525

                     40                     41                     42
                      A                      A                      A
 Frequencies --   1118.8723              1148.1300              1177.2776
 Red. masses --      1.8204                 1.4421                 3.3830
 Frc consts  --      1.3427                 1.1200                 2.7625
 IR Inten    --     26.5531                13.8344                 3.4777

                     43                     44                     45
                      A                      A                      A
 Frequencies --   1191.9869              1218.2657              1220.9141
 Red. masses --      2.2553                 1.6328                 2.5101
 Frc consts  --      1.8879                 1.4278                 2.2045
 IR Inten    --      1.7932                 7.1017                25.2349

                     46                     47                     48
                      A                      A                      A
 Frequencies --   1254.9278              1325.3709              1358.2500
 Red. masses --      1.7549                 2.3158                11.1858
 Frc consts  --      1.6284                 2.3968                12.1584
 IR Inten    --     65.0751                28.7224                21.9649

                     49                     50                     51
                      A                      A                      A
 Frequencies --   1360.2581              1404.3165              1455.2656
 Red. masses --      9.9080                 3.2217                 2.5696
 Frc consts  --     10.8013                 3.7434                 3.2063
 IR Inten    --      2.7367               246.1926               128.7602

                     52                     53                     54
                      A                      A                      A
 Frequencies --   1475.9574              1485.3083              1519.5696
 Red. masses --      3.3359                 2.7970                 5.4385
 Frc consts  --      4.2816                 3.6357                 7.3990
 IR Inten    --     70.0064                 3.9812               587.8351

                     55                     56                     57
                      A                      A                      A
 Frequencies --   1533.2896              1554.1161              1605.9327
 Red. masses --      8.9952                 5.9925                 6.6306
 Frc consts  --     12.4597                 8.5276                10.0754
 IR Inten    --     12.0449                57.2803                61.4623

                     58                     59                     60
                      A                      A                      A
 Frequencies --   1617.0548              1629.8074              3135.6135
 Red. masses --      8.9413                 6.4168                 1.0848
 Frc consts  --     13.7753                10.0425                 6.2839
 IR Inten    --      3.3419                19.3475                17.4645

                     61                     62                     63
                      A                      A                      A
 Frequencies --   3154.4906              3175.9342              3182.8959
 Red. masses --      1.0911                 1.0865                 1.0914
 Frc consts  --      6.3971                 6.4568                 6.5145
 IR Inten    --     49.8386                 0.4653                 9.4276

                     64                     65                     66
                      A                      A                      A
 Frequencies --   3185.4097              3191.5836              3202.4396
 Red. masses --      1.0930                 1.0946                 1.0907
 Frc consts  --      6.5343                 6.5690                 6.5905
 IR Inten    --     33.4281                14.5482                 6.3102

 - Thermochemistry -
 -------------------
 Temperature   298.150 Kelvin.  Pressure   1.00000 Atm.
 Atom     1 has atomic number 17 and mass  34.96885

 Molecular mass:   242.01346 amu.
 Principal axes and moments of inertia in atomic units:
                           1         2         3
     Eigenvalues --  1782.848777004.572608787.42137
           X            0.98765   0.15243   0.03633
           Y           -0.15670   0.95933   0.23479
           Z            0.00094  -0.23758   0.97137
 This molecule is an asymmetric top.
 Rotational symmetry number  1.
 Warning -- assumption of classical behavior for rotation
           may cause significant error
 Rotational temperatures (Kelvin)      0.04858     0.01237     0.00986
 Rotational constants (GHZ):           1.01228     0.25765     0.20538
 Zero-point vibrational energy     438605.1 (Joules/Mol)
                                  104.82914 (Kcal/Mol)
 Warning -- explicit consideration of  18 degrees of freedom as
           vibrations may cause significant error
 Vibrational temperatures:     65.16   131.63   188.25   218.92   227.91
          (Kelvin)            283.99   376.98   410.63   423.69   506.25
                              544.76   604.50   606.53   624.68   672.62
                              687.71   739.04   756.72   917.07   922.01
                              932.39  1000.98  1014.79  1014.87  1046.19
                             1119.36  1143.05  1181.92  1183.59  1255.40
                             1330.66  1347.18  1378.43  1409.95  1416.93
                             1418.47  1493.42  1539.80  1596.88  1609.81
                             1651.90  1693.84  1715.00  1752.81  1756.62
                             1805.56  1906.91  1954.22  1957.11  2020.50
                             2093.80  2123.57  2137.03  2186.32  2206.06
                             2236.03  2310.58  2326.58  2344.93  4511.45
                             4538.61  4569.46  4579.48  4583.09  4591.98
                             4607.60

 Zero-point correction=                           0.167056 (Hartree/Particle)
 Thermal correction to Energy=                    0.179547
 Thermal correction to Enthalpy=                  0.180491
 Thermal correction to Gibbs Free Energy=         0.127038
 Sum of electronic and zero-point Energies=          -1148.481633
 Sum of electronic and thermal Energies=             -1148.469141
 Sum of electronic and thermal Enthalpies=           -1148.468197
 Sum of electronic and thermal Free Energies=        -1148.521650

                     E (Thermal)             CV                S
                      KCal/Mol        Cal/Mol-Kelvin    Cal/Mol-Kelvin
 Total                  112.668             50.169            112.501
 Electronic               0.000              0.000              1.377
 Translational            0.889              2.981             42.353
 Rotational               0.889              2.981             33.062
 Vibrational            110.890             44.207             35.710
 Vibration     1          0.595              1.979              5.013
 Vibration     2          0.602              1.955              3.628
 Vibration     3          0.612              1.922              2.934
 Vibration     4          0.619              1.900              2.645
 Vibration     5          0.621              1.893              2.569
 Vibration     6          0.637              1.844              2.157
 Vibration     7          0.669              1.742              1.648
 Vibration     8          0.683              1.701              1.501
 Vibration     9          0.689              1.684              1.448
 Vibration    10          0.728              1.571              1.158
 Vibration    11          0.749              1.516              1.045
 Vibration    12          0.783              1.426              0.891
 Vibration    13          0.784              1.423              0.887
 Vibration    14          0.795              1.396              0.845
 Vibration    15          0.825              1.322              0.745
 Vibration    16          0.834              1.299              0.716
 Vibration    17          0.869              1.220              0.625
 Vibration    18          0.881              1.193              0.596

 Optimization completed.
    -- Stationary point found.
 Normal termination of Gaussian 16 at Wed Dec 27 20:58:37 2023.
