 Q-Chem 5.4, Q-Chem, Inc., Pleasanton, CA (2021)
 Q-Chem 5.4.0 for Intel X86 EM64T Linux

User input:
--------------------------------------------------------------
$molecule
-1 2
Br                -2.3374420000      2.1328900000      0.8092820000
C                 -0.9854660000      0.8530680000      0.3359080000
C                 -1.2990150000     -0.4907860000      0.2534490000
Br                -3.0662220000     -1.1507100000      0.5991950000
C                 -0.3280050000     -1.5129200000     -0.0988640000
O                 -0.6040910000     -2.7149470000     -0.1736150000
C                  1.0857870000     -1.0399490000     -0.3818290000
O                  1.9611470000     -1.8567820000     -0.6872270000
C                  1.3295960000      0.3885240000     -0.2727080000
C                  0.3467560000      1.2986780000      0.0692700000
Br                 0.7629310000      3.1703010000      0.1891540000
Br                 3.1340230000      0.9226340000     -0.6420110000
$end
$rem
MAX_SCF_CYCLES=200
BASIS  =  6-311++G(d,p)
GUI  =  2
JOB_TYPE  =  SP
METHOD  =  B3LYP
SOLVENT_METHOD = PCM
$end
$pcm
theory = CPCM
$end
$solvent
dielectric 37.219
opticaldielectric 1.43
$end

--------------------------------------------------------------

             Standard Nuclear Orientation (Angstroms)
    I     Atom           X                Y                Z
 ----------------------------------------------------------------
    1      Br     -2.3374420000     2.1328900000     0.8092820000
    2      C      -0.9854660000     0.8530680000     0.3359080000
    3      C      -1.2990150000    -0.4907860000     0.2534490000
    4      Br     -3.0662220000    -1.1507100000     0.5991950000
    5      C      -0.3280050000    -1.5129200000    -0.0988640000
    6      O      -0.6040910000    -2.7149470000    -0.1736150000
    7      C       1.0857870000    -1.0399490000    -0.3818290000
    8      O       1.9611470000    -1.8567820000    -0.6872270000
    9      C       1.3295960000     0.3885240000    -0.2727080000
   10      C       0.3467560000     1.2986780000     0.0692700000
   11      Br      0.7629310000     3.1703010000     0.1891540000
   12      Br      3.1340230000     0.9226340000    -0.6420110000
 ----------------------------------------------------------------

    9  -10675.8750838508      7.48e-06  Convergence criterion met
 Total energy in the final basis set =   -10675.8750838508

                    Orbital Energies (a.u.)
 --------------------------------------------------------------

 Alpha MOs
 -- Occupied --
********-482.8429-482.8350-482.8350 -62.4957 -62.4957 -62.4878 -62.4878
-56.3164 -56.3164 -56.3124 -56.3124 -56.3120 -56.3120 -56.3083 -56.3083
-56.3045 -56.3045 -56.3041 -56.3041 -19.1046 -19.1045 -10.2586 -10.2581
-10.2518 -10.2515 -10.2386 -10.2385  -8.7045  -8.7045  -8.6965  -8.6965
 -6.5364  -6.5363  -6.5281  -6.5280  -6.5231  -6.5231  -6.5221  -6.5221
 -6.5154  -6.5154  -6.5143  -6.5143  -2.6473  -2.6472  -2.6436  -2.6435
 -2.6429  -2.6427  -2.6390  -2.6389  -2.6356  -2.6356  -2.6347  -2.6347
 -2.6323  -2.6323  -2.6322  -2.6322  -2.6246  -2.6246  -2.6246  -2.6245
 -1.0499  -1.0219  -0.8994  -0.8414  -0.8133  -0.7924  -0.7789  -0.7085
 -0.6984  -0.5903  -0.5886  -0.5271  -0.4798  -0.4520  -0.4491  -0.4326
 -0.4203  -0.4040  -0.3941  -0.3895  -0.3885  -0.3387  -0.3298  -0.3175
 -0.3145  -0.3076  -0.2920  -0.2910  -0.2884  -0.2633  -0.2530  -0.2386
 -0.1893

 Beta MOs
 -- Occupied --
********-482.8429-482.8350-482.8350 -62.4957 -62.4957 -62.4878 -62.4878
-56.3164 -56.3164 -56.3123 -56.3123 -56.3120 -56.3120 -56.3083 -56.3083
-56.3045 -56.3045 -56.3041 -56.3041 -19.0986 -19.0985 -10.2568 -10.2564
-10.2507 -10.2505 -10.2376 -10.2376  -8.7044  -8.7044  -8.6965  -8.6965
 -6.5364  -6.5364  -6.5281  -6.5281  -6.5229  -6.5229  -6.5221  -6.5220
 -6.5153  -6.5153  -6.5143  -6.5143  -2.6473  -2.6471  -2.6435  -2.6434
 -2.6429  -2.6428  -2.6390  -2.6389  -2.6355  -2.6355  -2.6347  -2.6347
 -2.6322  -2.6322  -2.6321  -2.6321  -2.6246  -2.6246  -2.6245  -2.6245
 -1.0398  -1.0108  -0.8950  -0.8398  -0.8110  -0.7916  -0.7767  -0.7060
 -0.6897  -0.5861  -0.5836  -0.5248  -0.4767  -0.4435  -0.4350  -0.4274
 -0.4191  -0.4017  -0.3880  -0.3769  -0.3715  -0.3294  -0.3244  -0.3137
 -0.3135  -0.3037  -0.2908  -0.2877  -0.2807  -0.2616  -0.2475  -0.2275

          Ground-State Mulliken Net Atomic Charges

     Atom                 Charge (a.u.)    Spin (a.u.)
  --------------------------------------------------------
      1 Br                   -0.211385       0.011478
      2 C                    -0.556835       0.081262
      3 C                     1.182453       0.083209
      4 Br                   -0.148470       0.007647
      5 C                    -0.379299       0.090680
      6 O                    -0.391550       0.225826
      7 C                    -0.366861       0.090560
      8 O                    -0.391909       0.225992
      9 C                     1.171017       0.083299
     10 C                    -0.548416       0.080877
     11 Br                   -0.211022       0.011475
     12 Br                   -0.147723       0.007695
  --------------------------------------------------------
  Sum of atomic charges =    -1.000000

                    Cartesian Multipole Moments
 -----------------------------------------------------------------
    Charge (ESU x 10^10)
                -4.8032
    Dipole Moment (Debye)
         X      -2.3110      Y       7.7956      Z       1.4667
       Tot       8.2622
    Quadrupole Moments (Debye-Ang)
        XX    -138.4994     XY       2.7103     YY    -149.0153
        XZ       4.5100     YZ      -3.9321     ZZ    -122.5280

 Total job time:  29.64s(wall), 204.67s(cpu)
        *  Thank you very much for using Q-Chem.  Have a nice day.  *
