 Gaussian 16, Revision A.03,
 Gaussian 16:  ES64L-G16RevA.03 25-Dec-2016

 --------------------------------------
 #P UB3LYP/6-311++G(d,p) nosym opt freq
 --------------------------------------

 -------
 Radical
 -------
 Symbolic Z-matrix:
 Charge = -1 Multiplicity = 2

 SCF Done:  E(UB3LYP) =  -10675.8065502     A.U. after   20 cycles
 SCF Done:  E(UB3LYP) =  -10675.8065505     A.U. after   11 cycles
 Optimization completed.
    -- Stationary point found.
 Normal termination of Gaussian 16 at Tue Jan  9 20:33:08 2024.

 ----------------------------------------------------------------------
 #P Geom=AllCheck Guess=TCheck SCRF=Check GenChk UB3LYP/6-311++G(d,p) F
 req
 ----------------------------------------------------------------------

 Structure from the checkpoint file:  "318-rad.chk"
 -------
 Radical
 -------
 Charge = -1 Multiplicity = 2

                          Input orientation:
 ---------------------------------------------------------------------
 Center     Atomic      Atomic             Coordinates (Angstroms)
 Number     Number       Type             X           Y           Z
 ---------------------------------------------------------------------
      1         35           0       -2.337442    2.132890    0.809282
      2          6           0       -0.985466    0.853068    0.335908
      3          6           0       -1.299015   -0.490786    0.253449
      4         35           0       -3.066222   -1.150710    0.599195
      5          6           0       -0.328005   -1.512920   -0.098864
      6          8           0       -0.604091   -2.714947   -0.173615
      7          6           0        1.085787   -1.039949   -0.381829
      8          8           0        1.961147   -1.856782   -0.687227
      9          6           0        1.329596    0.388524   -0.272708
     10          6           0        0.346756    1.298678    0.069270
     11         35           0        0.762931    3.170301    0.189154
     12         35           0        3.134023    0.922634   -0.642011
 ---------------------------------------------------------------------

 SCF Done:  E(UB3LYP) =  -10675.8065505     A.U. after    1 cycles

 Alpha  occ. eigenvalues -- -482.73142-482.73141-482.71595-482.71593 -62.38426
 Alpha  occ. eigenvalues --  -62.38424 -62.36869 -62.36868 -56.20466 -56.20465
 Alpha  occ. eigenvalues --  -56.20085 -56.20084 -56.20046 -56.20045 -56.18905
 Alpha  occ. eigenvalues --  -56.18903 -56.18536 -56.18534 -56.18492 -56.18490
 Alpha  occ. eigenvalues --  -18.97097 -18.97096 -10.13945 -10.13903 -10.12147
 Alpha  occ. eigenvalues --  -10.12124 -10.11731 -10.11729  -8.59401  -8.59400
 Alpha  occ. eigenvalues --   -8.57837  -8.57835  -6.42559  -6.42558  -6.41278
 Alpha  occ. eigenvalues --   -6.41277  -6.41178  -6.41177  -6.40978  -6.40976
 Alpha  occ. eigenvalues --   -6.39736  -6.39734  -6.39610  -6.39609  -2.53651
 Alpha  occ. eigenvalues --   -2.53649  -2.53302  -2.53300  -2.53228  -2.53226
 Alpha  occ. eigenvalues --   -2.52205  -2.52205  -2.52204  -2.52203  -2.52074
 Alpha  occ. eigenvalues --   -2.52072  -2.51740  -2.51738  -2.51645  -2.51643
 Alpha  occ. eigenvalues --   -2.50654  -2.50652  -2.50652  -2.50651  -0.91488
 Alpha  occ. eigenvalues --   -0.88676  -0.78086  -0.72373  -0.69648  -0.67807
 Alpha  occ. eigenvalues --   -0.66022  -0.58904  -0.57544  -0.46756  -0.46513
 Alpha  occ. eigenvalues --   -0.40135  -0.35974  -0.32508  -0.31959  -0.30202
 Alpha  occ. eigenvalues --   -0.30030  -0.28152  -0.27027  -0.26917  -0.26010
 Alpha  occ. eigenvalues --   -0.21726  -0.21674  -0.19996  -0.19676  -0.19183
 Alpha  occ. eigenvalues --   -0.17290  -0.17156  -0.16455  -0.13953  -0.11933
 Alpha  occ. eigenvalues --   -0.11700  -0.06136
 Alpha virt. eigenvalues --    0.03946   0.08377   0.09931   0.10111   0.10421
 Alpha virt. eigenvalues --    0.10444   0.10501   0.12837   0.13092   0.13174
 Alpha virt. eigenvalues --    0.14388   0.14798   0.14912   0.14983   0.15319

  Beta  occ. eigenvalues -- -482.73140-482.73138-482.71593-482.71591 -62.38424
  Beta  occ. eigenvalues --  -62.38422 -62.36868 -62.36866 -56.20467 -56.20466
  Beta  occ. eigenvalues --  -56.20076 -56.20075 -56.20045 -56.20044 -56.18906
  Beta  occ. eigenvalues --  -56.18904 -56.18528 -56.18526 -56.18491 -56.18489
  Beta  occ. eigenvalues --  -18.96450 -18.96448 -10.13791 -10.13751 -10.12110
  Beta  occ. eigenvalues --  -10.12088 -10.11573 -10.11571  -8.59397  -8.59395
  Beta  occ. eigenvalues --   -8.57833  -8.57832  -6.42562  -6.42560  -6.41263
  Beta  occ. eigenvalues --   -6.41261  -6.41177  -6.41176  -6.40981  -6.40979
  Beta  occ. eigenvalues --   -6.39722  -6.39720  -6.39609  -6.39607  -2.53650
  Beta  occ. eigenvalues --   -2.53649  -2.53294  -2.53292  -2.53229  -2.53228
  Beta  occ. eigenvalues --   -2.52197  -2.52196  -2.52195  -2.52195  -2.52074
  Beta  occ. eigenvalues --   -2.52072  -2.51733  -2.51731  -2.51647  -2.51645
  Beta  occ. eigenvalues --   -2.50646  -2.50645  -2.50644  -2.50643  -0.90440
  Beta  occ. eigenvalues --   -0.87494  -0.77660  -0.72187  -0.69412  -0.67712
  Beta  occ. eigenvalues --   -0.65837  -0.58621  -0.56744  -0.46349  -0.46032
  Beta  occ. eigenvalues --   -0.39920  -0.35740  -0.31511  -0.31045  -0.30082
  Beta  occ. eigenvalues --   -0.29440  -0.27755  -0.26732  -0.25359  -0.24671
  Beta  occ. eigenvalues --   -0.21682  -0.20398  -0.19624  -0.19490  -0.18225
  Beta  occ. eigenvalues --   -0.17137  -0.16536  -0.16228  -0.13520  -0.11093
  Beta  occ. eigenvalues --   -0.10535
  Beta virt. eigenvalues --    0.00570   0.04073   0.08463   0.10070   0.10154
  Beta virt. eigenvalues --    0.10524   0.12265   0.12494   0.12877   0.13126
  Beta virt. eigenvalues --    0.13181   0.14393   0.14802   0.14946   0.15021

 Mulliken charges and spin densities:
               1          2
     1  Br  -0.184662   0.007550
     2  C   -0.467912   0.067972
     3  C    0.839702   0.127038
     4  Br  -0.154815   0.007559
     5  C   -0.251193   0.046136
     6  O   -0.281207   0.243767
     7  C   -0.251180   0.046129
     8  O   -0.281143   0.243758
     9  C    0.839490   0.127046
    10  C   -0.467685   0.067940
    11  Br  -0.184736   0.007543
    12  Br  -0.154658   0.007562
 Sum of Mulliken charges =  -1.00000   1.00000

 Dipole moment (field-independent basis, Debye):
    X=             -1.3023    Y=              4.3877    Z=              0.8261  Tot=              4.6508
 Quadrupole moment (field-independent basis, Debye-Ang):
   XX=           -142.9770   YY=           -149.9119   ZZ=           -123.3015
   XY=              1.3859   XZ=              5.2776   YZ=             -3.6497

  Exact polarizability: 226.430  12.171 206.533 -30.743  10.507 100.626
 Approx polarizability: 337.146   6.075 342.811 -44.856  21.524 160.045

                      1                      2                      3
                      A                      A                      A
 Frequencies --     34.3679                43.4779                75.8612
 Red. masses --     55.6857                26.3563                17.4495
 Frc consts  --      0.0388                 0.0294                 0.0592
 IR Inten    --      0.0000                 2.5485                 0.0000

                      4                      5                      6
                      A                      A                      A
 Frequencies --    137.2714               137.3852               149.6824
 Red. masses --     67.2521                50.1579                74.8329
 Frc consts  --      0.7466                 0.5578                 0.9878
 IR Inten    --      0.6402                 1.6871                 0.1218

                      7                      8                      9
                      A                      A                      A
 Frequencies --    158.1897               198.6805               210.2167
 Red. masses --     13.3158                62.8944                63.3298
 Frc consts  --      0.1963                 1.4628                 1.6489
 IR Inten    --      0.6906                 0.3004                 1.5656

                     10                     11                     12
                      A                      A                      A
 Frequencies --    247.3299               267.8053               319.6560
 Red. masses --     19.1590                12.3125                19.2001
 Frc consts  --      0.6905                 0.5203                 1.1559
 IR Inten    --      1.2297                 0.0000                 0.0747

                     13                     14                     15
                      A                      A                      A
 Frequencies --    339.0738               383.3304               420.0790
 Red. masses --     12.3939                15.8017                15.2976
 Frc consts  --      0.8395                 1.3680                 1.5905
 IR Inten    --      3.3283                 1.8533                 0.0823

                     16                     17                     18
                      A                      A                      A
 Frequencies --    490.5294               561.6700               586.5649
 Red. masses --     12.0171                12.2308                13.2308
 Frc consts  --      1.7037                 2.2734                 2.6821
 IR Inten    --      0.0000                 7.7141                78.9007

                     19                     20                     21
                      A                      A                      A
 Frequencies --    706.0601               713.7778               753.5793
 Red. masses --     12.7257                12.7093                12.2042
 Frc consts  --      3.7378                 3.8150                 4.0834
 IR Inten    --     36.7065                51.4682                 0.0000

                     22                     23                     24
                      A                      A                      A
 Frequencies --    860.4749               915.1585              1138.9794
 Red. masses --     12.6558                12.3611                12.0400
 Frc consts  --      5.5210                 6.0996                 9.2025
 IR Inten    --      0.3488                23.0523                 3.1522

                     25                     26                     27
                      A                      A                      A
 Frequencies --   1159.5681              1266.1137              1438.6179
 Red. masses --     12.1685                12.0343                12.0617
 Frc consts  --      9.6401                11.3663                14.7078
 IR Inten    --     68.8957                76.4415                40.0692

                     28                     29                     30
                      A                      A                      A
 Frequencies --   1467.2885              1578.2774              1588.6865
 Red. masses --     12.0063                13.1544                13.1867
 Frc consts  --     15.2297                19.3059                19.6093
 IR Inten    --      0.0065                78.6441               567.3096

 - Thermochemistry -
 -------------------
 Temperature   298.150 Kelvin.  Pressure   1.00000 Atm.
 Atom     1 has atomic number 35 and mass  78.91834

 Molecular mass:   419.66317 amu.
 Principal axes and moments of inertia in atomic units:
                           1         2         3
     Eigenvalues --  4412.921728280.39758**********
           X            0.93177  -0.27986   0.23128
           Y            0.31149   0.94348  -0.11325
           Z           -0.18651   0.17757   0.96627
 This molecule is an asymmetric top.
 Rotational symmetry number  1.
 Warning -- assumption of classical behavior for rotation
           may cause significant error
 Rotational temperatures (Kelvin)      0.01963     0.01046     0.00682
 Rotational constants (GHZ):           0.40897     0.21795     0.14218
 Zero-point vibrational energy     109743.9 (Joules/Mol)
                                   26.22943 (Kcal/Mol)
 Warning -- explicit consideration of  18 degrees of freedom as
           vibrations may cause significant error
 Vibrational temperatures:     49.45    62.56   109.15   197.50   197.67
          (Kelvin)            215.36   227.60   285.86   302.45   355.85
                              385.31   459.91   487.85   551.53   604.40
                              705.76   808.12   843.94  1015.86  1026.97
                             1084.23  1238.03  1316.71  1638.74  1668.36
                             1821.66  2069.85  2111.10  2270.79  2285.77

 Zero-point correction=                           0.041799 (Hartree/Particle)
 Thermal correction to Energy=                    0.054258
 Thermal correction to Enthalpy=                  0.055203
 Thermal correction to Gibbs Free Energy=        -0.002014
 Sum of electronic and zero-point Energies=         -10675.764751
 Sum of electronic and thermal Energies=            -10675.752292
 Sum of electronic and thermal Enthalpies=          -10675.751348
 Sum of electronic and thermal Free Energies=       -10675.808565

                     E (Thermal)             CV                S
                      KCal/Mol        Cal/Mol-Kelvin    Cal/Mol-Kelvin
 Total                   34.048             40.617            120.423
 Electronic               0.000              0.000              1.377
 Translational            0.889              2.981             43.993
 Rotational               0.889              2.981             34.494
 Vibrational             32.270             34.656             40.558
 Vibration     1          0.594              1.983              5.560
 Vibration     2          0.595              1.980              5.094
 Vibration     3          0.599              1.965              3.995
 Vibration     4          0.614              1.916              2.842
 Vibration     5          0.614              1.916              2.840
 Vibration     6          0.618              1.903              2.676
 Vibration     7          0.621              1.893              2.571
 Vibration     8          0.637              1.842              2.145
 Vibration     9          0.642              1.825              2.042
 Vibration    10          0.661              1.767              1.750
 Vibration    11          0.673              1.732              1.610
 Vibration    12          0.706              1.636              1.312
 Vibration    13          0.719              1.597              1.217
 Vibration    14          0.753              1.506              1.026
 Vibration    15          0.783              1.427              0.892
 Vibration    16          0.846              1.271              0.682
 Vibration    17          0.917              1.114              0.521
 Vibration    18          0.944              1.060              0.473

 Optimization completed.
    -- Stationary point found.
 Normal termination of Gaussian 16 at Tue Jan  9 21:01:17 2024.
