 Q-Chem 5.4, Q-Chem, Inc., Pleasanton, CA (2021)
 Q-Chem 5.4.0 for Intel X86 EM64T Linux

User input:
--------------------------------------------------------------
$molecule
-2 1
C                 -0.3084750000      1.2131460000     -0.2768050000
C                 -1.3436280000      0.3181550000     -0.7311700000
C                 -1.2730880000     -1.0622790000     -0.6359620000
C                 -0.1572450000     -1.7871050000     -0.0708800000
C                  0.8716960000     -0.9288900000      0.3821830000
C                  0.8164790000      0.5023280000      0.2919830000
O                 -0.3996630000      2.4914710000     -0.3773100000
O                 -0.1348300000     -3.0874570000     -0.0022160000
C                  1.9188790000      1.2406530000      0.7853670000
N                  2.8525830000      1.8049760000      1.2062490000
H                 -2.2220940000      0.7916280000     -1.1717280000
H                 -2.1024050000     -1.6696370000     -1.0048640000
H                  1.7549120000     -1.3863200000      0.8241930000
$end
$rem
MAX_SCF_CYCLES=200
BASIS  =  6-311++G(d,p)
GUI  =  2
JOB_TYPE  =  SP
METHOD  =  B3LYP
SOLVENT_METHOD = PCM
$end
$pcm
theory = CPCM
$end
$solvent
dielectric 37.219
opticaldielectric 1.43
$end

--------------------------------------------------------------

             Standard Nuclear Orientation (Angstroms)
    I     Atom           X                Y                Z
 ----------------------------------------------------------------
    1      C      -0.3084750000     1.2131460000    -0.2768050000
    2      C      -1.3436280000     0.3181550000    -0.7311700000
    3      C      -1.2730880000    -1.0622790000    -0.6359620000
    4      C      -0.1572450000    -1.7871050000    -0.0708800000
    5      C       0.8716960000    -0.9288900000     0.3821830000
    6      C       0.8164790000     0.5023280000     0.2919830000
    7      O      -0.3996630000     2.4914710000    -0.3773100000
    8      O      -0.1348300000    -3.0874570000    -0.0022160000
    9      C       1.9188790000     1.2406530000     0.7853670000
   10      N       2.8525830000     1.8049760000     1.2062490000
   11      H      -2.2220940000     0.7916280000    -1.1717280000
   12      H      -2.1024050000    -1.6696370000    -1.0048640000
   13      H       1.7549120000    -1.3863200000     0.8241930000
 ----------------------------------------------------------------

   10    -474.1301169625      2.27e-06  Convergence criterion met
 Total energy in the final basis set =     -474.1301169625

                    Orbital Energies (a.u.)
 --------------------------------------------------------------

 Alpha MOs
 -- Occupied --
-19.0374 -19.0236 -14.2912 -10.1982 -10.1978 -10.1813 -10.1627 -10.1439
-10.1400 -10.1380  -0.9538  -0.9332  -0.8906  -0.7967  -0.7302  -0.6688
 -0.6037  -0.5565  -0.4745  -0.4464  -0.4378  -0.3962  -0.3825  -0.3727
 -0.3652  -0.3484  -0.3393  -0.3358  -0.3233  -0.3160  -0.2387  -0.2288
 -0.2151  -0.2051  -0.1368

          Ground-State Mulliken Net Atomic Charges

     Atom                 Charge (a.u.)
  ----------------------------------------
      1 C                    -0.977127
      2 C                     0.071003
      3 C                    -0.021335
      4 C                    -0.325375
      5 C                    -0.435153
      6 C                     1.985345
      7 O                    -0.689886
      8 O                    -0.760492
      9 C                    -0.901535
     10 N                    -0.438840
     11 H                     0.168534
     12 H                     0.167240
     13 H                     0.157621
  ----------------------------------------
  Sum of atomic charges =    -2.000000

                    Cartesian Multipole Moments
 -----------------------------------------------------------------
    Charge (ESU x 10^10)
                -9.6064
    Dipole Moment (Debye)
         X      -4.3961      Y      -0.4203      Z      -1.3565
       Tot       4.6198
    Quadrupole Moments (Debye-Ang)
        XX     -83.4815     XY     -10.7849     YY    -133.1607
        XZ      -7.9668     YZ      -2.0861     ZZ     -68.7114

 Total job time:  17.85s(wall), 79.94s(cpu)
        *  Thank you very much for using Q-Chem.  Have a nice day.  *
