 Q-Chem 5.4, Q-Chem, Inc., Pleasanton, CA (2021)
 Q-Chem 5.4.0 for Intel X86 EM64T Linux

User input:
--------------------------------------------------------------
$molecule
-1 2
C                 -1.7007020000      3.0824660000      0.2787380000
C                 -2.8744810000      2.3644840000      0.1415910000
C                 -2.8297390000      0.9818470000     -0.1293530000
C                 -0.4418760000      2.4561210000      0.1481810000
C                 -0.4008810000      1.0618400000     -0.1210560000
C                 -1.6057850000      0.3480590000     -0.2558010000
C                  0.7750370000      3.2591920000      0.3211680000
C                  2.0410820000      2.5504580000      0.1470740000
C                  2.0570850000      1.1871490000     -0.1213950000
C                  0.8891700000      0.3670140000     -0.2598120000
O                  0.7059030000      4.4851980000      0.6213590000
O                  0.9558770000     -0.8680280000     -0.5042170000
N                  3.2416270000      3.2746190000      0.3389830000
C                  3.4045260000      4.5140630000     -0.4155130000
C                  4.4744430000      2.5227770000      0.4355910000
H                 -1.7095080000      4.1452220000      0.4916050000
H                 -3.8328560000      2.8661390000      0.2433860000
H                 -3.7519780000      0.4180310000     -0.2365210000
H                 -1.5341530000     -0.7141510000     -0.4620190000
H                  2.9944270000      0.6608170000     -0.2545290000
H                  2.4786450000      5.0819880000     -0.3733490000
H                  3.6770450000      4.3178680000     -1.4696990000
H                  4.2062090000      5.1084920000      0.0366170000
H                  4.3699790000      1.7110980000      1.1582180000
H                  5.2659630000      3.1949550000      0.7818560000
H                  4.8038440000      2.0840710000     -0.5254700000
$end
$rem
MAX_SCF_CYCLES=200
BASIS  =  6-311++G(d,p)
GUI  =  2
JOB_TYPE  =  SP
METHOD  =  B3LYP
SOLVENT_METHOD = PCM
$end
$pcm
theory = CPCM
$end
$solvent
dielectric 37.219
opticaldielectric 1.43
$end

--------------------------------------------------------------

             Standard Nuclear Orientation (Angstroms)
    I     Atom           X                Y                Z
 ----------------------------------------------------------------
    1      C      -1.7007020000     3.0824660000     0.2787380000
    2      C      -2.8744810000     2.3644840000     0.1415910000
    3      C      -2.8297390000     0.9818470000    -0.1293530000
    4      C      -0.4418760000     2.4561210000     0.1481810000
    5      C      -0.4008810000     1.0618400000    -0.1210560000
    6      C      -1.6057850000     0.3480590000    -0.2558010000
    7      C       0.7750370000     3.2591920000     0.3211680000
    8      C       2.0410820000     2.5504580000     0.1470740000
    9      C       2.0570850000     1.1871490000    -0.1213950000
   10      C       0.8891700000     0.3670140000    -0.2598120000
   11      O       0.7059030000     4.4851980000     0.6213590000
   12      O       0.9558770000    -0.8680280000    -0.5042170000
   13      N       3.2416270000     3.2746190000     0.3389830000
   14      C       3.4045260000     4.5140630000    -0.4155130000
   15      C       4.4744430000     2.5227770000     0.4355910000
   16      H      -1.7095080000     4.1452220000     0.4916050000
   17      H      -3.8328560000     2.8661390000     0.2433860000
   18      H      -3.7519780000     0.4180310000    -0.2365210000
   19      H      -1.5341530000    -0.7141510000    -0.4620190000
   20      H       2.9944270000     0.6608170000    -0.2545290000
   21      H       2.4786450000     5.0819880000    -0.3733490000
   22      H       3.6770450000     4.3178680000    -1.4696990000
   23      H       4.2062090000     5.1084920000     0.0366170000
   24      H       4.3699790000     1.7110980000     1.1582180000
   25      H       5.2659630000     3.1949550000     0.7818560000
   26      H       4.8038440000     2.0840710000    -0.5254700000
 ----------------------------------------------------------------

    9    -669.4176372352      4.44e-06  Convergence criterion met
 Total energy in the final basis set =     -669.4176372352

                    Orbital Energies (a.u.)
 --------------------------------------------------------------

 Alpha MOs
 -- Occupied --
-19.0746 -19.0715 -14.3219 -10.2206 -10.2197 -10.2028 -10.1837 -10.1772
-10.1709 -10.1701 -10.1693 -10.1688 -10.1674 -10.1669 -10.1505  -1.0016
 -0.9956  -0.9323  -0.8548  -0.7949  -0.7477  -0.7372  -0.7075  -0.6802
 -0.6417  -0.6120  -0.5833  -0.5550  -0.5096  -0.5043  -0.4812  -0.4607
 -0.4566  -0.4431  -0.4266  -0.4198  -0.4132  -0.4115  -0.4024  -0.3927
 -0.3846  -0.3794  -0.3705  -0.3622  -0.3495  -0.3489  -0.3351  -0.2885
 -0.2581  -0.2549  -0.2433  -0.2364  -0.2120  -0.1465

 Beta MOs
 -- Occupied --
-19.0684 -19.0665 -14.3210 -10.2183 -10.2181 -10.2014 -10.1838 -10.1772
-10.1705 -10.1699 -10.1687 -10.1681 -10.1675 -10.1666 -10.1500  -0.9910
 -0.9865  -0.9298  -0.8528  -0.7904  -0.7457  -0.7354  -0.7066  -0.6743
 -0.6375  -0.6102  -0.5807  -0.5525  -0.5076  -0.5023  -0.4787  -0.4589
 -0.4538  -0.4422  -0.4246  -0.4181  -0.4087  -0.3999  -0.3995  -0.3903
 -0.3819  -0.3749  -0.3643  -0.3485  -0.3476  -0.3409  -0.3337  -0.2733
 -0.2483  -0.2447  -0.2381  -0.2312  -0.2029

          Ground-State Mulliken Net Atomic Charges

     Atom                 Charge (a.u.)    Spin (a.u.)
  --------------------------------------------------------
      1 C                     0.177329       0.071523
      2 C                    -0.473099       0.011532
      3 C                    -0.412802       0.053118
      4 C                    -0.018337      -0.007481
      5 C                     0.673212       0.059802
      6 C                     0.101062       0.006386
      7 C                    -0.770866       0.175283
      8 C                    -0.609165       0.084204
      9 C                     0.444980       0.014664
     10 C                    -0.217196       0.089457
     11 O                    -0.498970       0.235239
     12 O                    -0.530007       0.179894
     13 N                     0.062987       0.029454
     14 C                    -0.410586       0.006953
     15 C                    -0.400882      -0.002967
     16 H                     0.174822      -0.003286
     17 H                     0.193108      -0.001274
     18 H                     0.197852      -0.003849
     19 H                     0.161489      -0.000838
     20 H                     0.199514      -0.005578
     21 H                     0.175924      -0.002460
     22 H                     0.142757       0.003972
     23 H                     0.158665       0.001212
     24 H                     0.161467       0.000267
     25 H                     0.169404      -0.000085
     26 H                     0.147338       0.004860
  --------------------------------------------------------
  Sum of atomic charges =    -1.000000

                    Cartesian Multipole Moments
 -----------------------------------------------------------------
    Charge (ESU x 10^10)
                -4.8032
    Dipole Moment (Debye)
         X      -2.2491      Y      -7.4658      Z      -0.6831
       Tot       7.8271
    Quadrupole Moments (Debye-Ang)
        XX     -82.3062     XY       0.9835     YY    -138.1964
        XZ      -0.6021     YZ     -10.2816     ZZ     -97.5706

 Total job time:  78.41s(wall), 330.74s(cpu)
        *  Thank you very much for using Q-Chem.  Have a nice day.  *
