 Gaussian 16, Revision A.03,
 Gaussian 16:  ES64L-G16RevA.03 25-Dec-2016

 ----------------------------------------------------------------
 #P UB3LYP/6-311++G(d,p) SCRF=(PCM,Solvent=n,n-DiMethylFormamide)
 ----------------------------------------------------------------

 ------------------
 Quinone PCM in DMF
 ------------------
 Symbolic Z-matrix:
 Charge =  0 Multiplicity = 1

                         Standard orientation:
 ---------------------------------------------------------------------
 Center     Atomic      Atomic             Coordinates (Angstroms)
 Number     Number       Type             X           Y           Z
 ---------------------------------------------------------------------
      1          6           0        3.237560   -1.799359    0.018415
      2          6           0        4.557858   -1.393972    0.172874
      3          6           0        4.865150   -0.035297    0.288377
      4          6           0        2.210873   -0.850740   -0.022563
      5          6           0        2.520153    0.516431    0.093561
      6          6           0        3.851435    0.914679    0.249050
      7          6           0        0.802323   -1.315137   -0.190219
      8          6           0       -0.264829   -0.272272   -0.232301
      9          6           0        0.046750    1.093682   -0.115640
     10          6           0        1.451783    1.558752    0.054719
     11          6           0       -1.593858   -0.670192   -0.394585
     12          6           0       -0.984853    2.035720   -0.164949
     13          6           0       -2.301279    1.625133   -0.325836
     14          8           0        0.534149   -2.501731   -0.288007
     15          8           0        1.720856    2.744939    0.158738
     16          1           0        2.976640   -2.846434   -0.073105
     17          1           0        5.350122   -2.133326    0.203585
     18          1           0        5.895744    0.278838    0.408730
     19          1           0       -3.091508    2.367773   -0.370134
     20          1           0        4.066470    1.972467    0.336675
     21          1           0       -1.800506   -1.730250   -0.489682
     22          1           0       -0.731237    3.085190   -0.079146
     23          6           0       -2.628279    0.265193   -0.442090
     24          6           0       -4.065698   -0.176383   -0.581215
     25          6           0       -4.715860   -0.459645    0.774473
     26          8           0       -6.066205   -0.849105    0.527843
     27          1           0       -4.127461   -1.083802   -1.187861
     28          1           0       -4.652592    0.594267   -1.088631
     29          1           0       -4.676871    0.440763    1.402059
     30          1           0       -4.165632   -1.256873    1.291058
     31          1           0       -6.488934   -1.060988    1.365431
 ---------------------------------------------------------------------

 SCF Done:  E(UB3LYP) =  -842.858465327     A.U. after   14 cycles

 The electronic state is 1-A.
 Alpha  occ. eigenvalues --  -19.13405 -19.13300 -19.13204 -10.28476 -10.28397
 Alpha  occ. eigenvalues --  -10.22648 -10.21026 -10.20976 -10.20967 -10.20956
 Alpha  occ. eigenvalues --  -10.20790 -10.20009 -10.19961 -10.19893 -10.19881
 Alpha  occ. eigenvalues --  -10.19869 -10.19776 -10.19707 -10.18297  -1.06814
 Alpha  occ. eigenvalues --   -1.06615  -1.03397  -0.89677  -0.88530  -0.82455
 Alpha  occ. eigenvalues --   -0.79329  -0.78026  -0.77619  -0.74572  -0.68995
 Alpha  occ. eigenvalues --   -0.67053  -0.64845  -0.62386  -0.61108  -0.58801
 Alpha  occ. eigenvalues --   -0.56203  -0.55252  -0.52676  -0.50807  -0.49840
 Alpha  occ. eigenvalues --   -0.48798  -0.47088  -0.47002  -0.45974  -0.45734
 Alpha  occ. eigenvalues --   -0.45359  -0.44951  -0.44303  -0.43474  -0.43124
 Alpha  occ. eigenvalues --   -0.42110  -0.39361  -0.39106  -0.38235  -0.37381
 Alpha  occ. eigenvalues --   -0.37110  -0.36936  -0.36153  -0.34911  -0.29188
 Alpha  occ. eigenvalues --   -0.28986  -0.28920  -0.28106  -0.27786  -0.27689
 Alpha  occ. eigenvalues --   -0.27205
 Alpha virt. eigenvalues --   -0.11948  -0.07558  -0.03780  -0.02848  -0.00799
 Alpha virt. eigenvalues --   -0.00310   0.00521   0.01024   0.01555   0.01849
 Alpha virt. eigenvalues --    0.02722   0.03202   0.03498   0.03530   0.03821

  Beta  occ. eigenvalues --  -19.13405 -19.13300 -19.13204 -10.28476 -10.28397
  Beta  occ. eigenvalues --  -10.22648 -10.21026 -10.20976 -10.20967 -10.20956
  Beta  occ. eigenvalues --  -10.20790 -10.20009 -10.19961 -10.19893 -10.19881
  Beta  occ. eigenvalues --  -10.19869 -10.19776 -10.19707 -10.18297  -1.06814
  Beta  occ. eigenvalues --   -1.06615  -1.03397  -0.89677  -0.88530  -0.82455
  Beta  occ. eigenvalues --   -0.79329  -0.78026  -0.77619  -0.74572  -0.68995
  Beta  occ. eigenvalues --   -0.67053  -0.64845  -0.62386  -0.61108  -0.58801
  Beta  occ. eigenvalues --   -0.56203  -0.55252  -0.52676  -0.50807  -0.49840
  Beta  occ. eigenvalues --   -0.48798  -0.47088  -0.47002  -0.45974  -0.45734
  Beta  occ. eigenvalues --   -0.45359  -0.44951  -0.44303  -0.43474  -0.43124
  Beta  occ. eigenvalues --   -0.42110  -0.39361  -0.39106  -0.38235  -0.37381
  Beta  occ. eigenvalues --   -0.37110  -0.36936  -0.36153  -0.34911  -0.29188
  Beta  occ. eigenvalues --   -0.28986  -0.28920  -0.28106  -0.27786  -0.27689
  Beta  occ. eigenvalues --   -0.27205
  Beta virt. eigenvalues --   -0.11948  -0.07558  -0.03780  -0.02848  -0.00799
  Beta virt. eigenvalues --   -0.00310   0.00521   0.01024   0.01555   0.01849
  Beta virt. eigenvalues --    0.02722   0.03202   0.03498   0.03530   0.03821

 Mulliken charges and spin densities:
               1          2
     1  C    0.156466  -0.000000
     2  C   -0.419033   0.000000
     3  C   -0.426134   0.000000
     4  C    0.336547  -0.000000
     5  C    0.096490   0.000000
     6  C    0.199111  -0.000000
     7  C   -0.734923   0.000000
     8  C    0.362339   0.000000
     9  C    0.066806  -0.000000
    10  C   -0.753067   0.000000
    11  C   -0.074440   0.000000
    12  C    0.139097  -0.000000
    13  C   -0.547119   0.000000
    14  O   -0.265375   0.000000
    15  O   -0.272963  -0.000000
    16  H    0.184189  -0.000000
    17  H    0.209403   0.000000
    18  H    0.208509  -0.000000
    19  H    0.208829   0.000000
    20  H    0.186277  -0.000000
    21  H    0.190263   0.000000
    22  H    0.194635  -0.000000
    23  C    0.616361  -0.000000
    24  C    0.031975   0.000000
    25  C   -0.525691   0.000000
    26  O   -0.344698  -0.000000
    27  H    0.180344  -0.000000
    28  H    0.178936  -0.000000
    29  H    0.166675  -0.000000
    30  H    0.166078  -0.000000
    31  H    0.284112   0.000000
 Sum of Mulliken charges =  -0.00000  -0.00000

 Dipole moment (field-independent basis, Debye):
    X=              0.3333    Y=             -0.0807    Z=              1.8380  Tot=              1.8697
 Quadrupole moment (field-independent basis, Debye-Ang):
   XX=            -87.5199   YY=           -121.3183   ZZ=           -108.8856
   XY=            -10.2046   XZ=             -9.2151   YZ=             -3.5158

 Normal termination of Gaussian 16 at Tue Jan 16 05:17:56 2024.
