 Q-Chem 5.4, Q-Chem, Inc., Pleasanton, CA (2021)
 Q-Chem 5.4.0 for Intel X86 EM64T Linux

User input:
--------------------------------------------------------------
$molecule
-2 1
C                 -4.0105950000     -1.0259210000      0.2419760000
C                 -2.6274870000     -0.4203500000      0.2477490000
C                 -2.4545280000      0.9972800000      0.4246250000
C                 -3.6539990000      1.8961260000      0.6065790000
C                 -1.1840990000      1.5462300000      0.4292160000
O                 -1.0052420000      2.8900630000      0.5962010000
C                 -0.0156670000      0.7202910000      0.2586710000
C                  1.2841250000      1.3239270000      0.2690480000
O                  1.4316710000      2.6265870000      0.4323920000
C                  2.4004160000      0.4530740000      0.0953140000
C                  3.7240350000      0.9724870000      0.0935110000
C                  4.8277310000      0.1651430000     -0.0712220000
C                  4.6561430000     -1.2415830000     -0.2472430000
C                  3.3882840000     -1.7797800000     -0.2508190000
C                  2.2258330000     -0.9782490000     -0.0836830000
C                  0.9304210000     -1.5755390000     -0.0933680000
O                  0.7605870000     -2.8755360000     -0.2550890000
C                 -0.1886120000     -0.6973200000      0.0816060000
C                 -1.5239520000     -1.2388320000      0.0816570000
O                 -1.6737190000     -2.5861920000     -0.0870090000
H                 -3.9392760000     -2.1046920000      0.0955460000
H                 -4.6442940000     -0.6142640000     -0.5588620000
H                 -4.5506700000     -0.8447810000      1.1842840000
H                 -4.2488990000      1.6258070000      1.4928300000
H                 -3.3248630000      2.9297570000      0.7231860000
H                 -4.3435410000      1.8525600000     -0.2507540000
H                  0.0372550000      2.9976280000      0.5550790000
H                  3.8262650000      2.0445720000      0.2292050000
H                  5.8278270000      0.5951480000     -0.0676490000
H                  5.5254430000     -1.8837490000     -0.3778200000
H                  3.2297190000     -2.8454800000     -0.3826240000
H                 -0.6863130000     -2.9244150000     -0.1840850000
$end

$rem
BASIS  =  6-311++G(d,p)
GUI  =  2
JOB_TYPE  =  SP
METHOD  =  B3LYP
SCF_CONVERGENCE  = 8
SOLVENT_METHOD = sm12
$end

$smx
solvent dimethylformamide
charges CM5
$end

--------------------------------------------------------------

             Standard Nuclear Orientation (Angstroms)
    I     Atom           X                Y                Z
 ----------------------------------------------------------------
    1      C      -4.0105950000    -1.0259210000     0.2419760000
    2      C      -2.6274870000    -0.4203500000     0.2477490000
    3      C      -2.4545280000     0.9972800000     0.4246250000
    4      C      -3.6539990000     1.8961260000     0.6065790000
    5      C      -1.1840990000     1.5462300000     0.4292160000
    6      O      -1.0052420000     2.8900630000     0.5962010000
    7      C      -0.0156670000     0.7202910000     0.2586710000
    8      C       1.2841250000     1.3239270000     0.2690480000
    9      O       1.4316710000     2.6265870000     0.4323920000
   10      C       2.4004160000     0.4530740000     0.0953140000
   11      C       3.7240350000     0.9724870000     0.0935110000
   12      C       4.8277310000     0.1651430000    -0.0712220000
   13      C       4.6561430000    -1.2415830000    -0.2472430000
   14      C       3.3882840000    -1.7797800000    -0.2508190000
   15      C       2.2258330000    -0.9782490000    -0.0836830000
   16      C       0.9304210000    -1.5755390000    -0.0933680000
   17      O       0.7605870000    -2.8755360000    -0.2550890000
   18      C      -0.1886120000    -0.6973200000     0.0816060000
   19      C      -1.5239520000    -1.2388320000     0.0816570000
   20      O      -1.6737190000    -2.5861920000    -0.0870090000
   21      H      -3.9392760000    -2.1046920000     0.0955460000
   22      H      -4.6442940000    -0.6142640000    -0.5588620000
   23      H      -4.5506700000    -0.8447810000     1.1842840000
   24      H      -4.2488990000     1.6258070000     1.4928300000
   25      H      -3.3248630000     2.9297570000     0.7231860000
   26      H      -4.3435410000     1.8525600000    -0.2507540000
   27      H       0.0372550000     2.9976280000     0.5550790000
   28      H       3.8262650000     2.0445720000     0.2292050000
   29      H       5.8278270000     0.5951480000    -0.0676490000
   30      H       5.5254430000    -1.8837490000    -0.3778200000
   31      H       3.2297190000    -2.8454800000    -0.3826240000
   32      H      -0.6863130000    -2.9244150000    -0.1840850000
 ----------------------------------------------------------------

   17    -918.1194815394      6.23e-09  Convergence criterion met
 Total energy in the final basis set =     -918.3877409170

                    Orbital Energies (a.u.)
 --------------------------------------------------------------

 Alpha MOs
 -- Occupied --
-19.0953 -19.0952 -19.0484 -19.0484 -10.2039 -10.2038 -10.1956 -10.1955
-10.1720 -10.1716 -10.1692 -10.1692 -10.1665 -10.1665 -10.1565 -10.1563
-10.1562 -10.1560 -10.1559 -10.1556  -1.0144  -1.0131  -0.9533  -0.9509
 -0.8461  -0.8288  -0.7864  -0.7459  -0.7410  -0.7375  -0.6927  -0.6779
 -0.6425  -0.6109  -0.6038  -0.5658  -0.5565  -0.5238  -0.5021  -0.4878
 -0.4802  -0.4552  -0.4448  -0.4392  -0.4342  -0.4253  -0.4192  -0.4022
 -0.3993  -0.3953  -0.3941  -0.3863  -0.3847  -0.3699  -0.3666  -0.3641
 -0.3550  -0.3479  -0.3342  -0.3337  -0.3261  -0.3239  -0.3142  -0.2721
 -0.2499  -0.2406  -0.2299  -0.2250  -0.2181  -0.1879  -0.1232

          Ground-State Mulliken Net Atomic Charges

     Atom                 Charge (a.u.)
  ----------------------------------------
      1 C                     1.409176
      2 C                     1.305510
      3 C                     1.306206
      4 C                     1.412966
      5 C                    -0.553492
      6 O                    -0.344745
      7 C                    -2.233097
      8 C                    -1.970035
      9 O                    -0.383875
     10 C                    -1.410294
     11 C                     0.105103
     12 C                     1.391106
     13 C                     1.390542
     14 C                     0.105319
     15 C                    -1.413665
     16 C                    -1.972138
     17 O                    -0.383614
     18 C                    -2.230392
     19 C                    -0.554658
     20 O                    -0.344473
     21 H                     0.257966
     22 H                     0.227875
     23 H                     0.228219
     24 H                     0.227801
     25 H                     0.258412
     26 H                     0.227906
     27 H                     0.427141
     28 H                     0.151882
     29 H                     0.391427
     30 H                     0.391369
     31 H                     0.151851
     32 H                     0.426702
  ----------------------------------------
  Sum of atomic charges =    -2.000000

                    Cartesian Multipole Moments
 -----------------------------------------------------------------
    Charge (ESU x 10^10)
                -9.6064
    Dipole Moment (Debye)
         X      -4.9538      Y       0.5617      Z      -1.2300
       Tot       5.1351
    Quadrupole Moments (Debye-Ang)
        XX    -176.7084     XY      -1.1215     YY    -182.5587
        XZ       1.5293     YZ      -6.7417     ZZ    -131.1588

 Total job time:  1004.84s(wall), 7900.21s(cpu)
        *  Thank you very much for using Q-Chem.  Have a nice day.  *
