 Q-Chem 5.4, Q-Chem, Inc., Pleasanton, CA (2021)
 Q-Chem 5.4.0 for Intel X86 EM64T Linux

User input:
--------------------------------------------------------------
$molecule
-1 2
O                  4.9764350000      0.6038950000     -0.6554550000
C                  3.6895870000      0.1276030000     -0.4772540000
C                  3.5292690000     -1.2708900000     -0.4187460000
C                  2.2640640000     -1.7956020000     -0.2419740000
C                  1.1299520000     -0.9696700000     -0.1186400000
C                 -0.1932110000     -1.5933500000      0.0682410000
O                 -0.2965180000     -2.8337930000      0.1152260000
C                 -1.3378470000     -0.6749290000      0.1902620000
C                 -2.6625870000     -1.1501680000      0.3732800000
O                 -2.9107880000     -2.5030180000      0.4420810000
C                 -3.7235480000     -0.2609880000      0.4852060000
C                 -3.5284490000      1.1242640000      0.4223630000
C                 -2.2545920000      1.6375740000      0.2449050000
O                 -2.0895100000      2.9780450000      0.1872330000
C                 -1.1366590000      0.7512560000      0.1255940000
C                  0.1764030000      1.3307630000     -0.0586990000
O                  0.3525680000      2.6047790000     -0.1159740000
C                  1.3050270000      0.4342870000     -0.1792490000
C                  2.6028810000      0.9661010000     -0.3604080000
H                  4.9371550000      1.5656010000     -0.6762500000
H                  4.4016870000     -1.9075390000     -0.5136080000
H                  2.1065950000     -2.8666570000     -0.1927390000
H                 -3.8601360000     -2.6071040000      0.5660330000
H                 -4.7287060000     -0.6543390000      0.6250280000
H                 -4.3621100000      1.8114840000      0.5106390000
H                 -1.0928410000      3.1061070000      0.0559050000
H                  2.7058810000      2.0462890000     -0.4030020000
$end

$rem
BASIS  =  6-311++G(d,p)
GUI  =  2
JOB_TYPE  =  SP
METHOD  =  B3LYP
SCF_CONVERGENCE  = 8
SOLVENT_METHOD = sm12
$end

$smx
solvent dimethylformamide
charges CM5
$end

--------------------------------------------------------------

             Standard Nuclear Orientation (Angstroms)
    I     Atom           X                Y                Z
 ----------------------------------------------------------------
    1      O       4.9764350000     0.6038950000    -0.6554550000
    2      C       3.6895870000     0.1276030000    -0.4772540000
    3      C       3.5292690000    -1.2708900000    -0.4187460000
    4      C       2.2640640000    -1.7956020000    -0.2419740000
    5      C       1.1299520000    -0.9696700000    -0.1186400000
    6      C      -0.1932110000    -1.5933500000     0.0682410000
    7      O      -0.2965180000    -2.8337930000     0.1152260000
    8      C      -1.3378470000    -0.6749290000     0.1902620000
    9      C      -2.6625870000    -1.1501680000     0.3732800000
   10      O      -2.9107880000    -2.5030180000     0.4420810000
   11      C      -3.7235480000    -0.2609880000     0.4852060000
   12      C      -3.5284490000     1.1242640000     0.4223630000
   13      C      -2.2545920000     1.6375740000     0.2449050000
   14      O      -2.0895100000     2.9780450000     0.1872330000
   15      C      -1.1366590000     0.7512560000     0.1255940000
   16      C       0.1764030000     1.3307630000    -0.0586990000
   17      O       0.3525680000     2.6047790000    -0.1159740000
   18      C       1.3050270000     0.4342870000    -0.1792490000
   19      C       2.6028810000     0.9661010000    -0.3604080000
   20      H       4.9371550000     1.5656010000    -0.6762500000
   21      H       4.4016870000    -1.9075390000    -0.5136080000
   22      H       2.1065950000    -2.8666570000    -0.1927390000
   23      H      -3.8601360000    -2.6071040000     0.5660330000
   24      H      -4.7287060000    -0.6543390000     0.6250280000
   25      H      -4.3621100000     1.8114840000     0.5106390000
   26      H      -1.0928410000     3.1061070000     0.0559050000
   27      H       2.7058810000     2.0462890000    -0.4030020000
 ----------------------------------------------------------------

   18    -914.7638764208      7.99e-09  Convergence criterion met
 Total energy in the final basis set =     -914.8597725728

                    Orbital Energies (a.u.)
 --------------------------------------------------------------

 Alpha MOs
 -- Occupied --
-19.1614 -19.1493 -19.1241 -19.0875 -19.0739 -10.2432 -10.2373 -10.2326
-10.2320 -10.2296 -10.1832 -10.1828 -10.1824 -10.1818 -10.1802 -10.1792
-10.1760 -10.1750 -10.1737  -1.0679  -1.0603  -1.0492  -1.0051  -1.0003
 -0.8662  -0.8506  -0.7922  -0.7608  -0.7471  -0.7384  -0.6762  -0.6555
 -0.6388  -0.6080  -0.5773  -0.5620  -0.5568  -0.5311  -0.5092  -0.4873
 -0.4794  -0.4654  -0.4588  -0.4402  -0.4379  -0.4291  -0.4218  -0.4180
 -0.4098  -0.4054  -0.4008  -0.3907  -0.3897  -0.3741  -0.3692  -0.3616
 -0.3596  -0.3481  -0.3307  -0.3086  -0.2722  -0.2628  -0.2553  -0.2391
 -0.2334  -0.2168  -0.1433

 Beta MOs
 -- Occupied --
-19.1614 -19.1491 -19.1235 -19.0820 -19.0690 -10.2432 -10.2374 -10.2320
-10.2314 -10.2267 -10.1829 -10.1828 -10.1821 -10.1817 -10.1795 -10.1778
-10.1753 -10.1741 -10.1730  -1.0679  -1.0599  -1.0470  -0.9969  -0.9912
 -0.8639  -0.8490  -0.7883  -0.7586  -0.7455  -0.7358  -0.6693  -0.6543
 -0.6364  -0.6069  -0.5751  -0.5608  -0.5559  -0.5299  -0.5077  -0.4843
 -0.4787  -0.4642  -0.4573  -0.4374  -0.4324  -0.4280  -0.4188  -0.4161
 -0.4077  -0.4019  -0.3935  -0.3900  -0.3811  -0.3732  -0.3608  -0.3583
 -0.3512  -0.3462  -0.3238  -0.3013  -0.2579  -0.2534  -0.2509  -0.2325
 -0.2289  -0.2069

          Ground-State Mulliken Net Atomic Charges

     Atom                 Charge (a.u.)    Spin (a.u.)
  --------------------------------------------------------
      1 O                    -0.147360       0.001515
      2 C                     1.233777      -0.001819
      3 C                     0.920187       0.056485
      4 C                     0.229435      -0.002964
      5 C                    -1.344208       0.046219
      6 C                    -1.969865       0.014689
      7 O                    -0.289060       0.183506
      8 C                    -0.930830       0.060734
      9 C                    -0.057017       0.007276
     10 O                    -0.143439       0.004688
     11 C                     1.733767       0.105015
     12 C                     0.875292       0.048790
     13 C                    -0.655783       0.064460
     14 O                    -0.349183       0.018459
     15 C                    -0.644852      -0.033661
     16 C                    -1.672931       0.162066
     17 O                    -0.341594       0.202566
     18 C                    -0.582379       0.000785
     19 C                     0.803353       0.088176
     20 H                     0.358659      -0.000064
     21 H                     0.320272      -0.004265
     22 H                     0.154908       0.000415
     23 H                     0.352617      -0.000537
     24 H                     0.360095      -0.008764
     25 H                     0.260245      -0.004495
     26 H                     0.335177      -0.004619
     27 H                     0.190717      -0.004657
  --------------------------------------------------------
  Sum of atomic charges =    -1.000000

                    Cartesian Multipole Moments
 -----------------------------------------------------------------
    Charge (ESU x 10^10)
                -4.8032
    Dipole Moment (Debye)
         X       0.1611      Y       0.2313      Z      -0.0273
       Tot       0.2833
    Quadrupole Moments (Debye-Ang)
        XX    -115.4053     XY      12.7737     YY    -145.1068
        XZ      -0.4070     YZ      -0.8440     ZZ    -115.8772

 Total job time:  741.48s(wall), 5736.31s(cpu)
        *  Thank you very much for using Q-Chem.  Have a nice day.  *
