 Gaussian 16, Revision A.03,
 Gaussian 16:  ES64L-G16RevA.03 25-Dec-2016

 --------------------------------------
 #P UB3LYP/6-311++G(d,p) nosym opt freq
 --------------------------------------

 -------
 Reduced
 -------
 Symbolic Z-matrix:
 Charge = -2 Multiplicity = 1

 SCF Done:  E(UB3LYP) =  -5760.98698798     A.U. after   30 cycles
 SCF Done:  E(UB3LYP) =  -5760.99303588     A.U. after   20 cycles
 SCF Done:  E(UB3LYP) =  -5760.99342803     A.U. after   19 cycles
 SCF Done:  E(UB3LYP) =  -5760.99347049     A.U. after   17 cycles
 SCF Done:  E(UB3LYP) =  -5760.99347639     A.U. after   19 cycles
 SCF Done:  E(UB3LYP) =  -5760.99348394     A.U. after   16 cycles
 SCF Done:  E(UB3LYP) =  -5760.99348642     A.U. after   17 cycles
 SCF Done:  E(UB3LYP) =  -5760.94279040     A.U. after   28 cycles
 SCF Done:  E(UB3LYP) =  -5760.99410150     A.U. after   21 cycles
 SCF Done:  E(UB3LYP) =  -5760.95564331     A.U. after   22 cycles
 SCF Done:  E(UB3LYP) =  -5760.99639967     A.U. after   19 cycles
 SCF Done:  E(UB3LYP) =  -5760.99640002     A.U. after   15 cycles
 SCF Done:  E(UB3LYP) =  -5760.99639243     A.U. after   18 cycles
 SCF Done:  E(UB3LYP) =  -5760.99640475     A.U. after   18 cycles
 SCF Done:  E(UB3LYP) =  -5760.99640028     A.U. after   19 cycles
 SCF Done:  E(UB3LYP) =  -5760.99640033     A.U. after   13 cycles
 SCF Done:  E(UB3LYP) =  -5760.99639241     A.U. after   18 cycles
 SCF Done:  E(UB3LYP) =  -5760.99640520     A.U. after   18 cycles
 SCF Done:  E(UB3LYP) =  -5760.99640034     A.U. after   19 cycles
 Optimization completed.
    -- Stationary point found.
 Normal termination of Gaussian 16 at Thu Dec 28 03:16:58 2023.

 ----------------------------------------------------------------------
 #P Geom=AllCheck Guess=TCheck SCRF=Check GenChk UB3LYP/6-311++G(d,p) F
 req
 ----------------------------------------------------------------------

 Structure from the checkpoint file:  "235-an.chk"
 -------
 Reduced
 -------
 Charge = -2 Multiplicity = 1

                          Input orientation:
 ---------------------------------------------------------------------
 Center     Atomic      Atomic             Coordinates (Angstroms)
 Number     Number       Type             X           Y           Z
 ---------------------------------------------------------------------
      1          6           0        5.833824   -5.216329    1.177394
      2          6           0        6.732815   -5.125869    0.138974
      3          6           0        6.563369   -4.137367   -0.856882
      4          6           0        4.694789   -4.383530    1.246338
      5          6           0        4.538841   -3.350669    0.244568
      6          6           0        5.473138   -3.298201   -0.813763
      7          6           0        3.747915   -4.559626    2.329516
      8          6           0        2.673309   -3.607034    2.335776
      9          6           0        2.516536   -2.605193    1.353904
     10          6           0        3.440866   -2.404930    0.273270
     11          8           0        3.871897   -5.495464    3.209057
     12          8           0        3.314016   -1.467997   -0.604698
     13          1           0        5.980082   -5.913547    1.995438
     14          1           0        5.276662   -2.582036   -1.604460
     15         35           0        8.440409   -6.119443    0.312286
     16         35           0        7.621264   -4.184491   -2.533832
     17          6           0        1.668978   -3.737460    3.457721
     18          6           0        1.342711   -1.655066    1.416219
     19          1           0        2.038758   -4.484904    4.163546
     20          1           0        0.678599   -4.065806    3.101645
     21          1           0        1.508151   -2.785916    3.984725
     22          1           0        0.382802   -2.184824    1.499497
     23          1           0        1.344379   -1.048106    0.507815
     24          1           0        1.396697   -0.973622    2.281195
 ---------------------------------------------------------------------

 SCF Done:  E(UB3LYP) =  -5760.99640034     A.U. after    2 cycles

 Alpha  occ. eigenvalues -- -482.60497-482.60496 -62.25774 -62.25773 -56.07777
 Alpha  occ. eigenvalues --  -56.07776 -56.07440 -56.07439 -56.07429 -56.07428
 Alpha  occ. eigenvalues --  -18.78275 -18.78274  -9.98874  -9.98828  -9.94286
 Alpha  occ. eigenvalues --   -9.94284  -9.93723  -9.93722  -9.92634  -9.92633
 Alpha  occ. eigenvalues --   -9.91367  -9.91329  -9.90796  -9.90748  -8.46720
 Alpha  occ. eigenvalues --   -8.46719  -6.29750  -6.29750  -6.28629  -6.28628
 Alpha  occ. eigenvalues --   -6.28602  -6.28601  -2.40859  -2.40858  -2.40543
 Alpha  occ. eigenvalues --   -2.40542  -2.40523  -2.40523  -2.39633  -2.39632
 Alpha  occ. eigenvalues --   -2.39632  -2.39631  -0.70093  -0.69662  -0.63259
 Alpha  occ. eigenvalues --   -0.56974  -0.56710  -0.55076  -0.49813  -0.49252
 Alpha  occ. eigenvalues --   -0.48270  -0.42460  -0.39810  -0.35946  -0.33020
 Alpha  occ. eigenvalues --   -0.29597  -0.25569  -0.22946  -0.22035  -0.19910
 Alpha  occ. eigenvalues --   -0.19433  -0.18800  -0.16380  -0.16045  -0.16023
 Alpha  occ. eigenvalues --   -0.14743  -0.14566  -0.13672  -0.11972  -0.11663
 Alpha  occ. eigenvalues --   -0.11164  -0.09346  -0.09101  -0.08254  -0.07782
 Alpha  occ. eigenvalues --   -0.07711  -0.06290  -0.05725  -0.00687   0.00977
 Alpha  occ. eigenvalues --    0.02196   0.03495   0.04295   0.12180
 Alpha virt. eigenvalues --    0.15879   0.16485   0.17797   0.18435   0.19422
 Alpha virt. eigenvalues --    0.19543   0.20735   0.20915   0.21495   0.21604
 Alpha virt. eigenvalues --    0.21895   0.22231   0.22361   0.23050   0.23670

  Beta  occ. eigenvalues -- -482.60497-482.60496 -62.25774 -62.25773 -56.07777
  Beta  occ. eigenvalues --  -56.07776 -56.07440 -56.07439 -56.07429 -56.07428
  Beta  occ. eigenvalues --  -18.78275 -18.78274  -9.98874  -9.98828  -9.94286
  Beta  occ. eigenvalues --   -9.94284  -9.93723  -9.93722  -9.92634  -9.92633
  Beta  occ. eigenvalues --   -9.91367  -9.91329  -9.90796  -9.90748  -8.46720
  Beta  occ. eigenvalues --   -8.46719  -6.29750  -6.29750  -6.28629  -6.28628
  Beta  occ. eigenvalues --   -6.28602  -6.28601  -2.40859  -2.40858  -2.40543
  Beta  occ. eigenvalues --   -2.40542  -2.40523  -2.40523  -2.39633  -2.39632
  Beta  occ. eigenvalues --   -2.39632  -2.39631  -0.70093  -0.69662  -0.63259
  Beta  occ. eigenvalues --   -0.56974  -0.56710  -0.55076  -0.49813  -0.49252
  Beta  occ. eigenvalues --   -0.48270  -0.42460  -0.39810  -0.35946  -0.33020
  Beta  occ. eigenvalues --   -0.29597  -0.25569  -0.22946  -0.22035  -0.19910
  Beta  occ. eigenvalues --   -0.19433  -0.18800  -0.16380  -0.16045  -0.16023
  Beta  occ. eigenvalues --   -0.14743  -0.14566  -0.13672  -0.11972  -0.11663
  Beta  occ. eigenvalues --   -0.11164  -0.09346  -0.09101  -0.08254  -0.07782
  Beta  occ. eigenvalues --   -0.07711  -0.06290  -0.05725  -0.00687   0.00977
  Beta  occ. eigenvalues --    0.02196   0.03495   0.04295   0.12180
  Beta virt. eigenvalues --    0.15879   0.16485   0.17797   0.18435   0.19422
  Beta virt. eigenvalues --    0.19543   0.20735   0.20915   0.21495   0.21604
  Beta virt. eigenvalues --    0.21895   0.22231   0.22361   0.23050   0.23670

 Mulliken charges and spin densities:
               1          2
     1  C   -0.204540  -0.000000
     2  C    0.106982  -0.000000
     3  C    0.107220   0.000000
     4  C    0.478356   0.000000
     5  C    0.477638  -0.000000
     6  C   -0.204562   0.000000
     7  C   -1.322141  -0.000000
     8  C    0.934268   0.000000
     9  C    0.933914  -0.000000
    10  C   -1.322055   0.000000
    11  O   -0.513945   0.000000
    12  O   -0.513962  -0.000000
    13  H    0.198984   0.000000
    14  H    0.198969  -0.000000
    15  Br  -0.370390  -0.000000
    16  Br  -0.370457   0.000000
    17  C   -0.661842   0.000000
    18  C   -0.661592  -0.000000
    19  H    0.185118   0.000000
    20  H    0.079356   0.000000
    21  H    0.090106   0.000000
    22  H    0.090101  -0.000000
    23  H    0.185122   0.000000
    24  H    0.079353  -0.000000
 Sum of Mulliken charges =  -2.00000  -0.00000

 Dipole moment (field-independent basis, Debye):
    X=            -45.8507    Y=             37.7127    Z=             -6.3456  Tot=             59.7060
 Quadrupole moment (field-independent basis, Debye-Ang):
   XX=           -402.2286   YY=           -313.6559   ZZ=           -178.0142
   XY=            204.0162   XZ=             -6.9393   YZ=             41.7283

  Exact polarizability: 555.777-170.697 257.629-199.464  11.969 353.362
 Approx polarizability: 992.167-314.884 437.485-389.035  33.264 583.728

                      1                      2                      3
                      A                      A                      A
 Frequencies --     33.3585                54.9668                83.3729
 Red. masses --     13.8281                 5.1925                 1.1466
 Frc consts  --      0.0091                 0.0092                 0.0047
 IR Inten    --     15.3717                 3.9859                 2.1400

                      4                      5                      6
                      A                      A                      A
 Frequencies --    108.2870               120.1689               126.0202
 Red. masses --     21.9134                 8.5326                 4.7083
 Frc consts  --      0.1514                 0.0726                 0.0441
 IR Inten    --     21.4427                 7.7180                 3.6067

                      7                      8                      9
                      A                      A                      A
 Frequencies --    132.3296               134.3560               191.1093
 Red. masses --      2.5584                 1.2451                13.2249
 Frc consts  --      0.0264                 0.0132                 0.2846
 IR Inten    --      4.8481                 0.7092               178.1350

                     10                     11                     12
                      A                      A                      A
 Frequencies --    197.2860               209.2690               212.4095
 Red. masses --     14.9418                 6.1812                 5.3825
 Frc consts  --      0.3426                 0.1595                 0.1431
 IR Inten    --      2.3092                21.5286                 0.7470

                     13                     14                     15
                      A                      A                      A
 Frequencies --    318.9853               321.0817               330.2551
 Red. masses --      2.5637                 5.5978                 3.5568
 Frc consts  --      0.1537                 0.3400                 0.2286
 IR Inten    --      2.4378                 6.5463                 3.9904

                     16                     17                     18
                      A                      A                      A
 Frequencies --    377.4535               390.9556               402.0760
 Red. masses --      7.7450                 9.1462                 7.6929
 Frc consts  --      0.6501                 0.8237                 0.7328
 IR Inten    --     20.9403                77.7342                64.2213

                     19                     20                     21
                      A                      A                      A
 Frequencies --    437.8881               459.5109               466.5773
 Red. masses --      3.4297                 5.0161                 9.0443
 Frc consts  --      0.3875                 0.6240                 1.1600
 IR Inten    --     23.1625                 7.3205                 1.7586

                     22                     23                     24
                      A                      A                      A
 Frequencies --    517.6169               531.7986               632.9944
 Red. masses --      7.0993                 7.0226                 4.4495
 Frc consts  --      1.1207                 1.1702                 1.0504
 IR Inten    --    603.1397                51.8056               173.8376

                     25                     26                     27
                      A                      A                      A
 Frequencies --    641.1650               669.2734               683.1999
 Red. masses --      5.4491                 6.8902                 5.1290
 Frc consts  --      1.3198                 1.8184                 1.4105
 IR Inten    --     49.3248                75.8524                48.8279

                     28                     29                     30
                      A                      A                      A
 Frequencies --    717.3284               788.4210               818.2166
 Red. masses --      6.1983                 4.9346                 4.3616
 Frc consts  --      1.8791                 1.8073                 1.7204
 IR Inten    --      7.9389                12.7659                20.8653

                     31                     32                     33
                      A                      A                      A
 Frequencies --    899.7686               910.2548               921.6288
 Red. masses --      3.1970                 1.5308                 1.4550
 Frc consts  --      1.5250                 0.7473                 0.7282
 IR Inten    --     74.0726                53.6054                28.9892

                     34                     35                     36
                      A                      A                      A
 Frequencies --    967.2100              1000.1734              1026.0212
 Red. masses --      3.9816                 1.8269                 1.7117
 Frc consts  --      2.1946                 1.0768                 1.0617
 IR Inten    --     68.8229               128.4807               227.5736

                     37                     38                     39
                      A                      A                      A
 Frequencies --   1026.0650              1047.8708              1097.8855
 Red. masses --      1.6515                 1.5180                 2.6336
 Frc consts  --      1.0244                 0.9821                 1.8703
 IR Inten    --    188.9574                15.5984                52.2436

                     40                     41                     42
                      A                      A                      A
 Frequencies --   1148.1003              1164.0626              1203.9276
 Red. masses --      3.6826                 6.4849                 5.9940
 Frc consts  --      2.8600                 5.1773                 5.1188
 IR Inten    --     51.6580                45.6294               160.5588

                     43                     44                     45
                      A                      A                      A
 Frequencies --   1210.3086              1334.6368              1337.8231
 Red. masses --      1.2916                 4.6788                 2.1114
 Frc consts  --      1.1147                 4.9104                 2.2264
 IR Inten    --     29.1974               799.4774                15.6374

                     46                     47                     48
                      A                      A                      A
 Frequencies --   1343.6481              1360.8831              1403.7138
 Red. masses --      2.6859                 1.4875                 3.2444
 Frc consts  --      2.8570                 1.6231                 3.7665
 IR Inten    --    179.7030                31.4056                38.2887

                     49                     50                     51
                      A                      A                      A
 Frequencies --   1425.8473              1428.2067              1453.1571
 Red. masses --      4.7264                 3.5176                 2.0774
 Frc consts  --      5.6614                 4.2274                 2.5847
 IR Inten    --     44.0635               431.6160               283.2242

                     52                     53                     54
                      A                      A                      A
 Frequencies --   1466.9403              1476.1364              1488.5766
 Red. masses --      4.4605                 1.1800                 1.7460
 Frc consts  --      5.6553                 1.5149                 2.2795
 IR Inten    --     26.1174                30.8374                67.4454

                     55                     56                     57
                      A                      A                      A
 Frequencies --   1488.6019              1503.6904              1510.6932
 Red. masses --      1.2219                 1.1587                 5.1372
 Frc consts  --      1.5954                 1.5436                 6.9076
 IR Inten    --     15.6966                 8.6495                82.5962

                     58                     59                     60
                      A                      A                      A
 Frequencies --   1551.7359              2932.8344              2933.1619
 Red. masses --      8.0151                 1.0662                 1.0538
 Frc consts  --     11.3709                 5.4032                 5.3419
 IR Inten    --    957.7060               625.4727                83.3924

                     61                     62                     63
                      A                      A                      A
 Frequencies --   2969.5534              2973.5387              3078.5619
 Red. masses --      1.0708                 1.0848                 1.0924
 Frc consts  --      5.5634                 5.6515                 6.1002
 IR Inten    --    277.8620               153.1349                 5.1726

                     64                     65                     66
                      A                      A                      A
 Frequencies --   3079.0514              3166.9751              3168.8400
 Red. masses --      1.0920                 1.0884                 1.0888
 Frc consts  --      6.0999                 6.4315                 6.4420
 IR Inten    --     24.0689                 0.6598                24.1612

 - Thermochemistry -
 -------------------
 Temperature   298.150 Kelvin.  Pressure   1.00000 Atm.
 Atom     1 has atomic number  6 and mass  12.00000

 Molecular mass:   341.88910 amu.
 Principal axes and moments of inertia in atomic units:
                           1         2         3
     Eigenvalues --  3448.356639943.43207**********
           X            0.83412   0.17238   0.52395
           Y           -0.31392  -0.63270   0.70792
           Z           -0.45353   0.75497   0.47363
 This molecule is an asymmetric top.
 Rotational symmetry number  1.
 Warning -- assumption of classical behavior for rotation
           may cause significant error
 Rotational temperatures (Kelvin)      0.02512     0.00871     0.00653
 Rotational constants (GHZ):           0.52336     0.18150     0.13599
 Zero-point vibrational energy     422328.5 (Joules/Mol)
                                  100.93894 (Kcal/Mol)
 Warning -- explicit consideration of  23 degrees of freedom as
           vibrations may cause significant error
 Vibrational temperatures:     48.00    79.08   119.95   155.80   172.90
          (Kelvin)            181.31   190.39   193.31   274.96   283.85
                              301.09   305.61   458.95   461.96   475.16
                              543.07   562.50   578.50   630.02   661.13
                              671.30   744.74   765.14   910.74   922.49
                              962.94   982.97  1032.08  1134.36  1177.23
                             1294.57  1309.65  1326.02  1391.60  1439.03
                             1476.22  1476.28  1507.65  1579.61  1651.86
                             1674.83  1732.18  1741.36  1920.24  1924.83
                             1933.21  1958.01  2019.63  2051.48  2054.87
                             2090.77  2110.60  2123.83  2141.73  2141.77
                             2163.48  2173.55  2232.60  4219.69  4220.17
                             4272.53  4278.26  4429.36  4430.07  4556.57
                             4559.25

 Zero-point correction=                           0.160856 (Hartree/Particle)
 Thermal correction to Energy=                    0.176467
 Thermal correction to Enthalpy=                  0.177411
 Thermal correction to Gibbs Free Energy=         0.115898
 Sum of electronic and zero-point Energies=          -5760.835544
 Sum of electronic and thermal Energies=             -5760.819933
 Sum of electronic and thermal Enthalpies=           -5760.818989
 Sum of electronic and thermal Free Energies=        -5760.880502

                     E (Thermal)             CV                S
                      KCal/Mol        Cal/Mol-Kelvin    Cal/Mol-Kelvin
 Total                  110.735             56.273            129.465
 Electronic               0.000              0.000              0.000
 Translational            0.889              2.981             43.382
 Rotational               0.889              2.981             34.475
 Vibrational            108.957             50.312             51.607
 Vibration     1          0.594              1.983              5.619
 Vibration     2          0.596              1.976              4.630
 Vibration     3          0.600              1.961              3.810
 Vibration     4          0.606              1.943              3.299
 Vibration     5          0.609              1.932              3.098
 Vibration     6          0.611              1.927              3.006
 Vibration     7          0.612              1.921              2.912
 Vibration     8          0.613              1.919              2.883
 Vibration     9          0.634              1.852              2.217
 Vibration    10          0.637              1.844              2.158
 Vibration    11          0.642              1.827              2.050
 Vibration    12          0.643              1.822              2.023
 Vibration    13          0.705              1.637              1.315
 Vibration    14          0.707              1.633              1.305
 Vibration    15          0.713              1.615              1.259
 Vibration    16          0.748              1.518              1.049
 Vibration    17          0.759              1.490              0.996
 Vibration    18          0.768              1.466              0.955
 Vibration    19          0.798              1.388              0.833
 Vibration    20          0.817              1.340              0.768
 Vibration    21          0.824              1.324              0.747
 Vibration    22          0.873              1.211              0.616
 Vibration    23          0.887              1.180              0.583

 Optimization completed.
    -- Stationary point found.
 Normal termination of Gaussian 16 at Thu Dec 28 04:25:10 2023.
