 Q-Chem 5.4, Q-Chem, Inc., Pleasanton, CA (2021)
 Q-Chem 5.4.0 for Intel X86 EM64T Linux

User input:
--------------------------------------------------------------
$molecule
0 1
C                  1.2357000000      1.5553440000     -0.4861730000
C                 -0.0427700000      1.1750080000      0.1904650000
C                 -0.4497590000     -0.1131900000      0.1868510000
C                  0.3665610000     -1.1467770000     -0.5107930000
C                  1.6804850000     -0.7867660000     -1.1849930000
C                  2.0860580000      0.4975460000     -1.0979280000
O                  1.5686770000      2.7272280000     -0.5339300000
O                 -0.0156190000     -2.3033580000     -0.5339930000
S                  3.6447950000      1.0840820000     -1.8835780000
C                  4.4881540000      2.0895430000     -0.6460180000
C                  4.4477480000      3.4768740000     -0.7479120000
C                  5.2279000000      1.4447150000      0.3434010000
C                  5.9280870000      2.2163070000      1.2680860000
C                  5.1645270000      4.2356190000      0.1733220000
C                  5.8969060000      3.6078190000      1.1812080000
O                  3.2741750000      1.9302970000     -3.0187770000
O                  4.4852000000     -0.1020210000     -2.0885880000
H                  3.8638440000      3.9397380000     -1.5316480000
H                  5.2724750000      0.3632860000      0.3740930000
H                  5.1493130000      5.3170510000      0.1044520000
H                  6.5086200000      1.7306720000      2.0437720000
C                 -1.7029040000     -0.6417780000      0.8252810000
C                 -0.7697470000      2.3278890000      0.8204840000
H                  6.4497800000      4.2048030000      1.8977510000
H                 -2.2396020000      0.1207190000      1.3841210000
H                 -1.4622060000     -1.4679300000      1.4987680000
H                 -2.3710000000     -1.0561460000      0.0648730000
H                 -0.9180050000      3.1226870000      0.0857970000
H                 -0.1669640000      2.7651770000      1.6219390000
H                 -1.7354990000      2.0392920000      1.2275700000
C                  2.3784390000     -1.9282340000     -1.8652350000
H                  1.7269400000     -2.7990740000     -1.8650200000
H                  3.3087340000     -2.1730380000     -1.3481000000
H                  2.6608150000     -1.6690050000     -2.8852460000
$end

$rem
BASIS  =  6-311++G(d,p)
GUI  =  2
JOB_TYPE  =  SP
METHOD  =  B3LYP
SCF_CONVERGENCE  = 8
SOLVENT_METHOD = sm12
$end

$smx
solvent dimethylformamide
charges CM5
$end

--------------------------------------------------------------

             Standard Nuclear Orientation (Angstroms)
    I     Atom           X                Y                Z
 ----------------------------------------------------------------
    1      C       1.2357000000     1.5553440000    -0.4861730000
    2      C      -0.0427700000     1.1750080000     0.1904650000
    3      C      -0.4497590000    -0.1131900000     0.1868510000
    4      C       0.3665610000    -1.1467770000    -0.5107930000
    5      C       1.6804850000    -0.7867660000    -1.1849930000
    6      C       2.0860580000     0.4975460000    -1.0979280000
    7      O       1.5686770000     2.7272280000    -0.5339300000
    8      O      -0.0156190000    -2.3033580000    -0.5339930000
    9      S       3.6447950000     1.0840820000    -1.8835780000
   10      C       4.4881540000     2.0895430000    -0.6460180000
   11      C       4.4477480000     3.4768740000    -0.7479120000
   12      C       5.2279000000     1.4447150000     0.3434010000
   13      C       5.9280870000     2.2163070000     1.2680860000
   14      C       5.1645270000     4.2356190000     0.1733220000
   15      C       5.8969060000     3.6078190000     1.1812080000
   16      O       3.2741750000     1.9302970000    -3.0187770000
   17      O       4.4852000000    -0.1020210000    -2.0885880000
   18      H       3.8638440000     3.9397380000    -1.5316480000
   19      H       5.2724750000     0.3632860000     0.3740930000
   20      H       5.1493130000     5.3170510000     0.1044520000
   21      H       6.5086200000     1.7306720000     2.0437720000
   22      C      -1.7029040000    -0.6417780000     0.8252810000
   23      C      -0.7697470000     2.3278890000     0.8204840000
   24      H       6.4497800000     4.2048030000     1.8977510000
   25      H      -2.2396020000     0.1207190000     1.3841210000
   26      H      -1.4622060000    -1.4679300000     1.4987680000
   27      H      -2.3710000000    -1.0561460000     0.0648730000
   28      H      -0.9180050000     3.1226870000     0.0857970000
   29      H      -0.1669640000     2.7651770000     1.6219390000
   30      H      -1.7354990000     2.0392920000     1.2275700000
   31      C       2.3784390000    -1.9282340000    -1.8652350000
   32      H       1.7269400000    -2.7990740000    -1.8650200000
   33      H       3.3087340000    -2.1730380000    -1.3481000000
   34      H       2.6608150000    -1.6690050000    -2.8852460000
 ----------------------------------------------------------------

   16   -1279.2837430949      2.74e-09  Convergence criterion met
 Total energy in the final basis set =    -1279.3090078000

                    Orbital Energies (a.u.)
 --------------------------------------------------------------

 Alpha MOs
 -- Occupied --
-89.0631 -19.1454 -19.1405 -19.1271 -19.1247 -10.2918 -10.2902 -10.2429
-10.2388 -10.2201 -10.2176 -10.2160 -10.2016 -10.1984 -10.1940 -10.1925
-10.1914 -10.1750 -10.1724 -10.1722  -8.1268  -6.0893  -6.0887  -6.0880
 -1.1224  -1.0792  -1.0758  -1.0186  -0.8830  -0.8775  -0.8356  -0.7887
 -0.7699  -0.7547  -0.7479  -0.7134  -0.6739  -0.6652  -0.6289  -0.6209
 -0.5890  -0.5842  -0.5527  -0.5455  -0.5130  -0.4907  -0.4836  -0.4807
 -0.4724  -0.4659  -0.4604  -0.4572  -0.4444  -0.4401  -0.4369  -0.4292
 -0.4284  -0.4128  -0.4061  -0.3984  -0.3952  -0.3948  -0.3894  -0.3846
 -0.3769  -0.3672  -0.3502  -0.3408  -0.3233  -0.3134  -0.3094  -0.2984
 -0.2860  -0.2775  -0.2759  -0.2698

          Ground-State Mulliken Net Atomic Charges

     Atom                 Charge (a.u.)
  ----------------------------------------
      1 C                    -1.139838
      2 C                     0.660607
      3 C                     1.215157
      4 C                    -1.546465
      5 C                     0.561465
      6 C                    -0.588808
      7 O                    -0.216787
      8 O                    -0.233628
      9 S                    -0.510283
     10 C                    -0.468895
     11 C                    -0.891833
     12 C                     0.352712
     13 C                    -0.077502
     14 C                    -0.074915
     15 C                     0.240118
     16 O                    -0.207077
     17 O                    -0.102247
     18 H                     0.208666
     19 H                     0.283000
     20 H                     0.297232
     21 H                     0.304733
     22 C                     0.229725
     23 C                     0.075276
     24 H                     0.307680
     25 H                     0.220899
     26 H                     0.187852
     27 H                     0.186805
     28 H                     0.185517
     29 H                     0.186862
     30 H                     0.226011
     31 C                    -0.469090
     32 H                     0.189297
     33 H                     0.222785
     34 H                     0.184970
  ----------------------------------------
  Sum of atomic charges =     0.000000

                    Cartesian Multipole Moments
 -----------------------------------------------------------------
    Charge (ESU x 10^10)
                 0.0000
    Dipole Moment (Debye)
         X      -2.0208      Y       1.2814      Z       5.9900
       Tot       6.4503
    Quadrupole Moments (Debye-Ang)
        XX    -119.7934     XY       4.0551     YY    -122.5221
        XZ      23.3050     YZ      10.3102     ZZ    -134.5941

 Total job time:  1291.35s(wall), 8058.01s(cpu)
        *  Thank you very much for using Q-Chem.  Have a nice day.  *
