 Q-Chem 5.4, Q-Chem, Inc., Pleasanton, CA (2021)
 Q-Chem 5.4.0 for Intel X86 EM64T Linux

User input:
--------------------------------------------------------------
$molecule
0 1
C                 -1.8007020000      1.1262530000      0.6408300000
C                 -1.1602690000     -0.0979820000     -0.0607830000
C                 -1.7000620000     -1.3719490000      0.6151580000
C                 -1.5800560000     -0.1307920000     -1.5520380000
C                  0.3659180000     -0.0134330000      0.0445360000
C                  1.1204140000     -0.9486660000      0.6567950000
C                  2.5949090000     -0.8852390000      0.7690960000
O                  3.2219540000     -1.7665400000      1.3374960000
C                  3.2800160000      0.2815990000      0.1692720000
C                  2.5676230000      1.2303100000     -0.4465390000
C                  1.0855580000      1.1664750000     -0.5596530000
O                  0.5017250000      2.0697430000     -1.1369960000
H                 -2.8901760000      1.0414170000      0.5933590000
H                 -1.5147210000      1.1640220000      1.6961600000
H                 -1.5089800000      2.0614740000      0.1656730000
H                 -2.7881280000     -1.3937680000      0.5182820000
H                 -1.4647470000     -1.4023280000      1.6826620000
H                 -1.3104900000     -2.2812520000      0.1490560000
H                 -1.1352520000     -0.9898420000     -2.0630270000
H                 -2.6673550000     -0.2287220000     -1.6196410000
H                 -1.2847880000      0.7779800000     -2.0740000000
H                  0.6866760000     -1.8273440000      1.1166610000
H                  4.3600710000      0.3144760000      0.2594320000
H                  3.0208630000      2.1041070000     -0.9017880000
$end

$rem
BASIS  =  6-311++G(d,p)
GUI  =  2
JOB_TYPE  =  SP
METHOD  =  B3LYP
SCF_CONVERGENCE  = 8
SOLVENT_METHOD = sm12
$end

$smx
solvent dimethylformamide
charges CM5
$end

--------------------------------------------------------------

             Standard Nuclear Orientation (Angstroms)
    I     Atom           X                Y                Z
 ----------------------------------------------------------------
    1      C      -1.8007020000     1.1262530000     0.6408300000
    2      C      -1.1602690000    -0.0979820000    -0.0607830000
    3      C      -1.7000620000    -1.3719490000     0.6151580000
    4      C      -1.5800560000    -0.1307920000    -1.5520380000
    5      C       0.3659180000    -0.0134330000     0.0445360000
    6      C       1.1204140000    -0.9486660000     0.6567950000
    7      C       2.5949090000    -0.8852390000     0.7690960000
    8      O       3.2219540000    -1.7665400000     1.3374960000
    9      C       3.2800160000     0.2815990000     0.1692720000
   10      C       2.5676230000     1.2303100000    -0.4465390000
   11      C       1.0855580000     1.1664750000    -0.5596530000
   12      O       0.5017250000     2.0697430000    -1.1369960000
   13      H      -2.8901760000     1.0414170000     0.5933590000
   14      H      -1.5147210000     1.1640220000     1.6961600000
   15      H      -1.5089800000     2.0614740000     0.1656730000
   16      H      -2.7881280000    -1.3937680000     0.5182820000
   17      H      -1.4647470000    -1.4023280000     1.6826620000
   18      H      -1.3104900000    -2.2812520000     0.1490560000
   19      H      -1.1352520000    -0.9898420000    -2.0630270000
   20      H      -2.6673550000    -0.2287220000    -1.6196410000
   21      H      -1.2847880000     0.7779800000    -2.0740000000
   22      H       0.6866760000    -1.8273440000     1.1166610000
   23      H       4.3600710000     0.3144760000     0.2594320000
   24      H       3.0208630000     2.1041070000    -0.9017880000
 ----------------------------------------------------------------

   14    -538.8600909361      9.29e-09  Convergence criterion met
 Total energy in the final basis set =     -538.8727607616

                    Orbital Energies (a.u.)
 --------------------------------------------------------------

 Alpha MOs
 -- Occupied --
-19.1391 -19.1360 -10.2858 -10.2808 -10.2179 -10.2089 -10.2074 -10.2038
-10.2022 -10.1614 -10.1611 -10.1611  -1.0710  -1.0651  -0.8683  -0.8303
 -0.7747  -0.7064  -0.6912  -0.6908  -0.6415  -0.6080  -0.5543  -0.5218
 -0.5055  -0.4801  -0.4706  -0.4549  -0.4437  -0.4411  -0.4405  -0.4263
 -0.4213  -0.4002  -0.3896  -0.3833  -0.3701  -0.3591  -0.3442  -0.3388
 -0.3086  -0.2915  -0.2841  -0.2728

          Ground-State Mulliken Net Atomic Charges

     Atom                 Charge (a.u.)
  ----------------------------------------
      1 C                    -0.732578
      2 C                     0.456146
      3 C                    -0.083957
      4 C                    -0.732822
      5 C                     1.245147
      6 C                    -0.317667
      7 C                    -1.196738
      8 O                    -0.330290
      9 C                     0.580365
     10 C                     0.591802
     11 C                    -1.525858
     12 O                    -0.263214
     13 H                     0.177876
     14 H                     0.147152
     15 H                     0.109428
     16 H                     0.195607
     17 H                     0.156955
     18 H                     0.157002
     19 H                     0.147377
     20 H                     0.178015
     21 H                     0.109269
     22 H                     0.287730
     23 H                     0.319444
     24 H                     0.323810
  ----------------------------------------
  Sum of atomic charges =     0.000000

                    Cartesian Multipole Moments
 -----------------------------------------------------------------
    Charge (ESU x 10^10)
                 0.0000
    Dipole Moment (Debye)
         X      -1.0358      Y       0.3878      Z      -0.3248
       Tot       1.1527
    Quadrupole Moments (Debye-Ang)
        XX     -71.2759     XY      11.0018     YY     -80.5168
        XZ      -6.1676     YZ       5.6274     ZZ     -76.4935

 Total job time:  333.92s(wall), 2431.27s(cpu)
        *  Thank you very much for using Q-Chem.  Have a nice day.  *
