 Q-Chem 5.4, Q-Chem, Inc., Pleasanton, CA (2021)
 Q-Chem 5.4.0 for Intel X86 EM64T Linux

User input:
--------------------------------------------------------------
$molecule
-1 2
O                 -4.3374280000      0.9658390000     -1.5542180000
C                 -3.1686540000      0.5578080000     -0.9489290000
C                 -1.9209880000      0.9749960000     -1.3791290000
C                 -0.7462960000      0.5400210000     -0.7392320000
C                  0.5568870000      1.0020590000     -1.2216790000
O                  0.6610350000      1.7820500000     -2.1986880000
C                  1.7293320000      0.5004160000     -0.4980780000
C                  3.0174280000      0.9042400000     -0.9084710000
C                  4.1510250000      0.4580920000     -0.2577660000
C                  4.0323470000     -0.4208520000      0.8426510000
C                  2.7852620000     -0.8321040000      1.2655670000
C                  1.6109960000     -0.3880950000      0.6144490000
C                  0.3146990000     -0.8341200000      1.0775650000
O                  0.1842130000     -1.6338360000      2.0768180000
C                 -0.8450660000     -0.3442650000      0.3694170000
C                 -2.1351550000     -0.7567530000      0.7903470000
O                 -2.3009350000     -1.5987460000      1.8403540000
C                 -3.2847620000     -0.3166140000      0.1458550000
O                 -4.5151550000     -0.7377240000      0.5823150000
H                 -4.0980900000      1.5538640000     -2.2777370000
H                 -1.8177730000      1.6500710000     -2.2232950000
H                  3.0800180000      1.5785860000     -1.7548800000
H                  5.1330780000      0.7811730000     -0.5898070000
H                  4.9235330000     -0.7717660000      1.3544120000
H                  2.6684160000     -1.5055010000      2.1066640000
H                 -1.3430330000     -1.7871120000      2.1521120000
H                 -4.3349350000     -1.3217280000      1.3333850000
$end

$rem
BASIS  =  6-311++G(d,p)
GUI  =  2
JOB_TYPE  =  SP
METHOD  =  B3LYP
SCF_CONVERGENCE  = 8
SOLVENT_METHOD = sm12
$end

$smx
solvent dimethylformamide
charges CM5
$end

--------------------------------------------------------------

             Standard Nuclear Orientation (Angstroms)
    I     Atom           X                Y                Z
 ----------------------------------------------------------------
    1      O      -4.3374280000     0.9658390000    -1.5542180000
    2      C      -3.1686540000     0.5578080000    -0.9489290000
    3      C      -1.9209880000     0.9749960000    -1.3791290000
    4      C      -0.7462960000     0.5400210000    -0.7392320000
    5      C       0.5568870000     1.0020590000    -1.2216790000
    6      O       0.6610350000     1.7820500000    -2.1986880000
    7      C       1.7293320000     0.5004160000    -0.4980780000
    8      C       3.0174280000     0.9042400000    -0.9084710000
    9      C       4.1510250000     0.4580920000    -0.2577660000
   10      C       4.0323470000    -0.4208520000     0.8426510000
   11      C       2.7852620000    -0.8321040000     1.2655670000
   12      C       1.6109960000    -0.3880950000     0.6144490000
   13      C       0.3146990000    -0.8341200000     1.0775650000
   14      O       0.1842130000    -1.6338360000     2.0768180000
   15      C      -0.8450660000    -0.3442650000     0.3694170000
   16      C      -2.1351550000    -0.7567530000     0.7903470000
   17      O      -2.3009350000    -1.5987460000     1.8403540000
   18      C      -3.2847620000    -0.3166140000     0.1458550000
   19      O      -4.5151550000    -0.7377240000     0.5823150000
   20      H      -4.0980900000     1.5538640000    -2.2777370000
   21      H      -1.8177730000     1.6500710000    -2.2232950000
   22      H       3.0800180000     1.5785860000    -1.7548800000
   23      H       5.1330780000     0.7811730000    -0.5898070000
   24      H       4.9235330000    -0.7717660000     1.3544120000
   25      H       2.6684160000    -1.5055010000     2.1066640000
   26      H      -1.3430330000    -1.7871120000     2.1521120000
   27      H      -4.3349350000    -1.3217280000     1.3333850000
 ----------------------------------------------------------------

   18    -914.7795422438      6.51e-09  Convergence criterion met
 Total energy in the final basis set =     -914.8710057670

                    Orbital Energies (a.u.)
 --------------------------------------------------------------

 Alpha MOs
 -- Occupied --
-19.1631 -19.1580 -19.1403 -19.0935 -19.0792 -10.2453 -10.2396 -10.2355
-10.2342 -10.2299 -10.1825 -10.1822 -10.1820 -10.1816 -10.1809 -10.1807
-10.1802 -10.1792 -10.1740  -1.0832  -1.0675  -1.0488  -1.0068  -1.0049
 -0.8688  -0.8556  -0.7924  -0.7607  -0.7491  -0.7460  -0.6766  -0.6634
 -0.6355  -0.6145  -0.5778  -0.5688  -0.5546  -0.5340  -0.5108  -0.5006
 -0.4877  -0.4693  -0.4541  -0.4533  -0.4363  -0.4329  -0.4255  -0.4216
 -0.4215  -0.4083  -0.4008  -0.3842  -0.3824  -0.3806  -0.3684  -0.3680
 -0.3604  -0.3535  -0.3449  -0.3147  -0.2710  -0.2659  -0.2624  -0.2433
 -0.2366  -0.2241  -0.1470

 Beta MOs
 -- Occupied --
-19.1629 -19.1578 -19.1400 -19.0884 -19.0737 -10.2451 -10.2392 -10.2338
-10.2329 -10.2286 -10.1821 -10.1815 -10.1812 -10.1812 -10.1807 -10.1800
-10.1798 -10.1793 -10.1734  -1.0827  -1.0669  -1.0475  -0.9982  -0.9955
 -0.8661  -0.8545  -0.7887  -0.7581  -0.7471  -0.7445  -0.6697  -0.6620
 -0.6332  -0.6129  -0.5763  -0.5674  -0.5540  -0.5319  -0.5095  -0.4989
 -0.4865  -0.4677  -0.4516  -0.4501  -0.4351  -0.4323  -0.4230  -0.4191
 -0.4110  -0.4048  -0.3953  -0.3834  -0.3816  -0.3675  -0.3671  -0.3601
 -0.3590  -0.3456  -0.3433  -0.3041  -0.2588  -0.2581  -0.2544  -0.2382
 -0.2307  -0.2166

          Ground-State Mulliken Net Atomic Charges

     Atom                 Charge (a.u.)    Spin (a.u.)
  --------------------------------------------------------
      1 O                    -0.181694       0.004574
      2 C                     0.972879       0.007902
      3 C                     0.563842       0.061676
      4 C                    -0.210446       0.046517
      5 C                    -1.987780       0.062986
      6 O                    -0.303143       0.206280
      7 C                    -1.274459       0.062638
      8 C                    -0.024864       0.011066
      9 C                     0.937566       0.065374
     10 C                     0.857732       0.028573
     11 C                     0.158775       0.049520
     12 C                    -0.663937       0.017327
     13 C                    -1.467690       0.143882
     14 O                    -0.343142       0.187422
     15 C                    -0.253411      -0.034284
     16 C                     0.165375       0.049591
     17 O                    -0.389888       0.009991
     18 C                     0.404480       0.032955
     19 O                    -0.241441       0.005174
     20 H                     0.359391      -0.000294
     21 H                     0.174292      -0.005248
     22 H                     0.150508      -0.000495
     23 H                     0.345092      -0.004773
     24 H                     0.352085      -0.002547
     25 H                     0.182424      -0.001462
     26 H                     0.394185      -0.004148
     27 H                     0.323268      -0.000196
  --------------------------------------------------------
  Sum of atomic charges =    -1.000000

                    Cartesian Multipole Moments
 -----------------------------------------------------------------
    Charge (ESU x 10^10)
                -4.8032
    Dipole Moment (Debye)
         X       1.6957      Y       0.2086      Z      -0.1320
       Tot       1.7136
    Quadrupole Moments (Debye-Ang)
        XX    -137.4037     XY      -5.5613     YY    -122.8297
        XZ       5.3446     YZ       8.3797     ZZ    -126.0077

 Total job time:  730.39s(wall), 5648.72s(cpu)
        *  Thank you very much for using Q-Chem.  Have a nice day.  *
