 Gaussian 16, Revision A.03,
 Gaussian 16:  ES64L-G16RevA.03 25-Dec-2016

 ----------------------------------------------------------------------
 #P UB3LYP/6-311++G(d,p) nosym opt freq SCRF=(PCM,Solvent=n,n-DiMethylF
 ormamide)
 ----------------------------------------------------------------------

 -------
 Reduced
 -------
 Symbolic Z-matrix:
 Charge = -2 Multiplicity = 1

 SCF Done:  E(UB3LYP) =  -649.854881425     A.U. after   17 cycles
 SCF Done:  E(UB3LYP) =  -649.860242027     A.U. after   13 cycles
 SCF Done:  E(UB3LYP) =  -649.861726220     A.U. after   14 cycles
 SCF Done:  E(UB3LYP) =  -649.862005043     A.U. after   13 cycles
 SCF Done:  E(UB3LYP) =  -649.862199969     A.U. after   13 cycles
 SCF Done:  E(UB3LYP) =  -649.862296228     A.U. after   13 cycles
 SCF Done:  E(UB3LYP) =  -649.862332369     A.U. after   12 cycles
 SCF Done:  E(UB3LYP) =  -649.862336178     A.U. after   11 cycles
 SCF Done:  E(UB3LYP) =  -649.862340282     A.U. after   11 cycles
 SCF Done:  E(UB3LYP) =  -649.862343280     A.U. after   11 cycles
 SCF Done:  E(UB3LYP) =  -649.862348356     A.U. after   11 cycles
 SCF Done:  E(UB3LYP) =  -649.862350715     A.U. after   11 cycles
 SCF Done:  E(UB3LYP) =  -649.862352411     A.U. after   10 cycles
 SCF Done:  E(UB3LYP) =  -649.862352884     A.U. after   10 cycles
 SCF Done:  E(UB3LYP) =  -649.862352918     A.U. after    9 cycles
 Optimization completed.
    -- Stationary point found.
 Normal termination of Gaussian 16 at Sat Feb 10 13:30:23 2024.

 ----------------------------------------------------------------------
 #P Geom=AllCheck Guess=TCheck SCRF=Check GenChk UB3LYP/6-311++G(d,p) F
 req
 ----------------------------------------------------------------------

 Structure from the checkpoint file:  "100-an.chk"
 -------
 Reduced
 -------
 Charge = -2 Multiplicity = 1

                          Input orientation:
 ---------------------------------------------------------------------
 Center     Atomic      Atomic             Coordinates (Angstroms)
 Number     Number       Type             X           Y           Z
 ---------------------------------------------------------------------
      1          6           0        2.321881    3.556832    2.768917
      2          6           0        3.333515    3.598890    1.775923
      3          6           0        3.325606    2.787664    0.631222
      4          6           0        2.270428    1.855113    0.393022
      5          6           0        1.258800    1.813048    1.386021
      6          6           0        1.266708    2.624276    2.530721
      7          8           0        2.326344    4.314883    3.857202
      8          8           0        2.265975    1.097052   -0.695256
      9          7           0        0.269184    2.530186    3.548836
     10          6           0       -1.135716    2.513285    3.138434
     11          6           0       -2.063878    2.536890    4.350264
     12          7           0        4.323133    2.881750   -0.386889
     13          6           0        5.728031    2.898679    0.023515
     14          6           0        6.656195    2.875024   -1.188313
     15          1           0        4.144121    4.310531    1.923383
     16          1           0        0.448198    1.101403    1.238564
     17          1           0        0.455889    3.309792    4.179005
     18          1           0       -1.326471    1.606737    2.556955
     19          1           0       -1.373752    3.363155    2.473902
     20          1           0       -1.892029    1.667687    4.991666
     21          1           0       -3.111117    2.529353    4.035270
     22          1           0       -1.903271    3.437506    4.952060
     23          1           0        4.136438    2.102139   -1.017053
     24          1           0        5.966072    2.048843    0.688088
     25          1           0        5.918780    3.805256    0.604951
     26          1           0        6.495597    1.974377   -1.790064
     27          1           0        7.703433    2.882586   -0.873318
     28          1           0        6.484338    3.744194   -1.829758
 ---------------------------------------------------------------------

 SCF Done:  E(UB3LYP) =  -649.862352918     A.U. after    1 cycles

 Alpha  occ. eigenvalues --  -19.00964 -19.00964 -14.27756 -14.27756 -10.17949
 Alpha  occ. eigenvalues --  -10.17949 -10.15703 -10.15701 -10.15129 -10.15129
 Alpha  occ. eigenvalues --  -10.14487 -10.14485 -10.11249 -10.11248  -0.92095
 Alpha  occ. eigenvalues --   -0.91469  -0.87764  -0.87551  -0.76738  -0.73824
 Alpha  occ. eigenvalues --   -0.72011  -0.66919  -0.63431  -0.60891  -0.58994
 Alpha  occ. eigenvalues --   -0.54038  -0.52830  -0.47305  -0.45121  -0.45098
 Alpha  occ. eigenvalues --   -0.44378  -0.43655  -0.41402  -0.38929  -0.38431
 Alpha  occ. eigenvalues --   -0.38226  -0.37186  -0.36279  -0.35570  -0.34588
 Alpha  occ. eigenvalues --   -0.34520  -0.33737  -0.33470  -0.33392  -0.30722
 Alpha  occ. eigenvalues --   -0.29753  -0.26094  -0.24317  -0.19895  -0.19454
 Alpha  occ. eigenvalues --   -0.19152  -0.16698  -0.10605
 Alpha virt. eigenvalues --    0.00045   0.00396   0.01633   0.01985   0.02222
 Alpha virt. eigenvalues --    0.02768   0.03123   0.03368   0.04285   0.04971
 Alpha virt. eigenvalues --    0.05190   0.05970   0.06092   0.06475   0.07102

  Beta  occ. eigenvalues --  -19.00964 -19.00964 -14.27756 -14.27756 -10.17949
  Beta  occ. eigenvalues --  -10.17949 -10.15703 -10.15701 -10.15129 -10.15129
  Beta  occ. eigenvalues --  -10.14487 -10.14485 -10.11249 -10.11248  -0.92095
  Beta  occ. eigenvalues --   -0.91469  -0.87764  -0.87551  -0.76738  -0.73824
  Beta  occ. eigenvalues --   -0.72011  -0.66919  -0.63431  -0.60891  -0.58994
  Beta  occ. eigenvalues --   -0.54038  -0.52830  -0.47305  -0.45121  -0.45098
  Beta  occ. eigenvalues --   -0.44378  -0.43655  -0.41402  -0.38929  -0.38431
  Beta  occ. eigenvalues --   -0.38226  -0.37186  -0.36279  -0.35570  -0.34588
  Beta  occ. eigenvalues --   -0.34520  -0.33737  -0.33470  -0.33392  -0.30722
  Beta  occ. eigenvalues --   -0.29753  -0.26094  -0.24317  -0.19895  -0.19454
  Beta  occ. eigenvalues --   -0.19152  -0.16698  -0.10605
  Beta virt. eigenvalues --    0.00045   0.00396   0.01633   0.01985   0.02222
  Beta virt. eigenvalues --    0.02768   0.03123   0.03368   0.04285   0.04971
  Beta virt. eigenvalues --    0.05190   0.05970   0.06092   0.06475   0.07102

 Mulliken charges and spin densities:
               1          2
     1  C   -0.354271   0.000000
     2  C   -0.000100  -0.000000
     3  C   -0.100570  -0.000000
     4  C   -0.354292   0.000000
     5  C   -0.000113  -0.000000
     6  C   -0.100560   0.000000
     7  O   -0.771744  -0.000000
     8  O   -0.771745  -0.000000
     9  N   -0.117797  -0.000000
    10  C   -0.110271  -0.000000
    11  C   -0.600353   0.000000
    12  N   -0.117795   0.000000
    13  C   -0.110266   0.000000
    14  C   -0.600365  -0.000000
    15  H    0.134606  -0.000000
    16  H    0.134605  -0.000000
    17  H    0.250365  -0.000000
    18  H    0.131888   0.000000
    19  H    0.121830  -0.000000
    20  H    0.135246  -0.000000
    21  H    0.139498  -0.000000
    22  H    0.141685   0.000000
    23  H    0.250367   0.000000
    24  H    0.121831  -0.000000
    25  H    0.131890   0.000000
    26  H    0.141685  -0.000000
    27  H    0.139499  -0.000000
    28  H    0.135246  -0.000000
 Sum of Mulliken charges =  -2.00000  -0.00000

 Dipole moment (field-independent basis, Debye):
    X=            -22.0578    Y=            -25.9946    Z=            -15.1875  Tot=             37.3219
 Quadrupole moment (field-independent basis, Debye-Ang):
   XX=           -142.6426   YY=           -187.4168   ZZ=           -166.0004
   XY=            -63.8971   XZ=            -34.6178   YZ=            -63.7347

  Exact polarizability: 270.062  23.301 205.794 -47.475  31.542 270.112
 Approx polarizability: 266.518  27.186 224.809 -40.241  39.855 286.661

                      1                      2                      3
                      A                      A                      A
 Frequencies --     27.6053                51.8894                57.9926
 Red. masses --      2.9286                 1.8786                 1.7143
 Frc consts  --      0.0013                 0.0030                 0.0034
 IR Inten    --     25.3747                 6.3978                 0.0000

                      4                      5                      6
                      A                      A                      A
 Frequencies --     76.6174                77.4622               127.7142
 Red. masses --      3.6048                 3.8785                 4.3589
 Frc consts  --      0.0125                 0.0137                 0.0419
 IR Inten    --     15.9916                 0.0000                 0.0000

                      7                      8                      9
                      A                      A                      A
 Frequencies --    144.3265               223.1637               251.0740
 Red. masses --      9.1732                 3.5640                 1.1622
 Frc consts  --      0.1126                 0.1046                 0.0432
 IR Inten    --     24.7544                 2.7903                 0.0000

                     10                     11                     12
                      A                      A                      A
 Frequencies --    255.5032               269.0412               294.1247
 Red. masses --      1.2186                 3.9283                 4.5567
 Frc consts  --      0.0469                 0.1675                 0.2323
 IR Inten    --      7.9171                 0.0000                 0.0000

                     13                     14                     15
                      A                      A                      A
 Frequencies --    311.6555               328.8814               333.5970
 Red. masses --      5.3502                 4.2370                 3.5582
 Frc consts  --      0.3062                 0.2700                 0.2333
 IR Inten    --     15.6808                 0.0000                18.4948

                     16                     17                     18
                      A                      A                      A
 Frequencies --    404.6857               426.0396               473.9734
 Red. masses --      7.0590                 3.4555                 4.2670
 Frc consts  --      0.6811                 0.3695                 0.5648
 IR Inten    --      0.0000                14.5467                14.2372

                     19                     20                     21
                      A                      A                      A
 Frequencies --    485.3438               585.8558               649.1110
 Red. masses --     11.0342                 5.3622                 4.2039
 Frc consts  --      1.5314                 1.0844                 1.0436
 IR Inten    --      0.0000                 0.0000                 0.0000

                     22                     23                     24
                      A                      A                      A
 Frequencies --    692.5051               706.8206               729.0564
 Red. masses --      5.0455                 2.8808                 7.9562
 Frc consts  --      1.4256                 0.8480                 2.4916
 IR Inten    --     45.0619                 0.0000                62.7458

                     25                     26                     27
                      A                      A                      A
 Frequencies --    756.0252               803.6206               805.2950
 Red. masses --      3.6298                 1.7648                 1.1846
 Frc consts  --      1.2224                 0.6715                 0.4526
 IR Inten    --      0.0000                 0.0000               157.7504

                     28                     29                     30
                      A                      A                      A
 Frequencies --    809.4304               822.3471               828.6736
 Red. masses --      1.1396                 1.5098                 1.7529
 Frc consts  --      0.4399                 0.6016                 0.7092
 IR Inten    --      0.0000                75.0559               415.1106

                     31                     32                     33
                      A                      A                      A
 Frequencies --    853.3006               927.8772               933.5807
 Red. masses --      1.8157                 1.5942                 1.9180
 Frc consts  --      0.7789                 0.8087                 0.9849
 IR Inten    --      0.0000                84.1571                32.8959

                     34                     35                     36
                      A                      A                      A
 Frequencies --    936.8398              1051.5371              1060.8087
 Red. masses --      1.3689                 3.0488                 2.6515
 Frc consts  --      0.7079                 1.9862                 1.7580
 IR Inten    --      0.0000                 0.0000                41.3724

                     37                     38                     39
                      A                      A                      A
 Frequencies --   1119.3491              1126.1839              1144.6657
 Red. masses --      2.4792                 2.1771                 1.6919
 Frc consts  --      1.8302                 1.6269                 1.3061
 IR Inten    --    322.1705                 0.0000                20.0198

                     40                     41                     42
                      A                      A                      A
 Frequencies --   1149.0917              1161.8587              1166.0081
 Red. masses --      2.6417                 3.6407                 2.2369
 Frc consts  --      2.0552                 2.8956                 1.7919
 IR Inten    --      0.0000              1133.4199                 0.0000

                     43                     44                     45
                      A                      A                      A
 Frequencies --   1208.2419              1239.9223              1243.1959
 Red. masses --      4.6988                 2.4132                 1.3788
 Frc consts  --      4.0415                 2.1859                 1.2555
 IR Inten    --    226.2258               264.5653                 0.0000

                     46                     47                     48
                      A                      A                      A
 Frequencies --   1287.5900              1289.4961              1341.0801
 Red. masses --      1.1940                 1.1777                 7.3885
 Frc consts  --      1.1663                 1.1538                 7.8292
 IR Inten    --      0.0000                77.7305                 0.0000

                     49                     50                     51
                      A                      A                      A
 Frequencies --   1364.9865              1375.1016              1397.1125
 Red. masses --      1.3481                 1.4269                 2.3884
 Frc consts  --      1.4799                 1.5897                 2.7467
 IR Inten    --      0.0000                95.3147               501.9384

                     52                     53                     54
                      A                      A                      A
 Frequencies --   1401.3742              1404.8865              1434.1651
 Red. masses --      1.2761                 1.6928                 1.5970
 Frc consts  --      1.4765                 1.9686                 1.9353
 IR Inten    --      0.0000               161.8514                 0.0000

                     55                     56                     57
                      A                      A                      A
 Frequencies --   1474.5772              1479.8546              1483.7468
 Red. masses --      1.1185                 1.0550                 1.1660
 Frc consts  --      1.4329                 1.3612                 1.5124
 IR Inten    --    181.4696                 0.0000               200.0756

                     58                     59                     60
                      A                      A                      A
 Frequencies --   1485.9979              1487.1306              1497.5146
 Red. masses --      1.0498                 2.3263                 1.3431
 Frc consts  --      1.3658                 3.0312                 1.7745
 IR Inten    --      0.0000               471.9075               210.7914

                     61                     62                     63
                      A                      A                      A
 Frequencies --   1512.7927              1513.3670              1550.4160
 Red. masses --      1.0956                 1.1006                 3.1945
 Frc consts  --      1.4772                 1.4851                 4.5243
 IR Inten    --      0.0000                 2.3120                 0.0000

                     64                     65                     66
                      A                      A                      A
 Frequencies --   1616.8151              2904.7543              2905.9098
 Red. masses --      5.9123                 1.0746                 1.0746
 Frc consts  --      9.1061                 5.3423                 5.3464
 IR Inten    --      0.0000               435.4443                 0.0001

                     67                     68                     69
                      A                      A                      A
 Frequencies --   3016.4202              3016.4854              3038.8835
 Red. masses --      1.0359                 1.0359                 1.0848
 Frc consts  --      5.5533                 5.5535                 5.9026
 IR Inten    --    107.5020                 0.0000                51.6209

                     70                     71                     72
                      A                      A                      A
 Frequencies --   3038.8968              3076.5716              3076.5766
 Red. masses --      1.0849                 1.1008                 1.1008
 Frc consts  --      5.9028                 6.1389                 6.1389
 IR Inten    --      1.4843                 0.0916               165.3032

                     73                     74                     75
                      A                      A                      A
 Frequencies --   3085.9139              3085.9203              3113.9895
 Red. masses --      1.1017                 1.1016                 1.0867
 Frc consts  --      6.1810                 6.1811                 6.2084
 IR Inten    --    128.5888                 0.2909               206.9450

                     76                     77                     78
                      A                      A                      A
 Frequencies --   3117.4977              3446.7532              3447.1653
 Red. masses --      1.0873                 1.0731                 1.0731
 Frc consts  --      6.2259                 7.5116                 7.5128
 IR Inten    --      0.0000               142.7946                 0.0050

 - Thermochemistry -
 -------------------
 Temperature   298.150 Kelvin.  Pressure   1.00000 Atm.
 Atom     1 has atomic number  6 and mass  12.00000

 Molecular mass:   194.10553 amu.
 Principal axes and moments of inertia in atomic units:
                           1         2         3
     Eigenvalues --  1143.052035648.739126675.80708
           X            0.81506   0.44495  -0.37108
           Y           -0.00062   0.64115   0.76742
           Z           -0.57938   0.62526  -0.52285
 This molecule is an asymmetric top.
 Rotational symmetry number  1.
 Warning -- assumption of classical behavior for rotation
           may cause significant error
 Rotational temperatures (Kelvin)      0.07577     0.01533     0.01297
 Rotational constants (GHZ):           1.57888     0.31949     0.27034
 Zero-point vibrational energy     597544.5 (Joules/Mol)
                                  142.81656 (Kcal/Mol)
 Warning -- explicit consideration of  20 degrees of freedom as
           vibrations may cause significant error
 Vibrational temperatures:     39.72    74.66    83.44   110.24   111.45
          (Kelvin)            183.75   207.65   321.08   361.24   367.61
                              387.09   423.18   448.40   473.19   479.97
                              582.25   612.98   681.94   698.30   842.92
                              933.93   996.36  1016.96  1048.95  1087.75
                             1156.23  1158.64  1164.59  1183.17  1192.28
                             1227.71  1335.01  1343.21  1347.90  1512.93
                             1526.27  1610.49  1620.33  1646.92  1653.29
                             1671.66  1677.63  1738.39  1783.97  1788.68
                             1852.55  1855.30  1929.52  1963.91  1978.46
                             2010.13  2016.26  2021.32  2063.44  2121.59
                             2129.18  2134.78  2138.02  2139.65  2154.59
                             2176.57  2177.40  2230.70  2326.24  4179.29
                             4180.96  4339.96  4340.05  4372.28  4372.29
                             4426.50  4426.51  4439.94  4439.95  4480.34
                             4485.38  4959.11  4959.70

 Zero-point correction=                           0.227593 (Hartree/Particle)
 Thermal correction to Energy=                    0.242127
 Thermal correction to Enthalpy=                  0.243071
 Thermal correction to Gibbs Free Energy=         0.184809
 Sum of electronic and zero-point Energies=           -649.634760
 Sum of electronic and thermal Energies=              -649.620226
 Sum of electronic and thermal Enthalpies=            -649.619282
 Sum of electronic and thermal Free Energies=         -649.677544

                     E (Thermal)             CV                S
                      KCal/Mol        Cal/Mol-Kelvin    Cal/Mol-Kelvin
 Total                  151.937             53.444            122.623
 Electronic               0.000              0.000              0.000
 Translational            0.889              2.981             41.695
 Rotational               0.889              2.981             32.133
 Vibrational            150.159             47.483             48.795
 Vibration     1          0.593              1.984              5.994
 Vibration     2          0.596              1.977              4.744
 Vibration     3          0.596              1.974              4.524
 Vibration     4          0.599              1.965              3.976
 Vibration     5          0.599              1.964              3.954
 Vibration     6          0.611              1.925              2.980
 Vibration     7          0.616              1.909              2.746
 Vibration     8          0.649              1.806              1.933
 Vibration     9          0.663              1.761              1.723
 Vibration    10          0.666              1.753              1.692
 Vibration    11          0.673              1.730              1.602
 Vibration    12          0.689              1.685              1.450
 Vibration    13          0.700              1.651              1.354
 Vibration    14          0.712              1.618              1.266
 Vibration    15          0.715              1.608              1.243
 Vibration    16          0.770              1.460              0.946
 Vibration    17          0.788              1.414              0.872
 Vibration    18          0.831              1.308              0.727
 Vibration    19          0.841              1.283              0.696
 Vibration    20          0.943              1.062              0.475

 Optimization completed.
    -- Stationary point found.
 Normal termination of Gaussian 16 at Sat Feb 10 14:09:22 2024.
