 Q-Chem 5.4, Q-Chem, Inc., Pleasanton, CA (2021)
 Q-Chem 5.4.0 for Intel X86 EM64T Linux

User input:
--------------------------------------------------------------
$molecule
-1 2
C                 -1.0906900000      1.6008730000      1.0331780000
C                 -2.3720870000      0.9232270000      0.9142270000
C                 -2.6880420000     -0.0504170000      0.0001710000
C                 -1.6635660000     -0.4722540000     -0.9639990000
C                 -0.3770810000      0.1878650000     -0.8675850000
C                 -0.1144410000      1.1511520000      0.0616690000
Br                 1.6387550000      1.9761720000      0.1094700000
C                 -4.0778920000     -0.7100720000     -0.0456520000
C                 -4.7290730000     -0.4598240000     -1.4278050000
C                 -5.0295860000     -0.1534990000      1.0301570000
C                 -3.9401360000     -2.2343390000      0.1887790000
O                 -0.8838500000      2.4850810000      1.9000570000
O                 -1.8536590000     -1.3602700000     -1.8443630000
H                 -3.0974890000      1.2646400000      1.6428450000
H                  0.3736380000     -0.1281600000     -1.5816080000
H                 -4.8646400000      0.6134120000     -1.5975790000
H                 -5.7156470000     -0.9377370000     -1.4738190000
H                 -4.1018410000     -0.8620570000     -2.2228070000
H                 -5.1992650000      0.9203040000      0.9085760000
H                 -4.6471530000     -0.3239300000      2.0407780000
H                 -5.9994370000     -0.6563770000      0.9504300000
H                 -3.2951970000     -2.6792540000     -0.5684240000
H                 -4.9257630000     -2.7146370000      0.1469620000
H                 -3.5090990000     -2.4315490000      1.1758490000
$end
$rem
MAX_SCF_CYCLES=200
BASIS  =  6-311++G(d,p)
GUI  =  2
JOB_TYPE  =  SP
METHOD  =  B3LYP
SOLVENT_METHOD = COSMO
$end
$solvent
dielectric 37.219
opticaldielectric 1.43
$end

--------------------------------------------------------------

             Standard Nuclear Orientation (Angstroms)
    I     Atom           X                Y                Z
 ----------------------------------------------------------------
    1      C       0.7925829461    -1.2374287625    -0.0012233799
    2      C      -0.6617831336    -1.2251693790    -0.0003707831
    3      C      -1.4591648813    -0.1082580485    -0.0003525388
    4      C      -0.8207894544     1.2144655970     0.0001857580
    5      C       0.6282903368     1.2307155132    -0.0001425994
    6      C       1.3749078892     0.0892354571    -0.0004926198
    7      Br      3.3089800994     0.2157399137     0.0001844216
    8      C      -2.9955938333    -0.1994348799     0.0002390488
    9      C      -3.5591761604     0.4953770864     1.2638129341
   10      C      -3.4990552902    -1.6552461744     0.0001178232
   11      C      -3.5601459431     0.4954682312    -1.2629771156
   12      O       1.4486900838    -2.3077590884     0.0002567875
   13      O      -1.4648646455     2.3030036571    -0.0005741496
   14      H      -1.0906277950    -2.2200298162    -0.0001365032
   15      H       1.0923285152     2.2094637526     0.0001962694
   16      H      -3.1961199726    -0.0037277990     2.1683137092
   17      H      -4.6552709265     0.4462088900     1.2660786281
   18      H      -3.2501582458     1.5398070875     1.2940362615
   19      H      -3.1622732768    -2.2033929890     0.8848430521
   20      H      -3.1639923399    -2.2027090106    -0.8857003258
   21      H      -4.5944256551    -1.6592751359     0.0011998604
   22      H      -3.2523543159     1.5402879902    -1.2924396298
   23      H      -4.6561904453     0.4447124451    -1.2653672647
   24      H      -3.1962573838    -0.0025467867    -2.1677190803
 ----------------------------------------------------------------

   10   -3112.4877179838      7.01e-06  Convergence criterion met
 Total energy in the final basis set =    -3112.4877179838
    4   -3112.5674991605      8.45e-06  Convergence criterion met
 Total energy in the final basis set =    -3112.5674991605

                    Orbital Energies (a.u.)
 --------------------------------------------------------------

 Alpha MOs
 -- Occupied --
******** -62.4781 -56.2984 -56.2949 -56.2947 -19.0889 -19.0840 -10.2345
-10.2295 -10.2197 -10.1832 -10.1780 -10.1739 -10.1658 -10.1493 -10.1455
-10.1455  -8.6867  -6.5175  -6.5058  -6.5051  -2.6286  -2.6253  -2.6248
 -2.6154  -2.6154  -1.0142  -1.0068  -0.8468  -0.8194  -0.7789  -0.7263
 -0.6872  -0.6762  -0.6751  -0.6059  -0.5782  -0.5276  -0.4898  -0.4723
 -0.4457  -0.4389  -0.4333  -0.4225  -0.4206  -0.4146  -0.3957  -0.3873
 -0.3702  -0.3698  -0.3667  -0.3548  -0.3353  -0.3274  -0.3235  -0.3202
 -0.2896  -0.2800  -0.2546  -0.2496  -0.2426  -0.1704

 Beta MOs
 -- Occupied --
******** -62.4781 -56.2985 -56.2949 -56.2947 -19.0821 -19.0769 -10.2331
-10.2281 -10.2183 -10.1833 -10.1770 -10.1725 -10.1651 -10.1493 -10.1454
-10.1454  -8.6867  -6.5176  -6.5057  -6.5051  -2.6286  -2.6253  -2.6248
 -2.6154  -2.6153  -1.0025  -0.9943  -0.8418  -0.8182  -0.7770  -0.7235
 -0.6810  -0.6749  -0.6723  -0.6021  -0.5746  -0.5249  -0.4877  -0.4694
 -0.4419  -0.4372  -0.4309  -0.4217  -0.4092  -0.4058  -0.3842  -0.3822
 -0.3694  -0.3651  -0.3600  -0.3460  -0.3338  -0.3255  -0.3197  -0.3142
 -0.2893  -0.2532  -0.2484  -0.2427  -0.2367

          Ground-State Mulliken Net Atomic Charges

     Atom                 Charge (a.u.)    Spin (a.u.)
  --------------------------------------------------------
      1 C                    -0.785726       0.116991
      2 C                    -0.453167       0.019012
      3 C                     1.069469       0.117948
      4 C                    -0.651400       0.085140
      5 C                    -0.490666       0.092840
      6 C                     0.905031       0.105061
      7 Br                   -0.211632       0.005875
      8 C                     0.597657      -0.032429
      9 C                    -0.694561       0.010578
     10 C                    -0.516254      -0.000510
     11 C                    -0.694292       0.010576
     12 O                    -0.475574       0.235334
     13 O                    -0.461591       0.251476
     14 H                     0.214581      -0.006649
     15 H                     0.236771      -0.009921
     16 H                     0.142282       0.000882
     17 H                     0.157331       0.000071
     18 H                     0.175691      -0.001448
     19 H                     0.140837      -0.000196
     20 H                     0.140945      -0.000197
     21 H                     0.179279       0.000059
     22 H                     0.175512      -0.001446
     23 H                     0.157232       0.000072
     24 H                     0.142244       0.000882
  --------------------------------------------------------
  Sum of atomic charges =    -1.000000

                    Cartesian Multipole Moments
 -----------------------------------------------------------------
    Charge (ESU x 10^10)
                -4.8032
    Dipole Moment (Debye)
         X      -3.4464      Y       0.2366      Z       0.0009
       Tot       3.4545
    Quadrupole Moments (Debye-Ang)
        XX    -111.0429     XY      18.8712     YY    -121.6380
        XZ      -0.0011     YZ       0.0060     ZZ     -95.7140

 Total job time:  56.94s(wall), 427.17s(cpu)
        *  Thank you very much for using Q-Chem.  Have a nice day.  *
