 Q-Chem 5.4, Q-Chem, Inc., Pleasanton, CA (2021)
 Q-Chem 5.4.0 for Intel X86 EM64T Linux

User input:
--------------------------------------------------------------
$molecule
-2 1
C                 -1.5566670000     -1.5435210000     -0.6384990000
C                 -1.1624990000     -0.1329380000     -0.1341440000
C                 -1.5480270000     -0.0055560000      1.3607230000
C                 -1.9975720000      0.8956770000     -0.9217130000
C                  0.3612210000      0.0639030000     -0.2925250000
C                  0.8759080000      1.0912200000     -1.0871790000
C                  2.2624140000      1.3789330000     -1.3154900000
O                  2.6676760000      2.3480720000     -2.0633960000
C                  3.1094670000      0.4650210000     -0.6150860000
C                  2.6178940000     -0.5783450000      0.1917440000
Cl                 3.7635210000     -1.6735150000      1.0282500000
C                  1.2331170000     -0.8547790000      0.4111970000
O                  0.8077130000     -1.8255370000      1.1603360000
Cl                 4.8748680000      0.7092180000     -0.8093640000
H                 -0.9610760000     -2.2872970000     -0.1042840000
H                 -2.6293230000     -1.7351500000     -0.4733000000
H                 -1.3555330000     -1.6280270000     -1.7129610000
H                 -0.9524030000     -0.7153700000      1.9392620000
H                 -2.6207900000     -0.2096870000      1.5091130000
H                 -1.3405760000      1.0104000000      1.7168880000
H                 -3.0663140000      0.6953330000     -0.7624430000
H                 -1.7984110000      0.8416190000     -1.9966060000
H                 -1.7916640000      1.9198970000     -0.5952050000
H                  0.2070570000      1.7704280000     -1.6069090000
$end

$rem
BASIS  =  6-311++G(d,p)
GUI  =  2
JOB_TYPE  =  SP
METHOD  =  B3LYP
SCF_CONVERGENCE  = 8
SOLVENT_METHOD = sm12
$end

$smx
solvent dimethylformamide
charges CM5
$end

--------------------------------------------------------------

             Standard Nuclear Orientation (Angstroms)
    I     Atom           X                Y                Z
 ----------------------------------------------------------------
    1      C      -1.5566670000    -1.5435210000    -0.6384990000
    2      C      -1.1624990000    -0.1329380000    -0.1341440000
    3      C      -1.5480270000    -0.0055560000     1.3607230000
    4      C      -1.9975720000     0.8956770000    -0.9217130000
    5      C       0.3612210000     0.0639030000    -0.2925250000
    6      C       0.8759080000     1.0912200000    -1.0871790000
    7      C       2.2624140000     1.3789330000    -1.3154900000
    8      O       2.6676760000     2.3480720000    -2.0633960000
    9      C       3.1094670000     0.4650210000    -0.6150860000
   10      C       2.6178940000    -0.5783450000     0.1917440000
   11      Cl      3.7635210000    -1.6735150000     1.0282500000
   12      C       1.2331170000    -0.8547790000     0.4111970000
   13      O       0.8077130000    -1.8255370000     1.1603360000
   14      Cl      4.8748680000     0.7092180000    -0.8093640000
   15      H      -0.9610760000    -2.2872970000    -0.1042840000
   16      H      -2.6293230000    -1.7351500000    -0.4733000000
   17      H      -1.3555330000    -1.6280270000    -1.7129610000
   18      H      -0.9524030000    -0.7153700000     1.9392620000
   19      H      -2.6207900000    -0.2096870000     1.5091130000
   20      H      -1.3405760000     1.0104000000     1.7168880000
   21      H      -3.0663140000     0.6953330000    -0.7624430000
   22      H      -1.7984110000     0.8416190000    -1.9966060000
   23      H      -1.7916640000     1.9198970000    -0.5952050000
   24      H       0.2070570000     1.7704280000    -1.6069090000
 ----------------------------------------------------------------

   17   -1458.1003819517      8.20e-09  Convergence criterion met
 Total energy in the final basis set =    -1458.3673426282

                    Orbital Energies (a.u.)
 --------------------------------------------------------------

 Alpha MOs
 -- Occupied --
********-101.5231 -19.0135 -19.0126 -10.1899 -10.1882 -10.1879 -10.1817
-10.1816 -10.1675 -10.1583 -10.1583 -10.1467 -10.1346  -9.4370  -9.4362
 -7.2012  -7.2006  -7.1926  -7.1917  -7.1916  -7.1907  -0.9332  -0.9285
 -0.8478  -0.8227  -0.8076  -0.7663  -0.6923  -0.6861  -0.6832  -0.6530
 -0.5811  -0.5457  -0.5155  -0.4645  -0.4594  -0.4406  -0.4324  -0.4236
 -0.4081  -0.4015  -0.3836  -0.3766  -0.3696  -0.3622  -0.3563  -0.3375
 -0.3367  -0.3290  -0.3242  -0.3215  -0.3069  -0.2913  -0.2867  -0.2688
 -0.2243  -0.2101  -0.1931  -0.1916  -0.1217

          Ground-State Mulliken Net Atomic Charges

     Atom                 Charge (a.u.)
  ----------------------------------------
      1 C                    -0.357330
      2 C                     1.925134
      3 C                    -0.357088
      4 C                     0.526518
      5 C                    -1.571143
      6 C                    -1.623820
      7 C                    -2.150971
      8 O                    -0.441870
      9 C                     0.835510
     10 C                     0.308874
     11 Cl                    0.870393
     12 C                    -1.842307
     13 O                    -0.308040
     14 Cl                    0.817488
     15 H                     0.062530
     16 H                     0.317204
     17 H                     0.048331
     18 H                     0.062705
     19 H                     0.317448
     20 H                     0.048157
     21 H                     0.439711
     22 H                     0.112840
     23 H                     0.113212
     24 H                    -0.153488
  ----------------------------------------
  Sum of atomic charges =    -2.000000

                    Cartesian Multipole Moments
 -----------------------------------------------------------------
    Charge (ESU x 10^10)
                -9.6064
    Dipole Moment (Debye)
         X     -19.2127      Y      -1.6965      Z       3.7208
       Tot      19.6430
    Quadrupole Moments (Debye-Ang)
        XX    -180.4401     XY     -14.0889     YY    -143.5867
        XZ      15.8229     YZ      26.1259     ZZ    -131.3829

 Total job time:  473.47s(wall), 3553.64s(cpu)
        *  Thank you very much for using Q-Chem.  Have a nice day.  *
