 Gaussian 16, Revision A.03,
 Gaussian 16:  ES64L-G16RevA.03 25-Dec-2016

 --------------------------------------
 #P UB3LYP/6-311++G(d,p) nosym opt freq
 --------------------------------------

 -------
 Reduced
 -------
 Symbolic Z-matrix:
 Charge = -2 Multiplicity = 1

 SCF Done:  E(UB3LYP) =  -499.475167429     A.U. after   49 cycles
 SCF Done:  E(UB3LYP) =  -499.503266198     A.U. after   49 cycles
 SCF Done:  E(UB3LYP) =  -499.508713658     A.U. after   35 cycles
 SCF Done:  E(UB3LYP) =  -499.509206328     A.U. after   39 cycles
 SCF Done:  E(UB3LYP) =  -499.509445704     A.U. after   31 cycles
 SCF Done:  E(UB3LYP) =  -499.509539419     A.U. after   25 cycles
 SCF Done:  E(UB3LYP) =  -499.509601987     A.U. after   30 cycles
 SCF Done:  E(UB3LYP) =  -499.509652919     A.U. after   30 cycles
 SCF Done:  E(UB3LYP) =  -499.509787926     A.U. after   35 cycles
 SCF Done:  E(UB3LYP) =  -499.509878632     A.U. after   40 cycles
 SCF Done:  E(UB3LYP) =  -499.509946895     A.U. after   33 cycles
 SCF Done:  E(UB3LYP) =  -499.509951770     A.U. after   31 cycles
 SCF Done:  E(UB3LYP) =  -499.509953555     A.U. after   30 cycles
 SCF Done:  E(UB3LYP) =  -499.509954345     A.U. after   36 cycles
 SCF Done:  E(UB3LYP) =  -499.509955257     A.U. after   29 cycles
 SCF Done:  E(UB3LYP) =  -499.509955298     A.U. after   27 cycles
 SCF Done:  E(UB3LYP) =  -499.509955610     A.U. after   26 cycles
 SCF Done:  E(UB3LYP) =  -499.509955954     A.U. after   28 cycles
 SCF Done:  E(UB3LYP) =  -499.509955993     A.U. after   26 cycles
 Optimization completed.
    -- Stationary point found.
 Normal termination of Gaussian 16 at Sun Dec 17 21:37:55 2023.

 ----------------------------------------------------------------------
 #P Geom=AllCheck Guess=TCheck SCRF=Check GenChk UB3LYP/6-311++G(d,p) F
 req
 ----------------------------------------------------------------------

 Structure from the checkpoint file:  "049-an.chk"
 -------
 Reduced
 -------
 Charge = -2 Multiplicity = 1

                          Input orientation:
 ---------------------------------------------------------------------
 Center     Atomic      Atomic             Coordinates (Angstroms)
 Number     Number       Type             X           Y           Z
 ---------------------------------------------------------------------
      1          6           0        2.983240   -1.098055   -0.154326
      2          6           0        1.650413   -0.407971   -0.003100
      3          6           0        1.576639    0.931549    0.381455
      4          6           0        0.355755    1.663069    0.525629
      5          8           0        0.320040    2.903721    0.920665
      6          6           0       -0.829666    0.899767    0.218516
      7          6           0       -0.771178   -0.452472   -0.165165
      8          6           0       -2.034759   -1.213878   -0.495845
      9          6           0        0.470334   -1.169276   -0.307570
     10          8           0        0.535381   -2.412391   -0.694412
     11          6           0       -2.156598    1.610839    0.349643
     12          1           0        3.114299   -1.501027   -1.172384
     13          1           0        3.815248   -0.411802    0.050876
     14          1           0        3.069997   -1.966548    0.511436
     15          1           0        2.493925    1.469130    0.628239
     16          1           0       -2.796677   -1.127852    0.291478
     17          1           0       -1.773443   -2.265969   -0.637311
     18          1           0       -2.515803   -0.859605   -1.428040
     19          1           0       -2.765675    1.230194    1.192685
     20          1           0       -1.958465    2.670064    0.535383
     21          1           0       -2.783006    1.508511   -0.547852
 ---------------------------------------------------------------------

 SCF Done:  E(UB3LYP) =  -499.509955993     A.U. after    3 cycles

 Alpha  occ. eigenvalues --  -18.74925 -18.74699  -9.90315  -9.90154  -9.89830
 Alpha  occ. eigenvalues --   -9.89684  -9.89678  -9.86990  -9.86958  -9.86821
 Alpha  occ. eigenvalues --   -9.85784  -0.65862  -0.65373  -0.52875  -0.49695
 Alpha  occ. eigenvalues --   -0.44991  -0.42979  -0.37244  -0.34978  -0.27177
 Alpha  occ. eigenvalues --   -0.24747  -0.20035  -0.16166  -0.15767  -0.14339
 Alpha  occ. eigenvalues --   -0.13654  -0.13286  -0.12928  -0.11710  -0.10136
 Alpha  occ. eigenvalues --   -0.09124  -0.08163  -0.06658  -0.04946  -0.04443
 Alpha  occ. eigenvalues --   -0.03314   0.04969   0.06189   0.07274   0.07863
 Alpha  occ. eigenvalues --    0.15517
 Alpha virt. eigenvalues --    0.17490   0.17778   0.19552   0.20631   0.20939
 Alpha virt. eigenvalues --    0.22200   0.22498   0.23163   0.23481   0.24807
 Alpha virt. eigenvalues --    0.26298   0.27466   0.28470   0.29331   0.30274

  Beta  occ. eigenvalues --  -18.74925 -18.74699  -9.90315  -9.90154  -9.89830
  Beta  occ. eigenvalues --   -9.89684  -9.89678  -9.86990  -9.86958  -9.86821
  Beta  occ. eigenvalues --   -9.85784  -0.65862  -0.65373  -0.52875  -0.49695
  Beta  occ. eigenvalues --   -0.44991  -0.42979  -0.37244  -0.34978  -0.27177
  Beta  occ. eigenvalues --   -0.24747  -0.20035  -0.16166  -0.15767  -0.14339
  Beta  occ. eigenvalues --   -0.13654  -0.13286  -0.12928  -0.11710  -0.10136
  Beta  occ. eigenvalues --   -0.09124  -0.08163  -0.06658  -0.04946  -0.04443
  Beta  occ. eigenvalues --   -0.03314   0.04969   0.06189   0.07274   0.07863
  Beta  occ. eigenvalues --    0.15517
  Beta virt. eigenvalues --    0.17490   0.17778   0.19552   0.20631   0.20939
  Beta virt. eigenvalues --    0.22200   0.22498   0.23163   0.23481   0.24807
  Beta virt. eigenvalues --    0.26298   0.27466   0.28470   0.29331   0.30274

 Mulliken charges and spin densities:
               1          2
     1  C    1.056277   0.000000
     2  C    0.097462   0.000000
     3  C   -0.082972  -0.000000
     4  C   -1.109035  -0.000000
     5  O   -0.564256  -0.000000
     6  C    1.390496  -0.000000
     7  C    0.474424   0.000000
     8  C   -0.563024  -0.000000
     9  C   -1.671032  -0.000000
    10  O   -0.564044  -0.000000
    11  C   -0.398612  -0.000000
    12  H   -0.140309   0.000000
    13  H   -0.435421   0.000000
    14  H    0.122689   0.000000
    15  H    0.023454  -0.000000
    16  H    0.050047   0.000000
    17  H    0.185297   0.000000
    18  H   -0.059269   0.000000
    19  H   -0.048431   0.000000
    20  H    0.164634   0.000000
    21  H    0.071625   0.000000
 Sum of Mulliken charges =  -2.00000   0.00000

 Dipole moment (field-independent basis, Debye):
    X=             -5.1112    Y=             -1.5513    Z=              0.1423  Tot=              5.3434
 Quadrupole moment (field-independent basis, Debye-Ang):
   XX=           -117.8317   YY=           -132.8361   ZZ=            -87.9695
   XY=              5.4569   XZ=              3.7637   YZ=            -18.5164

  Exact polarizability:6932.086-598.884 404.793-335.674 193.896 385.766
 Approx polarizability:1935.076-252.799 427.242-217.160 156.249 349.896

                      1                      2                      3
                      A                      A                      A
 Frequencies --     64.0357               103.8459               122.6874
 Red. masses --      1.0977                 4.4286                 1.0751
 Frc consts  --      0.0027                 0.0281                 0.0095
 IR Inten    --    291.6086                 7.1777                40.7824

                      4                      5                      6
                      A                      A                      A
 Frequencies --    132.5060               143.4685               182.8612
 Red. masses --      1.5906                 1.4677                 3.3973
 Frc consts  --      0.0165                 0.0178                 0.0669
 IR Inten    --      4.1613               218.0804                 5.1865

                      7                      8                      9
                      A                      A                      A
 Frequencies --    275.2798               277.0733               304.2027
 Red. masses --      3.3889                 2.6736                 2.4890
 Frc consts  --      0.1513                 0.1209                 0.1357
 IR Inten    --      7.8057                32.7130               794.7846

                     10                     11                     12
                      A                      A                      A
 Frequencies --    325.1100               343.7321               370.3439
 Red. masses --      3.8376                 6.2875                 8.8792
 Frc consts  --      0.2390                 0.4377                 0.7175
 IR Inten    --     35.4072              1292.4629               489.4933

                     13                     14                     15
                      A                      A                      A
 Frequencies --    414.4449               473.3267               485.8586
 Red. masses --      6.7371                 5.7559                 3.6361
 Frc consts  --      0.6818                 0.7598                 0.5057
 IR Inten    --    479.9554                 5.3213               403.9178

                     16                     17                     18
                      A                      A                      A
 Frequencies --    571.0675               640.5506               665.9298
 Red. masses --      5.0141                 3.3551                 2.9600
 Frc consts  --      0.9634                 0.8111                 0.7734
 IR Inten    --     13.3606               189.3861               758.8383

                     19                     20                     21
                      A                      A                      A
 Frequencies --    707.9166               731.7844               827.3805
 Red. masses --      5.4611                 4.9768                 1.7403
 Frc consts  --      1.6125                 1.5702                 0.7019
 IR Inten    --    113.2407                 2.8541                67.2519

                     22                     23                     24
                      A                      A                      A
 Frequencies --    845.3364               928.4743               984.5271
 Red. masses --      2.3591                 2.4276                 1.5190
 Frc consts  --      0.9932                 1.2330                 0.8675
 IR Inten    --    151.0951                 4.6753              3263.5166

                     25                     26                     27
                      A                      A                      A
 Frequencies --   1003.7899              1021.3522              1033.7475
 Red. masses --      1.9880                 1.3938                 1.4467
 Frc consts  --      1.1802                 0.8566                 0.9109
 IR Inten    --   1017.2415                59.5745              1130.1229

                     28                     29                     30
                      A                      A                      A
 Frequencies --   1045.4730              1091.8334              1120.0493
 Red. masses --      1.4622                 2.6002                 5.2198
 Frc consts  --      0.9416                 1.8263                 3.8582
 IR Inten    --    138.3261               135.6593               233.6455

                     31                     32                     33
                      A                      A                      A
 Frequencies --   1187.0966              1201.9824              1293.2688
 Red. masses --      1.8240                 5.3311                 2.6251
 Frc consts  --      1.5144                 4.5380                 2.5869
 IR Inten    --    236.5056                63.3456               233.1285

                     34                     35                     36
                      A                      A                      A
 Frequencies --   1311.1255              1342.9547              1354.9006
 Red. masses --      4.4816                 1.5590                 1.3085
 Frc consts  --      4.5392                 1.6566                 1.4153
 IR Inten    --    161.8687              1280.3156              8968.9248

                     37                     38                     39
                      A                      A                      A
 Frequencies --   1378.6887              1421.8123              1428.6605
 Red. masses --      1.5285                 3.7677                 2.8303
 Frc consts  --      1.7118                 4.4876                 3.4036
 IR Inten    --    338.9681               512.0977               540.5957

                     40                     41                     42
                      A                      A                      A
 Frequencies --   1450.6976              1456.6808              1470.0310
 Red. masses --      1.0986                 1.7100                 1.1476
 Frc consts  --      1.3622                 2.1378                 1.4611
 IR Inten    --   2209.2207               886.7884              1725.9678

                     43                     44                     45
                      A                      A                      A
 Frequencies --   1475.3035              1483.8588              1492.8272
 Red. masses --      1.1494                 1.1722                 1.9918
 Frc consts  --      1.4739                 1.5207                 2.6153
 IR Inten    --   2285.1644                68.7207                86.8364

                     46                     47                     48
                      A                      A                      A
 Frequencies --   1496.6363              1560.5186              2850.4370
 Red. masses --      1.0972                 4.6664                 1.0857
 Frc consts  --      1.4480                 6.6954                 5.1972
 IR Inten    --     13.7185               217.8645             65992.2016

                     49                     50                     51
                      A                      A                      A
 Frequencies --   2876.6992              2935.1236              2936.3000
 Red. masses --      1.0659                 1.0525                 1.0491
 Frc consts  --      5.1972                 5.3421                 5.3294
 IR Inten    --   1256.4841               699.9561             19018.3359

                     52                     53                     54
                      A                      A                      A
 Frequencies --   2968.1707              2977.7904              3023.4036
 Red. masses --      1.0714                 1.0799                 1.1006
 Frc consts  --      5.5611                 5.6418                 5.9276
 IR Inten    --    220.7041              2674.1472                22.5412

                     55                     56                     57
                      A                      A                      A
 Frequencies --   3066.0549              3068.7030              3074.5602
 Red. masses --      1.0918                 1.0921                 1.0869
 Frc consts  --      6.0470                 6.0592                 6.0536
 IR Inten    --     12.0902                17.5432              1116.5642

 - Thermochemistry -
 -------------------
 Temperature   298.150 Kelvin.  Pressure   1.00000 Atm.
 Atom     1 has atomic number  6 and mass  12.00000

 Molecular mass:   150.06808 amu.
 Principal axes and moments of inertia in atomic units:
                           1         2         3
     Eigenvalues --  1199.118251684.339232850.03208
           X           -0.56265   0.82451  -0.06009
           Y            0.80004   0.52477  -0.29077
           Z            0.20821   0.21167   0.95490
 This molecule is an asymmetric top.
 Rotational symmetry number  1.
 Warning -- assumption of classical behavior for rotation
           may cause significant error
 Rotational temperatures (Kelvin)      0.07223     0.05142     0.03039
 Rotational constants (GHZ):           1.50506     1.07148     0.63324
 Zero-point vibrational energy     423611.3 (Joules/Mol)
                                  101.24553 (Kcal/Mol)
 Warning -- explicit consideration of  16 degrees of freedom as
           vibrations may cause significant error
 Vibrational temperatures:     92.13   149.41   176.52   190.65   206.42
          (Kelvin)            263.10   396.07   398.65   437.68   467.76
                              494.55   532.84   596.29   681.01   699.04
                              821.64   921.61   958.12  1018.53  1052.87
                             1190.42  1216.25  1335.87  1416.51  1444.23
                             1469.50  1487.33  1504.20  1570.90  1611.50
                             1707.97  1729.38  1860.73  1886.42  1932.21
                             1949.40  1983.63  2045.67  2055.52  2087.23
                             2095.84  2115.05  2122.63  2134.94  2147.85
                             2153.33  2245.24  4101.14  4138.93  4222.99
                             4224.68  4270.54  4284.38  4350.00  4411.37
                             4415.18  4423.61

 Zero-point correction=                           0.161345 (Hartree/Particle)
 Thermal correction to Energy=                    0.172707
 Thermal correction to Enthalpy=                  0.173651
 Thermal correction to Gibbs Free Energy=         0.124534
 Sum of electronic and zero-point Energies=           -499.348611
 Sum of electronic and thermal Energies=              -499.337249
 Sum of electronic and thermal Enthalpies=            -499.336305
 Sum of electronic and thermal Free Energies=         -499.385422

                     E (Thermal)             CV                S
                      KCal/Mol        Cal/Mol-Kelvin    Cal/Mol-Kelvin
 Total                  108.375             41.798            103.376
 Electronic               0.000              0.000              0.000
 Translational            0.889              2.981             40.928
 Rotational               0.889              2.981             30.133
 Vibrational            106.598             35.837             32.315
 Vibration     1          0.597              1.971              4.329
 Vibration     2          0.605              1.946              3.381
 Vibration     3          0.610              1.930              3.058
 Vibration     4          0.613              1.921              2.909
 Vibration     5          0.616              1.910              2.757
 Vibration     6          0.630              1.863              2.299
 Vibration     7          0.677              1.719              1.563
 Vibration     8          0.678              1.716              1.552
 Vibration     9          0.695              1.666              1.394
 Vibration    10          0.709              1.625              1.284
 Vibration    11          0.722              1.588              1.195
 Vibration    12          0.742              1.533              1.078
 Vibration    13          0.778              1.439              0.911
 Vibration    14          0.830              1.309              0.728
 Vibration    15          0.842              1.281              0.694
 Vibration    16          0.927              1.094              0.502

                           ! Non-Optimized Parameters !
 Normal termination of Gaussian 16 at Sun Dec 17 21:44:33 2023.
