 Gaussian 16, Revision A.03,
 Gaussian 16:  ES64L-G16RevA.03 25-Dec-2016

 ----------------------------------------------------------------
 #P UB3LYP/6-311++G(d,p) SCRF=(PCM,Solvent=n,n-DiMethylFormamide)
 ----------------------------------------------------------------

 ------------------
 Quinone PCM in DMF
 ------------------
 Symbolic Z-matrix:
 Charge =  0 Multiplicity = 1

                         Standard orientation:
 ---------------------------------------------------------------------
 Center     Atomic      Atomic             Coordinates (Angstroms)
 Number     Number       Type             X           Y           Z
 ---------------------------------------------------------------------
      1          6           0        5.991954   -3.997157   -0.544998
      2          8           0        5.028498   -2.951294   -0.481093
      3          6           0        5.416873   -1.708788   -0.132285
      4          6           0        6.749211   -1.399348    0.168130
      5          6           0        7.112397   -0.105202    0.525258
      6          6           0        6.161771    0.902114    0.591352
      7          6           0        4.829234    0.615012    0.297777
      8          6           0        3.859292    1.763105    0.394393
      9          8           0        4.279209    2.867145    0.697500
     10          6           0        2.430575    1.485873    0.116009
     11          6           0        1.460009    2.492641    0.204915
     12          8           0        1.835203    3.751790    0.536415
     13          6           0        0.091739    2.209740   -0.053820
     14          6           0       -0.910091    3.339660    0.052819
     15          6           0       -2.388518    2.905983    0.029429
     16          8           0       -2.803766    2.471769    1.320755
     17          6           0       -2.581343    1.805116   -1.031329
     18          6           0       -1.727383    0.578349   -0.715813
     19          8           0       -2.257454   -0.099387    0.458486
     20          6           0       -2.931477   -1.307187    0.223762
     21          6           0       -3.191952   -1.988833    1.566079
     22          6           0       -4.490358   -2.824081    1.542787
     23          7           0       -4.427591   -3.853826    2.576285
     24          6           0       -4.748743   -3.337343    0.115687
     25          8           0       -3.637802   -4.176130   -0.223803
     26          6           0       -4.944161   -2.134396   -0.837349
     27          6           0       -4.713382   -2.462126   -2.311055
     28          8           0       -4.162760   -0.992551   -0.439758
     29          6           0       -0.285372    0.929341   -0.425562
     30          6           0        0.680111   -0.097028   -0.527470
     31          8           0        0.240517   -1.310451   -0.895805
     32          6           0        2.036172    0.169360   -0.255714
     33          6           0        3.004052   -0.938828   -0.372975
     34          8           0        2.607162   -2.063831   -0.722335
     35          6           0        4.427110   -0.685065   -0.069171
     36          6           0       -3.272471    4.111400   -0.376988
     37          6           0       -4.595538    4.273096    0.327451
     38          8           0       -2.904732    4.863740   -1.254379
     39          1           0        5.433418   -4.883357   -0.839908
     40          1           0        6.460668   -4.170007    0.429203
     41          1           0        6.762345   -3.786947   -1.293979
     42          1           0        7.507475   -2.168017    0.123889
     43          1           0        8.150382    0.110480    0.753056
     44          1           0        6.421871    1.915053    0.866609
     45          1           0        1.062768    4.327100    0.552322
     46          1           0       -0.753514    4.050728   -0.767632
     47          1           0       -0.765702    3.882584    0.995303
     48          1           0       -2.726070    1.505684    1.364828
     49          1           0       -2.290609    2.206984   -2.006603
     50          1           0       -3.627023    1.496809   -1.084365
     51          1           0       -1.763672   -0.118269   -1.555211
     52          1           0       -2.321202   -1.937417   -0.431051
     53          1           0       -2.342694   -2.632271    1.805684
     54          1           0       -3.260891   -1.232496    2.350090
     55          1           0       -5.329199   -2.165430    1.789379
     56          1           0       -3.747863   -4.562980    2.317336
     57          1           0       -5.324031   -4.316417    2.690364
     58          1           0       -5.672070   -3.932057    0.102488
     59          1           0       -3.834204   -4.663172   -1.029266
     60          1           0       -5.981631   -1.806740   -0.708440
     61          1           0       -3.675424   -2.745883   -2.499717
     62          1           0       -4.944297   -1.589254   -2.924422
     63          1           0       -5.364553   -3.281638   -2.635527
     64          1           0        1.051121   -1.894483   -0.920535
     65          1           0       -4.423215    4.487786    1.385431
     66          1           0       -5.156013    5.081629   -0.139786
     67          1           0       -5.163904    3.339929    0.300690
 ---------------------------------------------------------------------

 SCF Done:  E(UB3LYP) =  -1853.87193572     A.U. after   15 cycles

 The electronic state is 1-A.
 Alpha  occ. eigenvalues --  -19.17418 -19.17281 -19.15720 -19.15410 -19.13507
 Alpha  occ. eigenvalues --  -19.13378 -19.13296 -19.13202 -19.13079 -19.12167
 Alpha  occ. eigenvalues --  -14.29942 -10.28781 -10.27963 -10.27777 -10.27738
 Alpha  occ. eigenvalues --  -10.26796 -10.26649 -10.26393 -10.25545 -10.25020
 Alpha  occ. eigenvalues --  -10.23139 -10.22913 -10.22896 -10.21873 -10.21077
 Alpha  occ. eigenvalues --  -10.20986 -10.20941 -10.20933 -10.20852 -10.20830
 Alpha  occ. eigenvalues --  -10.20039 -10.19780 -10.19508 -10.18914 -10.18838
 Alpha  occ. eigenvalues --  -10.17559 -10.17179 -10.16550  -1.09532  -1.09270
 Alpha  occ. eigenvalues --   -1.08944  -1.08465  -1.07060  -1.05872  -1.05436
 Alpha  occ. eigenvalues --   -1.04328  -1.03802  -1.01954  -0.89566  -0.89492
 Alpha  occ. eigenvalues --   -0.88338  -0.84593  -0.80486  -0.79781  -0.78468
 Alpha  occ. eigenvalues --   -0.77945  -0.77670  -0.77063  -0.75462  -0.74986
 Alpha  occ. eigenvalues --   -0.71961  -0.70838  -0.69162  -0.68600  -0.66795
 Alpha  occ. eigenvalues --   -0.65193  -0.63828  -0.62317  -0.62150  -0.61636
 Alpha  occ. eigenvalues --   -0.59489  -0.59248  -0.57260  -0.56196  -0.55265
 Alpha  occ. eigenvalues --   -0.54666  -0.54449  -0.53822  -0.52116  -0.51666
 Alpha  occ. eigenvalues --   -0.51413  -0.50800  -0.50274  -0.49678  -0.49479
 Alpha  occ. eigenvalues --   -0.48833  -0.48643  -0.48323  -0.47696  -0.47580
 Alpha  occ. eigenvalues --   -0.47135  -0.46758  -0.46403  -0.46034  -0.45428
 Alpha  occ. eigenvalues --   -0.44867  -0.44729  -0.44521  -0.43809  -0.43007
 Alpha  occ. eigenvalues --   -0.42874  -0.42751  -0.42239  -0.41659  -0.41535
 Alpha  occ. eigenvalues --   -0.41266  -0.40612  -0.40094  -0.39690  -0.39518
 Alpha  occ. eigenvalues --   -0.39337  -0.38976  -0.38724  -0.38619  -0.38409
 Alpha  occ. eigenvalues --   -0.38258  -0.38047  -0.37557  -0.37130  -0.36796
 Alpha  occ. eigenvalues --   -0.35353  -0.35123  -0.34788  -0.34268  -0.33928
 Alpha  occ. eigenvalues --   -0.33509  -0.33199  -0.30978  -0.30079  -0.28949
 Alpha  occ. eigenvalues --   -0.28551  -0.28274  -0.27764  -0.26884  -0.26743
 Alpha  occ. eigenvalues --   -0.26389  -0.25207  -0.25009  -0.23189
 Alpha virt. eigenvalues --   -0.11691  -0.06331  -0.04506  -0.03787  -0.01483
 Alpha virt. eigenvalues --   -0.01157  -0.00803  -0.00507   0.00056   0.00371
 Alpha virt. eigenvalues --    0.00702   0.01262   0.01392   0.01669   0.02071

  Beta  occ. eigenvalues --  -19.17418 -19.17281 -19.15720 -19.15410 -19.13507
  Beta  occ. eigenvalues --  -19.13378 -19.13296 -19.13202 -19.13079 -19.12167
  Beta  occ. eigenvalues --  -14.29942 -10.28781 -10.27963 -10.27777 -10.27738
  Beta  occ. eigenvalues --  -10.26796 -10.26649 -10.26393 -10.25545 -10.25020
  Beta  occ. eigenvalues --  -10.23139 -10.22913 -10.22896 -10.21873 -10.21077
  Beta  occ. eigenvalues --  -10.20986 -10.20941 -10.20933 -10.20852 -10.20830
  Beta  occ. eigenvalues --  -10.20039 -10.19780 -10.19508 -10.18914 -10.18838
  Beta  occ. eigenvalues --  -10.17559 -10.17179 -10.16550  -1.09532  -1.09270
  Beta  occ. eigenvalues --   -1.08944  -1.08465  -1.07060  -1.05872  -1.05436
  Beta  occ. eigenvalues --   -1.04328  -1.03802  -1.01954  -0.89566  -0.89492
  Beta  occ. eigenvalues --   -0.88338  -0.84593  -0.80486  -0.79781  -0.78468
  Beta  occ. eigenvalues --   -0.77945  -0.77670  -0.77063  -0.75462  -0.74986
  Beta  occ. eigenvalues --   -0.71961  -0.70838  -0.69162  -0.68600  -0.66795
  Beta  occ. eigenvalues --   -0.65193  -0.63828  -0.62317  -0.62150  -0.61636
  Beta  occ. eigenvalues --   -0.59489  -0.59248  -0.57260  -0.56196  -0.55265
  Beta  occ. eigenvalues --   -0.54666  -0.54449  -0.53822  -0.52116  -0.51666
  Beta  occ. eigenvalues --   -0.51413  -0.50800  -0.50274  -0.49678  -0.49479
  Beta  occ. eigenvalues --   -0.48833  -0.48643  -0.48323  -0.47696  -0.47580
  Beta  occ. eigenvalues --   -0.47135  -0.46758  -0.46403  -0.46034  -0.45428
  Beta  occ. eigenvalues --   -0.44867  -0.44729  -0.44521  -0.43809  -0.43007
  Beta  occ. eigenvalues --   -0.42874  -0.42751  -0.42239  -0.41659  -0.41535
  Beta  occ. eigenvalues --   -0.41266  -0.40612  -0.40094  -0.39690  -0.39518
  Beta  occ. eigenvalues --   -0.39337  -0.38976  -0.38724  -0.38619  -0.38409
  Beta  occ. eigenvalues --   -0.38258  -0.38047  -0.37557  -0.37130  -0.36796
  Beta  occ. eigenvalues --   -0.35353  -0.35123  -0.34788  -0.34268  -0.33928
  Beta  occ. eigenvalues --   -0.33509  -0.33199  -0.30978  -0.30079  -0.28949
  Beta  occ. eigenvalues --   -0.28551  -0.28274  -0.27764  -0.26884  -0.26743
  Beta  occ. eigenvalues --   -0.26389  -0.25207  -0.25009  -0.23189
  Beta virt. eigenvalues --   -0.11691  -0.06331  -0.04506  -0.03787  -0.01483
  Beta virt. eigenvalues --   -0.01157  -0.00803  -0.00507   0.00056   0.00371
  Beta virt. eigenvalues --    0.00702   0.01262   0.01392   0.01669   0.02071

 Mulliken charges and spin densities:
               1          2
     1  C   -0.268600   0.000000
     2  O   -0.153343   0.000000
     3  C    0.133944   0.000000
     4  C   -0.099232  -0.000000
     5  C   -0.443332  -0.000000
     6  C   -0.011914  -0.000000
     7  C    0.211537  -0.000000
     8  C   -0.545189  -0.000000
     9  O   -0.289572  -0.000000
    10  C   -0.025021   0.000000
    11  C   -0.235922  -0.000000
    12  O   -0.220885  -0.000000
    13  C    0.179458  -0.000000
    14  C   -0.869587   0.000000
    15  C    0.573376  -0.000000
    16  O   -0.152355  -0.000000
    17  C   -0.847280  -0.000000
    18  C   -0.351478   0.000000
    19  O    0.173896  -0.000000
    20  C   -0.599205   0.000000
    21  C   -0.503087  -0.000000
    22  C   -0.490259   0.000000
    23  N   -0.325350  -0.000000
    24  C   -0.188178   0.000000
    25  O   -0.239734  -0.000000
    26  C    0.049936  -0.000000
    27  C   -0.599495   0.000000
    28  O   -0.083409   0.000000
    29  C    0.551438   0.000000
    30  C   -0.320367   0.000000
    31  O   -0.364600   0.000000
    32  C    0.914762   0.000000
    33  C   -0.512935   0.000000
    34  O   -0.328996  -0.000000
    35  C    0.209638   0.000000
    36  C    0.177769   0.000000
    37  C   -0.540709   0.000000
    38  O   -0.322344  -0.000000
    39  H    0.204946   0.000000
    40  H    0.167959   0.000000
    41  H    0.169000  -0.000000
    42  H    0.202739  -0.000000
    43  H    0.221670   0.000000
    44  H    0.177313   0.000000
    45  H    0.350484   0.000000
    46  H    0.278246  -0.000000
    47  H    0.226481  -0.000000
    48  H    0.308342   0.000000
    49  H    0.217291   0.000000
    50  H    0.249646   0.000000
    51  H    0.280952   0.000000
    52  H    0.287345   0.000000
    53  H    0.214051   0.000000
    54  H    0.153089  -0.000000
    55  H    0.225229   0.000000
    56  H    0.257993  -0.000000
    57  H    0.264560   0.000000
    58  H    0.237589   0.000000
    59  H    0.295537  -0.000000
    60  H    0.206248  -0.000000
    61  H    0.181699  -0.000000
    62  H    0.159052  -0.000000
    63  H    0.171658   0.000000
    64  H    0.480762  -0.000000
    65  H    0.194876   0.000000
    66  H    0.186954   0.000000
    67  H    0.184911   0.000000
 Sum of Mulliken charges =  -0.00000  -0.00000

 Dipole moment (field-independent basis, Debye):
    X=             -2.0207    Y=             -8.0544    Z=             -2.8117  Tot=              8.7671
 Quadrupole moment (field-independent basis, Debye-Ang):
   XX=           -150.9675   YY=           -219.6748   ZZ=           -232.5519
   XY=             -8.4504   XZ=              7.1240   YZ=             12.4403

 Normal termination of Gaussian 16 at Tue Jan 16 05:42:44 2024.
