 Gaussian 16, Revision A.03,
 Gaussian 16:  ES64L-G16RevA.03 25-Dec-2016

 ----------------------------------------------------------------------
 #P UB3LYP/6-311++G(d,p) nosym opt freq SCRF=(PCM,Solvent=n,n-DiMethylF
 ormamide)
 ----------------------------------------------------------------------

 --------
 Oxidized
 --------
 Symbolic Z-matrix:
 Charge =  0 Multiplicity = 1

 SCF Done:  E(UB3LYP) =  -807.154635907     A.U. after   15 cycles
 SCF Done:  E(UB3LYP) =  -807.154708301     A.U. after   11 cycles
 SCF Done:  E(UB3LYP) =  -807.154712572     A.U. after   10 cycles
 SCF Done:  E(UB3LYP) =  -807.154717288     A.U. after   10 cycles
 SCF Done:  E(UB3LYP) =  -807.154717643     A.U. after    9 cycles
 SCF Done:  E(UB3LYP) =  -807.154717788     A.U. after    9 cycles
 Optimization completed.
    -- Stationary point found.
 Normal termination of Gaussian 16 at Sun Feb 11 01:24:16 2024.

 ----------------------------------------------------------------------
 #P Geom=AllCheck Guess=TCheck SCRF=Check GenChk UB3LYP/6-311++G(d,p) F
 req
 ----------------------------------------------------------------------

 Structure from the checkpoint file:  "289.chk"
 --------
 Oxidized
 --------
 Charge =  0 Multiplicity = 1

                          Input orientation:
 ---------------------------------------------------------------------
 Center     Atomic      Atomic             Coordinates (Angstroms)
 Number     Number       Type             X           Y           Z
 ---------------------------------------------------------------------
      1          6           0       -2.031352    3.052089   -0.242325
      2          6           0       -2.992334    2.505229    0.604001
      3          6           0       -2.713423    1.333851    1.309315
      4          6           0       -0.790688    2.425734   -0.381514
      5          6           0       -0.506424    1.245321    0.327485
      6          6           0       -1.475620    0.705820    1.171214
      7          6           0        0.234951    2.992673   -1.272726
      8          6           0        1.546290    2.288313   -1.376661
      9          6           0        1.840630    1.145268   -0.709018
     10          6           0        0.821899    0.562620    0.185288
     11          8           0        0.081629    4.011765   -1.939137
     12          8           0        1.051181   -0.471621    0.806142
     13          1           0       -2.231250    3.960076   -0.797406
     14          1           0       -3.955030    2.989854    0.713923
     15          1           0       -3.461213    0.908384    1.968182
     16          1           0       -1.251757   -0.203190    1.714668
     17          8           0        2.424039    2.880434   -2.202041
     18          1           0        1.976702    3.667110   -2.568031
     19          6           0        3.178054    0.468027   -0.826483
     20          6           0        4.172255    0.935520    0.259856
     21          6           0        5.524448    0.198488    0.242151
     22          6           0        6.354577    0.584972    1.474707
     23          6           0        6.319836    0.456477   -1.045758
     24          1           0        3.587212    0.665914   -1.818602
     25          1           0        3.031831   -0.611014   -0.732890
     26          1           0        3.707136    0.791957    1.240711
     27          1           0        4.347444    2.012903    0.150314
     28          1           0        5.315758   -0.878302    0.302517
     29          1           0        7.302837    0.039770    1.497657
     30          1           0        5.817094    0.364874    2.401886
     31          1           0        6.586469    1.655902    1.467926
     32          1           0        7.278632   -0.069813   -1.020762
     33          1           0        6.529500    1.525687   -1.163476
     34          1           0        5.784565    0.119847   -1.937102
 ---------------------------------------------------------------------

 SCF Done:  E(UB3LYP) =  -807.154717788     A.U. after    1 cycles

 Alpha  occ. eigenvalues --  -19.18088 -19.15104 -19.13026 -10.29526 -10.28226
 Alpha  occ. eigenvalues --  -10.26917 -10.21322 -10.21211 -10.20559 -10.20378
 Alpha  occ. eigenvalues --  -10.20190 -10.20021 -10.20004 -10.17774 -10.17378
 Alpha  occ. eigenvalues --  -10.16828 -10.15545 -10.15530  -1.11011  -1.06862
 Alpha  occ. eigenvalues --   -1.06153  -0.89493  -0.84662  -0.81336  -0.78647
 Alpha  occ. eigenvalues --   -0.78209  -0.73901  -0.69676  -0.68338  -0.66345
 Alpha  occ. eigenvalues --   -0.64959  -0.61454  -0.60594  -0.57620  -0.56103
 Alpha  occ. eigenvalues --   -0.54488  -0.52107  -0.49957  -0.48247  -0.47428
 Alpha  occ. eigenvalues --   -0.46924  -0.46697  -0.45533  -0.45185  -0.44431
 Alpha  occ. eigenvalues --   -0.43199  -0.42518  -0.41971  -0.41014  -0.40742
 Alpha  occ. eigenvalues --   -0.39691  -0.38472  -0.38104  -0.37857  -0.37252
 Alpha  occ. eigenvalues --   -0.36629  -0.35295  -0.33217  -0.32616  -0.32306
 Alpha  occ. eigenvalues --   -0.30438  -0.29181  -0.28235  -0.28059  -0.25850
 Alpha virt. eigenvalues --   -0.12788  -0.05858  -0.02801  -0.01011  -0.00082
 Alpha virt. eigenvalues --    0.00330   0.01135   0.01411   0.01824   0.02229
 Alpha virt. eigenvalues --    0.02909   0.03309   0.03416   0.03975   0.04117

  Beta  occ. eigenvalues --  -19.18088 -19.15104 -19.13026 -10.29526 -10.28226
  Beta  occ. eigenvalues --  -10.26917 -10.21322 -10.21211 -10.20559 -10.20378
  Beta  occ. eigenvalues --  -10.20190 -10.20021 -10.20004 -10.17774 -10.17378
  Beta  occ. eigenvalues --  -10.16828 -10.15545 -10.15530  -1.11011  -1.06862
  Beta  occ. eigenvalues --   -1.06153  -0.89493  -0.84662  -0.81336  -0.78647
  Beta  occ. eigenvalues --   -0.78209  -0.73901  -0.69676  -0.68338  -0.66345
  Beta  occ. eigenvalues --   -0.64959  -0.61454  -0.60594  -0.57620  -0.56103
  Beta  occ. eigenvalues --   -0.54488  -0.52107  -0.49957  -0.48247  -0.47428
  Beta  occ. eigenvalues --   -0.46924  -0.46697  -0.45533  -0.45185  -0.44431
  Beta  occ. eigenvalues --   -0.43199  -0.42518  -0.41971  -0.41014  -0.40742
  Beta  occ. eigenvalues --   -0.39691  -0.38472  -0.38104  -0.37857  -0.37252
  Beta  occ. eigenvalues --   -0.36629  -0.35295  -0.33217  -0.32616  -0.32306
  Beta  occ. eigenvalues --   -0.30438  -0.29181  -0.28235  -0.28059  -0.25850
  Beta virt. eigenvalues --   -0.12788  -0.05858  -0.02801  -0.01011  -0.00082
  Beta virt. eigenvalues --    0.00330   0.01135   0.01411   0.01824   0.02229
  Beta virt. eigenvalues --    0.02909   0.03309   0.03416   0.03975   0.04117

 Mulliken charges and spin densities:
               1          2
     1  C    0.248916  -0.000000
     2  C   -0.399677  -0.000000
     3  C   -0.385896  -0.000000
     4  C    0.237028  -0.000000
     5  C    0.021473   0.000000
     6  C    0.206576   0.000000
     7  C   -0.739404   0.000000
     8  C   -0.574860  -0.000000
     9  C    1.982947  -0.000000
    10  C   -0.922350  -0.000000
    11  O   -0.311950  -0.000000
    12  O   -0.275131   0.000000
    13  H    0.192100   0.000000
    14  H    0.210908  -0.000000
    15  H    0.208322  -0.000000
    16  H    0.189389   0.000000
    17  O   -0.209378   0.000000
    18  H    0.306378   0.000000
    19  C   -0.205778   0.000000
    20  C   -0.703482  -0.000000
    21  C    0.426491   0.000000
    22  C   -0.632432  -0.000000
    23  C   -0.648766  -0.000000
    24  H    0.216180  -0.000000
    25  H    0.214907  -0.000000
    26  H    0.165857   0.000000
    27  H    0.170317  -0.000000
    28  H    0.142016  -0.000000
    29  H    0.152259   0.000000
    30  H    0.137027   0.000000
    31  H    0.142467  -0.000000
    32  H    0.150825   0.000000
    33  H    0.146734   0.000000
    34  H    0.139989   0.000000
 Sum of Mulliken charges =  -0.00000  -0.00000

 Dipole moment (field-independent basis, Debye):
    X=             -2.6641    Y=              1.2287    Z=              0.5479  Tot=              2.9845
 Quadrupole moment (field-independent basis, Debye-Ang):
   XX=            -96.2292   YY=           -110.9658   ZZ=           -109.3722
   XY=             -4.0016   XZ=             -5.5546   YZ=              4.4298

  Exact polarizability: 301.690 -32.576 265.765 -33.478 -68.051 225.654
 Approx polarizability: 313.070 -35.522 341.812 -34.827-102.083 268.482

                      1                      2                      3
                      A                      A                      A
 Frequencies --     26.8973                35.2552                39.3065
 Red. masses --      3.5171                 3.4807                 4.7234
 Frc consts  --      0.0015                 0.0025                 0.0043
 IR Inten    --      0.5298                 0.3344                 2.7631

                      4                      5                      6
                      A                      A                      A
 Frequencies --     72.1548               109.5948               115.5955
 Red. masses --      8.4432                 2.2443                 4.1731
 Frc consts  --      0.0259                 0.0159                 0.0329
 IR Inten    --      5.2615                 0.3040                 0.2207

                      7                      8                      9
                      A                      A                      A
 Frequencies --    127.1236               176.5934               191.8670
 Red. masses --      6.3024                 5.1170                 3.6839
 Frc consts  --      0.0600                 0.0940                 0.0799
 IR Inten    --      0.3152                 0.6914                 0.3234

                     10                     11                     12
                      A                      A                      A
 Frequencies --    223.4188               248.3913               253.1614
 Red. masses --      1.0655                 1.1760                 3.2687
 Frc consts  --      0.0313                 0.0427                 0.1234
 IR Inten    --      0.0572                 0.0290                 0.3306

                     13                     14                     15
                      A                      A                      A
 Frequencies --    295.0649               306.7439               344.8980
 Red. masses --      3.1961                 3.6779                 4.8794
 Frc consts  --      0.1639                 0.2039                 0.3420
 IR Inten    --      4.9494                 1.1512                20.8381

                     16                     17                     18
                      A                      A                      A
 Frequencies --    382.0808               386.0618               395.8606
 Red. masses --      2.9985                 6.6682                 3.0211
 Frc consts  --      0.2579                 0.5856                 0.2789
 IR Inten    --      2.1159                17.8189                24.3544

                     19                     20                     21
                      A                      A                      A
 Frequencies --    417.1976               424.0446               443.6078
 Red. masses --      6.4077                 3.0919                 4.1022
 Frc consts  --      0.6571                 0.3276                 0.4756
 IR Inten    --     15.5226                 1.0370                 5.6997

                     22                     23                     24
                      A                      A                      A
 Frequencies --    456.7574               472.2089               525.3208
 Red. masses --      3.1138                 6.0743                 7.4313
 Frc consts  --      0.3827                 0.7980                 1.2083
 IR Inten    --      4.5703                12.2884                 5.5473

                     25                     26                     27
                      A                      A                      A
 Frequencies --    579.5590               604.4585               650.7403
 Red. masses --      2.7453                 1.3800                 6.3587
 Frc consts  --      0.5433                 0.2971                 1.5865
 IR Inten    --     68.8091                76.7329                 7.9000

                     28                     29                     30
                      A                      A                      A
 Frequencies --    675.8208               704.8650               709.2183
 Red. masses --      6.1388                 3.5492                 4.4109
 Frc consts  --      1.6520                 1.0389                 1.3072
 IR Inten    --      5.4831                 8.7075                 7.1073

                     31                     32                     33
                      A                      A                      A
 Frequencies --    733.8493               759.9794               769.5421
 Red. masses --      2.4432                 1.6693                 5.2468
 Frc consts  --      0.7752                 0.5681                 1.8307
 IR Inten    --    109.1386                 6.5933                 2.0651

                     34                     35                     36
                      A                      A                      A
 Frequencies --    804.9492               827.2890               863.2011
 Red. masses --      1.9301                 2.9206                 2.9086
 Frc consts  --      0.7368                 1.1777                 1.2769
 IR Inten    --     17.8110                 6.7475                26.0990

                     37                     38                     39
                      A                      A                      A
 Frequencies --    911.1315               927.1487               940.0034
 Red. masses --      1.3389                 1.2392                 1.8577
 Frc consts  --      0.6549                 0.6276                 0.9671
 IR Inten    --      0.0313                 2.0552                 1.3054

                     40                     41                     42
                      A                      A                      A
 Frequencies --    951.3224               961.3544               977.5024
 Red. masses --      4.6710                 1.4616                 2.1465
 Frc consts  --      2.4907                 0.7959                 1.2084
 IR Inten    --     68.1704                 3.2598                16.1351

                     43                     44                     45
                      A                      A                      A
 Frequencies --    998.3115              1019.2013              1022.1587
 Red. masses --      1.3870                 3.2924                 1.3324
 Frc consts  --      0.8145                 2.0150                 0.8202
 IR Inten    --      1.8223                53.7522                 0.0967

                     46                     47                     48
                      A                      A                      A
 Frequencies --   1038.0238              1056.4884              1109.4017
 Red. masses --      3.3128                 2.0282                 2.2021
 Frc consts  --      2.1031                 1.3338                 1.5969
 IR Inten    --     54.5335                 6.1149                 4.8271

                     49                     50                     51
                      A                      A                      A
 Frequencies --   1127.5106              1137.5671              1178.6059
 Red. masses --      1.9487                 1.9011                 1.2072
 Frc consts  --      1.4596                 1.4495                 0.9880
 IR Inten    --     34.7823                38.8158                45.8615

                     52                     53                     54
                      A                      A                      A
 Frequencies --   1186.5178              1191.8022              1222.6492
 Red. masses --      1.7651                 2.2251                 2.1361
 Frc consts  --      1.4641                 1.8621                 1.8814
 IR Inten    --     14.0373                51.2618                23.4767

                     55                     56                     57
                      A                      A                      A
 Frequencies --   1241.3577              1277.0458              1295.0238
 Red. masses --      1.8315                 1.6897                 1.4671
 Frc consts  --      1.6628                 1.6235                 1.4497
 IR Inten    --    340.5793                99.3883                86.7400

                     58                     59                     60
                      A                      A                      A
 Frequencies --   1301.6271              1310.9001              1336.3301
 Red. masses --      1.6820                 2.0151                 2.3014
 Frc consts  --      1.6790                 2.0403                 2.4214
 IR Inten    --    364.1581                72.3040               119.6959

                     61                     62                     63
                      A                      A                      A
 Frequencies --   1348.9924              1366.7995              1367.6569
 Red. masses --      1.3965                 1.7574                 2.8994
 Frc consts  --      1.4973                 1.9344                 3.1953
 IR Inten    --      4.8205                24.0746               106.6196

                     64                     65                     66
                      A                      A                      A
 Frequencies --   1376.5773              1382.6947              1394.6046
 Red. masses --      1.7569                 1.7701                 1.2511
 Frc consts  --      1.9615                 1.9939                 1.4337
 IR Inten    --    266.8542               350.4672                 8.7074

                     67                     68                     69
                      A                      A                      A
 Frequencies --   1412.0706              1469.1517              1479.3613
 Red. masses --      1.2341                 1.1082                 1.0556
 Frc consts  --      1.4498                 1.4093                 1.3611
 IR Inten    --      4.9640                 7.1997                 0.2153

                     70                     71                     72
                      A                      A                      A
 Frequencies --   1483.5744              1484.9235              1490.1258
 Red. masses --      1.9057                 1.1785                 1.0914
 Frc consts  --      2.4713                 1.5310                 1.4278
 IR Inten    --      1.1304                12.7952                 9.4827

                     73                     74                     75
                      A                      A                      A
 Frequencies --   1493.2463              1500.6637              1505.1386
 Red. masses --      1.0591                 1.0474                 2.6858
 Frc consts  --      1.3914                 1.3898                 3.5849
 IR Inten    --      5.8153                23.6469                 8.4228

                     76                     77                     78
                      A                      A                      A
 Frequencies --   1610.2847              1619.0367              1673.0771
 Red. masses --      6.6345                 6.0618                10.5215
 Frc consts  --     10.1359                 9.3619                17.3525
 IR Inten    --     29.6162               310.5939               593.8882

                     79                     80                     81
                      A                      A                      A
 Frequencies --   1686.3701              1688.2108              2987.6971
 Red. masses --     11.9782                 7.5415                 1.0818
 Frc consts  --     20.0700                12.6637                 5.6892
 IR Inten    --    369.8382               143.5571                24.9279

                     82                     83                     84
                      A                      A                      A
 Frequencies --   3008.0472              3009.5598              3015.9571
 Red. masses --      1.0478                 1.0437                 1.0430
 Frc consts  --      5.5858                 5.5697                 5.5897
 IR Inten    --     14.2145                65.8217                66.7192

                     85                     86                     87
                      A                      A                      A
 Frequencies --   3048.7873              3052.4108              3068.0794
 Red. masses --      1.1007                 1.0599                 1.1006
 Frc consts  --      6.0279                 5.8182                 6.1040
 IR Inten    --     31.5433                35.9630                14.5680

                     88                     89                     90
                      A                      A                      A
 Frequencies --   3073.2762              3078.8155              3084.9505
 Red. masses --      1.0995                 1.1019                 1.1007
 Frc consts  --      6.1184                 6.1542                 6.1720
 IR Inten    --    134.8690                71.9858                65.4690

                     91                     92                     93
                      A                      A                      A
 Frequencies --   3102.3854              3180.2570              3192.1271
 Red. masses --      1.1027                 1.0875                 1.0910
 Frc consts  --      6.2534                 6.4803                 6.5500
 IR Inten    --     27.0129                 3.1368                 8.2722

                     94                     95                     96
                      A                      A                      A
 Frequencies --   3202.9964              3206.5028              3618.4685
 Red. masses --      1.0931                 1.0957                 1.0645
 Frc consts  --      6.6072                 6.6377                 8.2121
 IR Inten    --      3.8617                15.3842               281.0404

 - Thermochemistry -
 -------------------
 Temperature   298.150 Kelvin.  Pressure   1.00000 Atm.
 Atom     1 has atomic number  6 and mass  12.00000

 Molecular mass:   244.10994 amu.
 Principal axes and moments of inertia in atomic units:
                           1         2         3
     Eigenvalues --  2193.809407910.967059526.97743
           X            0.97409  -0.13900   0.17837
           Y           -0.22473  -0.68292   0.69506
           Z           -0.02520   0.71714   0.69647
 This molecule is an asymmetric top.
 Rotational symmetry number  1.
 Warning -- assumption of classical behavior for rotation
           may cause significant error
 Rotational temperatures (Kelvin)      0.03948     0.01095     0.00909
 Rotational constants (GHZ):           0.82265     0.22813     0.18943
 Zero-point vibrational energy     727536.1 (Joules/Mol)
                                  173.88531 (Kcal/Mol)
 Warning -- explicit consideration of  26 degrees of freedom as
           vibrations may cause significant error
 Vibrational temperatures:     38.70    50.72    56.55   103.81   157.68
          (Kelvin)            166.32   182.90   254.08   276.05   321.45
                              357.38   364.24   424.53   441.34   496.23
                              549.73   555.46   569.56   600.25   610.11
                              638.25   657.17   679.40   755.82   833.86
                              869.68   936.27   972.36  1014.14  1020.41
                             1055.85  1093.44  1107.20  1158.14  1190.28
                             1241.95  1310.92  1333.96  1352.46  1368.74
                             1383.17  1406.41  1436.35  1466.40  1470.66
                             1493.48  1520.05  1596.18  1622.24  1636.71
                             1695.75  1707.13  1714.74  1759.12  1786.04
                             1837.38  1863.25  1872.75  1886.09  1922.68
                             1940.90  1966.52  1967.75  1980.59  1989.39
                             2006.53  2031.65  2113.78  2128.47  2134.53
                             2136.47  2143.96  2148.45  2159.12  2165.56
                             2316.84  2329.43  2407.18  2426.31  2428.96
                             4298.63  4327.91  4330.09  4339.29  4386.52
                             4391.74  4414.28  4421.76  4429.73  4438.56
                             4463.64  4575.68  4592.76  4608.40  4613.44
                             5206.17

 Zero-point correction=                           0.277104 (Hartree/Particle)
 Thermal correction to Energy=                    0.293886
 Thermal correction to Enthalpy=                  0.294830
 Thermal correction to Gibbs Free Energy=         0.231473
 Sum of electronic and zero-point Energies=           -806.877614
 Sum of electronic and thermal Energies=              -806.860832
 Sum of electronic and thermal Enthalpies=            -806.859888
 Sum of electronic and thermal Free Energies=         -806.923245

                     E (Thermal)             CV                S
                      KCal/Mol        Cal/Mol-Kelvin    Cal/Mol-Kelvin
 Total                  184.416             64.313            133.347
 Electronic               0.000              0.000              0.000
 Translational            0.889              2.981             42.378
 Rotational               0.889              2.981             33.469
 Vibrational            182.639             58.351             57.500
 Vibration     1          0.593              1.984              6.046
 Vibration     2          0.594              1.982              5.509
 Vibration     3          0.594              1.981              5.294
 Vibration     4          0.598              1.967              4.094
 Vibration     5          0.606              1.942              3.276
 Vibration     6          0.608              1.936              3.173
 Vibration     7          0.611              1.926              2.989
 Vibration     8          0.628              1.871              2.364
 Vibration     9          0.634              1.851              2.210
 Vibration    10          0.649              1.805              1.931
 Vibration    11          0.662              1.765              1.742
 Vibration    12          0.664              1.757              1.708
 Vibration    13          0.689              1.683              1.445
 Vibration    14          0.697              1.661              1.380
 Vibration    15          0.723              1.586              1.189
 Vibration    16          0.752              1.508              1.031
 Vibration    17          0.755              1.500              1.015
 Vibration    18          0.763              1.479              0.978
 Vibration    19          0.780              1.433              0.902
 Vibration    20          0.786              1.418              0.878
 Vibration    21          0.803              1.375              0.815
 Vibration    22          0.815              1.346              0.776
 Vibration    23          0.829              1.312              0.731
 Vibration    24          0.880              1.194              0.598
 Vibration    25          0.936              1.075              0.486
 Vibration    26          0.963              1.022              0.442

                           ! Non-Optimized Parameters !
 Normal termination of Gaussian 16 at Sun Feb 11 03:12:02 2024.
