 Gaussian 16, Revision A.03,
 Gaussian 16:  ES64L-G16RevA.03 25-Dec-2016

 ----------------------------------------------------------------
 #P UB3LYP/6-311++G(d,p) SCRF=(PCM,Solvent=n,n-DiMethylFormamide)
 ----------------------------------------------------------------

 ------------------
 Radical PCM in DMF
 ------------------
 Symbolic Z-matrix:
 Charge = -1 Multiplicity = 2

                         Standard orientation:
 ---------------------------------------------------------------------
 Center     Atomic      Atomic             Coordinates (Angstroms)
 Number     Number       Type             X           Y           Z
 ---------------------------------------------------------------------
      1          6           0        2.102323   -1.892863    0.285366
      2          6           0        3.414145   -1.486015    0.409560
      3          6           0        3.694673   -0.107965    0.384290
      4          6           0        1.049079   -0.963361    0.139961
      5          6           0        1.358184    0.427228    0.119706
      6          6           0        2.705275    0.831418    0.246754
      7          6           0       -0.324528   -1.453172    0.020660
      8          6           0       -1.358389   -0.426776   -0.120183
      9          6           0       -1.049298    0.963805   -0.140440
     10          6           0        0.324301    1.453633   -0.021162
     11          6           0       -2.705512   -0.830992   -0.247252
     12          6           0       -3.694846    0.108405   -0.384789
     13          6           0       -3.414338    1.486468   -0.410034
     14          6           0       -2.102543    1.893343   -0.285833
     15          8           0       -0.601756   -2.677532    0.038570
     16          8           0        0.601537    2.677978   -0.039109
     17          1           0        2.929908    1.890876    0.241910
     18          1           0       -1.841088    2.944850   -0.298387
     19          1           0        1.840917   -2.944383    0.297936
     20          1           0       -2.930099   -1.890457   -0.242424
     21          1           0       -4.218416    2.204266   -0.517149
     22          8           0        5.014143    0.354789    0.611039
     23          8           0       -5.014474   -0.354066   -0.611562
     24          6           0       -6.002556   -0.070947    0.268788
     25          6           0       -7.296531   -0.700279   -0.196225
     26          8           0       -5.873006    0.578136    1.274858
     27          1           0        4.218157   -2.203876    0.516654
     28          1           0       -7.191433   -1.788042   -0.205393
     29          1           0       -7.524353   -0.385210   -1.216804
     30          1           0       -8.102780   -0.413028    0.476143
     31          6           0        6.003012    0.069968   -0.267858
     32          6           0        7.296550    0.700176    0.197151
     33          8           0        5.874418   -0.581077   -1.272785
     34          1           0        7.191600    1.787977    0.203622
     35          1           0        8.103495    0.411257   -0.473667
     36          1           0        7.523198    0.387496    1.218720
 ---------------------------------------------------------------------

 SCF Done:  E(UB3LYP) =  -1144.99516695     A.U. after   18 cycles

 The electronic state is 2-A.
 Alpha  occ. eigenvalues --  -19.18528 -19.18527 -19.12743 -19.12743 -19.08064
 Alpha  occ. eigenvalues --  -19.08063 -10.31938 -10.31938 -10.24276 -10.24275
 Alpha  occ. eigenvalues --  -10.22930 -10.22929 -10.18301 -10.18301 -10.18174
 Alpha  occ. eigenvalues --  -10.18173 -10.18106 -10.18106 -10.17969 -10.17968
 Alpha  occ. eigenvalues --  -10.17900 -10.17900 -10.17864 -10.17863  -1.12457
 Alpha  occ. eigenvalues --   -1.12456  -1.04310  -1.04309  -1.00874  -1.00622
 Alpha  occ. eigenvalues --   -0.87252  -0.86398  -0.80240  -0.77937  -0.76907
 Alpha  occ. eigenvalues --   -0.76128  -0.74859  -0.73484  -0.68219  -0.66349
 Alpha  occ. eigenvalues --   -0.64582  -0.62224  -0.60240  -0.58183  -0.55766
 Alpha  occ. eigenvalues --   -0.54249  -0.51341  -0.50476  -0.50231  -0.50048
 Alpha  occ. eigenvalues --   -0.49377  -0.48936  -0.47891  -0.47472  -0.46150
 Alpha  occ. eigenvalues --   -0.44653  -0.43882  -0.43345  -0.42974  -0.42831
 Alpha  occ. eigenvalues --   -0.42042  -0.42031  -0.41765  -0.41263  -0.40796
 Alpha  occ. eigenvalues --   -0.39451  -0.38981  -0.38938  -0.38561  -0.37176
 Alpha  occ. eigenvalues --   -0.36865  -0.36637  -0.34968  -0.34538  -0.33051
 Alpha  occ. eigenvalues --   -0.32793  -0.29814  -0.29787  -0.27192  -0.26436
 Alpha  occ. eigenvalues --   -0.26300  -0.25186  -0.25075  -0.24274  -0.14695
 Alpha virt. eigenvalues --   -0.06019  -0.02984  -0.01621  -0.00643  -0.00629
 Alpha virt. eigenvalues --   -0.00488  -0.00247   0.00823   0.01158   0.02216
 Alpha virt. eigenvalues --    0.02524   0.03252   0.03410   0.03835   0.03907

  Beta  occ. eigenvalues --  -19.18525 -19.18524 -19.12744 -19.12744 -19.07505
  Beta  occ. eigenvalues --  -19.07504 -10.31933 -10.31933 -10.24223 -10.24222
  Beta  occ. eigenvalues --  -10.22759 -10.22758 -10.18256 -10.18256 -10.18106
  Beta  occ. eigenvalues --  -10.18106 -10.18084 -10.18083 -10.17968 -10.17968
  Beta  occ. eigenvalues --  -10.17896 -10.17895 -10.17794 -10.17793  -1.12442
  Beta  occ. eigenvalues --   -1.12441  -1.04302  -1.04301  -0.99904  -0.99628
  Beta  occ. eigenvalues --   -0.87005  -0.86289  -0.79907  -0.77852  -0.76773
  Beta  occ. eigenvalues --   -0.75893  -0.74781  -0.73360  -0.67588  -0.66225
  Beta  occ. eigenvalues --   -0.64419  -0.62024  -0.60152  -0.58046  -0.55470
  Beta  occ. eigenvalues --   -0.54087  -0.51277  -0.50452  -0.50175  -0.50001
  Beta  occ. eigenvalues --   -0.49307  -0.48892  -0.47629  -0.47394  -0.46089
  Beta  occ. eigenvalues --   -0.44560  -0.43832  -0.43296  -0.42620  -0.42287
  Beta  occ. eigenvalues --   -0.41986  -0.41734  -0.41265  -0.40797  -0.40693
  Beta  occ. eigenvalues --   -0.39335  -0.38935  -0.38864  -0.36926  -0.36775
  Beta  occ. eigenvalues --   -0.36494  -0.36207  -0.34781  -0.33969  -0.32985
  Beta  occ. eigenvalues --   -0.32172  -0.29797  -0.29765  -0.26232  -0.25386
  Beta  occ. eigenvalues --   -0.25006  -0.24671  -0.24528  -0.23755
  Beta virt. eigenvalues --   -0.08774  -0.05118  -0.02139  -0.01496  -0.00594
  Beta virt. eigenvalues --   -0.00420  -0.00371  -0.00228   0.00839   0.01164
  Beta virt. eigenvalues --    0.02219   0.02533   0.03358   0.03499   0.03834

 Mulliken charges and spin densities:
               1          2
     1  C    0.145784   0.026958
     2  C    0.139629   0.036833
     3  C   -0.770335   0.034718
     4  C    0.268226   0.031919
     5  C    0.462066   0.052184
     6  C   -0.001342   0.020131
     7  C   -0.722678   0.094415
     8  C    0.462263   0.052199
     9  C    0.267783   0.031945
    10  C   -0.722202   0.094412
    11  C   -0.000725   0.020112
    12  C   -0.771930   0.034751
    13  C    0.140940   0.036861
    14  C    0.146239   0.026935
    15  O   -0.440274   0.207656
    16  O   -0.440264   0.207644
    17  H    0.190977  -0.001638
    18  H    0.178989  -0.001198
    19  H    0.178967  -0.001200
    20  H    0.190958  -0.001637
    21  H    0.217851  -0.003132
    22  O   -0.021256   0.000795
    23  O   -0.021114   0.000794
    24  C    0.148242   0.000231
    25  C   -0.540593   0.000684
    26  O   -0.308513  -0.000675
    27  H    0.217878  -0.003130
    28  H    0.190356   0.000051
    29  H    0.188145   0.000074
    30  H    0.174075  -0.000033
    31  C    0.148513   0.000232
    32  C   -0.540637   0.000685
    33  O   -0.308630  -0.000668
    34  H    0.190383   0.000051
    35  H    0.174079  -0.000033
    36  H    0.188151   0.000075
 Sum of Mulliken charges =  -1.00000   1.00000

 Dipole moment (field-independent basis, Debye):
    X=             -0.0003    Y=              0.0033    Z=             -0.0008  Tot=              0.0034
 Quadrupole moment (field-independent basis, Debye-Ang):
   XX=           -130.4501   YY=           -167.4887   ZZ=           -151.7964
   XY=              8.1963   XZ=             26.1270   YZ=             -5.5203

 Normal termination of Gaussian 16 at Sun Jan 14 01:19:45 2024.
