 Q-Chem 5.4, Q-Chem, Inc., Pleasanton, CA (2021)
 Q-Chem 5.4.0 for Intel X86 EM64T Linux

User input:
--------------------------------------------------------------
$molecule
-1 2
C                  1.8968010000      3.5215890000      3.8695400000
C                  2.9590700000      3.5893160000      2.8779930000
C                  3.4316480000      2.4989770000      2.2058690000
C                  2.9021670000      1.1661430000      2.4228450000
C                  1.3580660000      2.1782680000      4.0810750000
C                  1.8355350000      1.0809590000      3.3975830000
O                  1.4849200000      4.5414240000      4.4737760000
O                  3.3331200000      0.1522650000      1.8038630000
S                  0.1357910000      1.9197450000      5.3653980000
C                 -1.3729580000      2.6263790000      4.7314020000
C                 -2.4767160000      2.6651540000      5.5970560000
C                 -1.5194500000      3.1103210000      3.4267880000
C                 -2.7448850000      3.6181920000      3.0026050000
C                 -3.6990520000      3.1690520000      5.1633520000
C                 -3.8438160000      3.6504900000      3.8612710000
H                  3.3707060000      4.5792410000      2.7014900000
H                  4.2309750000      2.5926140000      1.4756680000
H                  1.4145290000      0.0973070000      3.5760890000
H                 -2.3707380000      2.3023960000      6.6144460000
H                 -0.6722190000      3.0932220000      2.7533920000
H                 -2.8377350000      3.9945230000      1.9886930000
H                 -4.5406090000      3.1906300000      5.8489870000
H                 -4.7948010000      4.0488030000      3.5243090000
$end

$rem
BASIS  =  6-311++G(d,p)
GUI  =  2
JOB_TYPE  =  SP
METHOD  =  B3LYP
SCF_CONVERGENCE  = 8
SOLVENT_METHOD = sm12
$end

$smx
solvent dimethylformamide
charges CM5
$end

--------------------------------------------------------------

             Standard Nuclear Orientation (Angstroms)
    I     Atom           X                Y                Z
 ----------------------------------------------------------------
    1      C       1.8968010000     3.5215890000     3.8695400000
    2      C       2.9590700000     3.5893160000     2.8779930000
    3      C       3.4316480000     2.4989770000     2.2058690000
    4      C       2.9021670000     1.1661430000     2.4228450000
    5      C       1.3580660000     2.1782680000     4.0810750000
    6      C       1.8355350000     1.0809590000     3.3975830000
    7      O       1.4849200000     4.5414240000     4.4737760000
    8      O       3.3331200000     0.1522650000     1.8038630000
    9      S       0.1357910000     1.9197450000     5.3653980000
   10      C      -1.3729580000     2.6263790000     4.7314020000
   11      C      -2.4767160000     2.6651540000     5.5970560000
   12      C      -1.5194500000     3.1103210000     3.4267880000
   13      C      -2.7448850000     3.6181920000     3.0026050000
   14      C      -3.6990520000     3.1690520000     5.1633520000
   15      C      -3.8438160000     3.6504900000     3.8612710000
   16      H       3.3707060000     4.5792410000     2.7014900000
   17      H       4.2309750000     2.5926140000     1.4756680000
   18      H       1.4145290000     0.0973070000     3.5760890000
   19      H      -2.3707380000     2.3023960000     6.6144460000
   20      H      -0.6722190000     3.0932220000     2.7533920000
   21      H      -2.8377350000     3.9945230000     1.9886930000
   22      H      -4.5406090000     3.1906300000     5.8489870000
   23      H      -4.7948010000     4.0488030000     3.5243090000
 ----------------------------------------------------------------

   18   -1010.9654120601      4.95e-09  Convergence criterion met
 Total energy in the final basis set =    -1011.0514958856

                    Orbital Energies (a.u.)
 --------------------------------------------------------------

 Alpha MOs
 -- Occupied --
-88.8568 -19.0831 -19.0825 -10.2316 -10.2273 -10.2170 -10.2038 -10.1873
-10.1869 -10.1863 -10.1842 -10.1820 -10.1802 -10.1779 -10.1772  -7.9424
 -5.9063  -5.9024  -5.8964  -1.0074  -1.0025  -0.8742  -0.8408  -0.7993
 -0.7612  -0.7577  -0.7097  -0.6810  -0.6219  -0.6114  -0.5973  -0.5663
 -0.5234  -0.4849  -0.4787  -0.4702  -0.4639  -0.4468  -0.4375  -0.4321
 -0.4140  -0.4089  -0.3940  -0.3896  -0.3799  -0.3792  -0.3641  -0.3571
 -0.3376  -0.3015  -0.2891  -0.2735  -0.2683  -0.2474  -0.2429  -0.2186
 -0.1713

 Beta MOs
 -- Occupied --
-88.8568 -19.0754 -19.0752 -10.2308 -10.2264 -10.2170 -10.2026 -10.1873
-10.1869 -10.1863 -10.1841 -10.1820 -10.1785 -10.1769 -10.1762  -7.9424
 -5.9063  -5.9024  -5.8964  -0.9952  -0.9888  -0.8740  -0.8354  -0.7976
 -0.7606  -0.7564  -0.7055  -0.6735  -0.6212  -0.6096  -0.5947  -0.5634
 -0.5228  -0.4828  -0.4754  -0.4686  -0.4635  -0.4441  -0.4359  -0.4309
 -0.4041  -0.3977  -0.3892  -0.3883  -0.3760  -0.3632  -0.3568  -0.3512
 -0.3344  -0.3004  -0.2689  -0.2655  -0.2539  -0.2403  -0.2363  -0.2174

          Ground-State Mulliken Net Atomic Charges

     Atom                 Charge (a.u.)    Spin (a.u.)
  --------------------------------------------------------
      1 C                    -1.225384       0.031416
      2 C                    -0.085519       0.093259
      3 C                     0.190230       0.065834
      4 C                    -1.279304       0.099192
      5 C                     1.441645       0.095852
      6 C                    -0.529765       0.088996
      7 O                    -0.313376       0.259615
      8 O                    -0.383752       0.280385
      9 S                     0.104667      -0.000955
     10 C                    -0.786673       0.004036
     11 C                     0.490340       0.000967
     12 C                    -1.814290       0.004130
     13 C                     0.103719      -0.003474
     14 C                     0.569282      -0.000287
     15 C                     0.630195       0.001553
     16 H                     0.234882      -0.007696
     17 H                     0.232446      -0.005457
     18 H                     0.188566      -0.010255
     19 H                     0.276208       0.000147
     20 H                    -0.026671       0.002641
     21 H                     0.298449      -0.000006
     22 H                     0.342708       0.000089
     23 H                     0.341394       0.000016
  --------------------------------------------------------
  Sum of atomic charges =    -1.000000

                    Cartesian Multipole Moments
 -----------------------------------------------------------------
    Charge (ESU x 10^10)
                -4.8032
    Dipole Moment (Debye)
         X      -9.8409      Y     -10.3072      Z     -16.6318
       Tot      21.9020
    Quadrupole Moments (Debye-Ang)
        XX    -124.0817     XY     -13.7182     YY    -145.2632
        XZ     -26.5594     YZ     -51.3393     ZZ    -164.9502

 Total job time:  428.99s(wall), 3313.43s(cpu)
        *  Thank you very much for using Q-Chem.  Have a nice day.  *
