 Q-Chem 5.4, Q-Chem, Inc., Pleasanton, CA (2021)
 Q-Chem 5.4.0 for Intel X86 EM64T Linux

User input:
--------------------------------------------------------------
$molecule
-1 2
C                  5.7605270000     -5.7373100000      0.4403700000
C                  5.8406390000     -5.9356710000     -0.9266300000
C                  5.1043590000     -5.1111980000     -1.8005910000
C                  4.9501990000     -4.7185340000      0.9802950000
C                  4.2095100000     -3.8893080000      0.1005400000
C                  4.3032400000     -4.1060280000     -1.2886870000
C                  4.8854840000     -4.5317630000      2.4377660000
C                  4.0296900000     -3.4654360000      2.9213050000
C                  3.3105300000     -2.6472620000      2.0560170000
C                  3.3508840000     -2.8151990000      0.6184050000
O                  5.5498320000     -5.2738730000      3.2147000000
O                  2.6836560000     -2.0781590000     -0.1617920000
H                  6.4698950000     -6.7255830000     -1.3268790000
C                  2.4174260000     -1.5362490000      2.5610150000
H                  5.1664820000     -5.2658140000     -2.8740810000
C                  3.9710830000     -3.2831490000      4.4207720000
C                  0.9384980000     -1.9532780000      2.6827880000
C                  0.0251480000     -0.8124720000      3.1447390000
C                 -1.4505110000     -1.2121810000      3.2593770000
H                  6.3154650000     -6.3554850000      1.1368290000
H                  3.7245010000     -3.4564910000     -1.9355970000
H                  2.4739050000     -0.7068760000      1.8490040000
H                  2.7690150000     -1.1689880000      3.5308280000
H                  4.5088160000     -4.1023990000      4.8986760000
H                  2.9414950000     -3.2672290000      4.7947430000
H                  4.4407720000     -2.3417510000      4.7348250000
H                  0.8523070000     -2.7960680000      3.3805170000
H                  0.6066160000     -2.3166650000      1.7050830000
H                  0.1181330000      0.0261870000      2.4422200000
H                  0.3729520000     -0.4357590000      4.1169680000
H                 -1.5440910000     -2.0529530000      3.9596780000
H                 -1.7966290000     -1.5878210000      2.2878140000
C                 -2.3681250000     -0.0718720000      3.7159180000
C                 -3.8435310000     -0.4727930000      3.8291010000
C                 -4.7612180000      0.6676070000      4.2847370000
C                 -6.2363640000      0.2657050000      4.3972610000
C                 -7.1540040000      1.4056330000      4.8533110000
H                 -2.2751960000      0.7682390000      3.0150210000
H                 -2.0210560000      0.3048910000      4.6874310000
H                 -3.9366910000     -1.3131260000      4.5296870000
H                 -4.1903370000     -0.8493620000      2.8578930000
H                 -4.6683240000      1.5077550000      3.5840000000
H                 -4.4144980000      1.0443170000      5.2561180000
H                 -6.3292920000     -0.5748230000      5.0975300000
H                 -6.5831490000     -0.1104060000      3.4258480000
H                 -7.0620220000      2.2467070000      4.1533640000
H                 -6.8083480000      1.7821750000      5.8252200000
C                 -8.6292440000      1.0042850000      4.9656010000
C                 -9.5378100000      2.1499310000      5.4220150000
H                 -8.7219190000      0.1644670000      5.6652280000
H                 -8.9753730000      0.6290120000      3.9946930000
H                 -9.2381440000      2.5236770000      6.4065250000
H                -10.5820870000      1.8311680000      5.4917330000
H                 -9.4934140000      2.9917210000      4.7233550000
$end
$rem
MAX_SCF_CYCLES=200
BASIS  =  6-311++G(d,p)
GUI  =  2
THRESH = 14
SCF_CONVERGENCE = 8
SCF_ALGORITHM = RCA_DIIS
scf_guess = GWH
JOB_TYPE  =  SP
METHOD  =  B3LYP
SOLVENT_METHOD = PCM
$end
$pcm
theory = CPCM
$end
$solvent
dielectric 37.219
opticaldielectric 1.43
$end

--------------------------------------------------------------

             Standard Nuclear Orientation (Angstroms)
    I     Atom           X                Y                Z
 ----------------------------------------------------------------
    1      C       5.7605270000    -5.7373100000     0.4403700000
    2      C       5.8406390000    -5.9356710000    -0.9266300000
    3      C       5.1043590000    -5.1111980000    -1.8005910000
    4      C       4.9501990000    -4.7185340000     0.9802950000
    5      C       4.2095100000    -3.8893080000     0.1005400000
    6      C       4.3032400000    -4.1060280000    -1.2886870000
    7      C       4.8854840000    -4.5317630000     2.4377660000
    8      C       4.0296900000    -3.4654360000     2.9213050000
    9      C       3.3105300000    -2.6472620000     2.0560170000
   10      C       3.3508840000    -2.8151990000     0.6184050000
   11      O       5.5498320000    -5.2738730000     3.2147000000
   12      O       2.6836560000    -2.0781590000    -0.1617920000
   13      H       6.4698950000    -6.7255830000    -1.3268790000
   14      C       2.4174260000    -1.5362490000     2.5610150000
   15      H       5.1664820000    -5.2658140000    -2.8740810000
   16      C       3.9710830000    -3.2831490000     4.4207720000
   17      C       0.9384980000    -1.9532780000     2.6827880000
   18      C       0.0251480000    -0.8124720000     3.1447390000
   19      C      -1.4505110000    -1.2121810000     3.2593770000
   20      H       6.3154650000    -6.3554850000     1.1368290000
   21      H       3.7245010000    -3.4564910000    -1.9355970000
   22      H       2.4739050000    -0.7068760000     1.8490040000
   23      H       2.7690150000    -1.1689880000     3.5308280000
   24      H       4.5088160000    -4.1023990000     4.8986760000
   25      H       2.9414950000    -3.2672290000     4.7947430000
   26      H       4.4407720000    -2.3417510000     4.7348250000
   27      H       0.8523070000    -2.7960680000     3.3805170000
   28      H       0.6066160000    -2.3166650000     1.7050830000
   29      H       0.1181330000     0.0261870000     2.4422200000
   30      H       0.3729520000    -0.4357590000     4.1169680000
   31      H      -1.5440910000    -2.0529530000     3.9596780000
   32      H      -1.7966290000    -1.5878210000     2.2878140000
   33      C      -2.3681250000    -0.0718720000     3.7159180000
   34      C      -3.8435310000    -0.4727930000     3.8291010000
   35      C      -4.7612180000     0.6676070000     4.2847370000
   36      C      -6.2363640000     0.2657050000     4.3972610000
   37      C      -7.1540040000     1.4056330000     4.8533110000
   38      H      -2.2751960000     0.7682390000     3.0150210000
   39      H      -2.0210560000     0.3048910000     4.6874310000
   40      H      -3.9366910000    -1.3131260000     4.5296870000
   41      H      -4.1903370000    -0.8493620000     2.8578930000
   42      H      -4.6683240000     1.5077550000     3.5840000000
   43      H      -4.4144980000     1.0443170000     5.2561180000
   44      H      -6.3292920000    -0.5748230000     5.0975300000
   45      H      -6.5831490000    -0.1104060000     3.4258480000
   46      H      -7.0620220000     2.2467070000     4.1533640000
   47      H      -6.8083480000     1.7821750000     5.8252200000
   48      C      -8.6292440000     1.0042850000     4.9656010000
   49      C      -9.5378100000     2.1499310000     5.4220150000
   50      H      -8.7219190000     0.1644670000     5.6652280000
   51      H      -8.9753730000     0.6290120000     3.9946930000
   52      H      -9.2381440000     2.5236770000     6.4065250000
   53      H     -10.5820870000     1.8311680000     5.4917330000
   54      H      -9.4934140000     2.9917210000     4.7233550000
 ----------------------------------------------------------------

  104   -1007.3095309244      4.55E-09 Convergence criterion met
 Total energy in the final basis set = -1007.30953092

                    Orbital Energies (a.u.)
 --------------------------------------------------------------

 Alpha MOs
 -- Occupied --
-19.0729 -19.0722 -10.2168 -10.2158 -10.1699 -10.1694 -10.1689 -10.1684
-10.1668 -10.1668 -10.1660 -10.1624 -10.1574 -10.1548 -10.1546 -10.1544
-10.1542 -10.1540 -10.1537 -10.1536 -10.1533 -10.1530 -10.1512 -10.1492
 -0.9979  -0.9951  -0.8547  -0.8174  -0.8065  -0.7925  -0.7727  -0.7541
 -0.7469  -0.7406  -0.7150  -0.6893  -0.6642  -0.6516  -0.6274  -0.5993
 -0.5900  -0.5753  -0.5723  -0.5664  -0.5655  -0.5475  -0.5119  -0.4864
 -0.4801  -0.4683  -0.4622  -0.4515  -0.4425  -0.4301  -0.4282  -0.4230
 -0.4217  -0.4165  -0.4138  -0.4107  -0.4035  -0.3969  -0.3937  -0.3918
 -0.3776  -0.3772  -0.3743  -0.3675  -0.3663  -0.3601  -0.3500  -0.3480
 -0.3418  -0.3380  -0.3335  -0.3321  -0.3241  -0.3229  -0.3208  -0.3167
 -0.3161  -0.3143  -0.3133  -0.2934  -0.2653  -0.2544  -0.2444  -0.2369
 -0.2320  -0.1484

 Beta MOs
 -- Occupied --
-19.0668 -19.0663 -10.2150 -10.2140 -10.1696 -10.1691 -10.1684 -10.1679
-10.1668 -10.1667 -10.1647 -10.1611 -10.1574 -10.1548 -10.1546 -10.1544
-10.1542 -10.1540 -10.1537 -10.1535 -10.1533 -10.1531 -10.1512 -10.1493
 -0.9873  -0.9844  -0.8527  -0.8143  -0.8060  -0.7919  -0.7719  -0.7528
 -0.7451  -0.7396  -0.7135  -0.6875  -0.6630  -0.6456  -0.6264  -0.5986
 -0.5884  -0.5739  -0.5719  -0.5664  -0.5649  -0.5448  -0.5099  -0.4842
 -0.4800  -0.4678  -0.4598  -0.4510  -0.4418  -0.4289  -0.4248  -0.4223
 -0.4206  -0.4128  -0.4120  -0.4059  -0.4017  -0.3947  -0.3918  -0.3869
 -0.3759  -0.3743  -0.3727  -0.3670  -0.3595  -0.3500  -0.3488  -0.3413
 -0.3380  -0.3354  -0.3323  -0.3298  -0.3236  -0.3218  -0.3205  -0.3166
 -0.3158  -0.3143  -0.3129  -0.2926  -0.2478  -0.2441  -0.2388  -0.2279
 -0.2261

          Ground-State Mulliken Net Atomic Charges

     Atom                 Charge (a.u.)    Spin (a.u.)
  --------------------------------------------------------
      1 C                     0.196012       0.034463
      2 C                    -0.465543       0.026151
      3 C                    -0.467246       0.027534
      4 C                     0.179637       0.009693
      5 C                    -0.220797       0.018209
      6 C                     0.085264       0.036840
      7 C                    -0.752133       0.104872
      8 C                     0.968172       0.090712
      9 C                     0.988349       0.084073
     10 C                    -0.806936       0.109909
     11 O                    -0.504931       0.221674
     12 O                    -0.488315       0.220674
     13 H                     0.193613      -0.002301
     14 C                    -0.502622       0.015075
     15 H                     0.192156      -0.002184
     16 C                    -0.559557      -0.002706
     17 C                    -1.016126       0.000597
     18 C                    -0.347199       0.005072
     19 C                    -0.035804      -0.004155
     20 H                     0.173134      -0.002281
     21 H                     0.172643      -0.002554
     22 H                     0.206242       0.003182
     23 H                     0.186165       0.000632
     24 H                     0.174888      -0.001591
     25 H                     0.170498       0.004368
     26 H                     0.184717       0.006071
     27 H                     0.137419      -0.000571
     28 H                     0.186609      -0.000611
     29 H                     0.125477       0.000186
     30 H                     0.116743      -0.000476
     31 H                     0.133428       0.000114
     32 H                     0.130241      -0.000163
     33 C                     0.034482      -0.000613
     34 C                     0.052118      -0.000116
     35 C                    -0.056624       0.000182
     36 C                    -0.303270       0.000030
     37 C                    -0.494111       0.000012
     38 H                     0.136428       0.000000
     39 H                     0.137018      -0.000000
     40 H                     0.133792      -0.000005
     41 H                     0.134212       0.000004
     42 H                     0.133374       0.000004
     43 H                     0.133488      -0.000003
     44 H                     0.131822       0.000001
     45 H                     0.131715      -0.000001
     46 H                     0.128696      -0.000001
     47 H                     0.128400       0.000001
     48 C                    -0.297122      -0.000005
     49 C                    -0.710610       0.000002
     50 H                     0.135159       0.000000
     51 H                     0.135308      -0.000000
     52 H                     0.144586       0.000000
     53 H                     0.152345       0.000000
     54 H                     0.144597      -0.000000
  --------------------------------------------------------
  Sum of atomic charges =    -1.000000

                    Cartesian Multipole Moments
 -----------------------------------------------------------------
    Charge (ESU x 10^10)
                -4.8032
    Dipole Moment (Debye)
         X     -20.1657      Y      18.0881      Z      -6.6057
       Tot      27.8831
    Quadrupole Moments (Debye-Ang)
        XX    -251.8038     XY      86.5343     YY    -236.3997
        XZ     -40.4588     YZ      39.5561     ZZ    -172.6771

 Total job time:  4470.70s(wall), 27684.37s(cpu)
        *  Thank you very much for using Q-Chem.  Have a nice day.  *
