 Q-Chem 5.4, Q-Chem, Inc., Pleasanton, CA (2021)
 Q-Chem 5.4.0 for Intel X86 EM64T Linux

User input:
--------------------------------------------------------------
$molecule
-2 1
C                 -2.4145290000      0.3889170000      1.2821780000
C                 -3.5885840000      1.1340540000      1.3829990000
C                 -3.7031970000      2.3259190000      2.3068810000
C                 -4.7807890000      0.7936640000      0.6338040000
O                 -5.8827360000      1.4433510000      0.7417600000
C                 -4.6577250000     -0.3485230000     -0.2439430000
C                 -3.4823730000     -1.0756130000     -0.3602400000
O                 -3.4361320000     -2.1106200000     -1.2872400000
C                 -3.1858690000     -3.3918560000     -0.7285270000
C                 -2.2946570000     -0.7465390000      0.3940830000
O                 -1.2049930000     -1.4136920000      0.2733150000
O                 -5.7737690000     -0.7843650000     -0.9499200000
C                 -6.2655990000      0.1449080000     -1.9041660000
H                 -4.6571550000      2.8213210000      2.1154740000
H                 -2.8895020000      3.0477280000      2.1634490000
H                 -3.6852060000      2.0343680000      3.3679740000
H                 -4.0147870000     -3.6975930000     -0.0717130000
H                 -3.1249460000     -4.0922350000     -1.5685370000
H                 -2.2448970000     -3.3913590000     -0.1714330000
H                 -6.5144870000      1.0947590000     -1.4226420000
H                 -7.1657830000     -0.3018540000     -2.3402970000
H                 -5.5274560000      0.3073880000     -2.7043400000
C                 -1.1759750000      0.7277940000      2.0823880000
C                 -0.1543180000      1.5971000000      1.3208670000
C                  1.1101810000      1.8987200000      2.1357110000
C                  2.1390020000      2.7721700000      1.4057660000
C                  3.3948050000      3.0771750000      2.2336210000
C                  4.4249460000      3.9588440000      1.5159300000
C                  5.6716670000      4.2659390000      2.3564690000
C                  6.7022270000      5.1523180000      1.6458020000
C                  7.9437900000      5.4595880000      2.4938150000
C                  8.9719500000      6.3462840000      1.7852330000
H                 -0.6773040000     -0.2126670000      2.3434590000
H                 -1.4467350000      1.2346040000      3.0167090000
H                 -0.6293860000      2.5406250000      1.0216490000
H                  0.1144280000      1.0694720000      0.4000460000
H                  1.5833990000      0.9498150000      2.4224200000
H                  0.8265290000      2.3925800000      3.0766130000
H                  1.6645960000      3.7178840000      1.1102930000
H                  2.4326740000      2.2765960000      0.4711540000
H                  3.8715790000      2.1315650000      2.5249700000
H                  3.0966770000      3.5654270000      3.1715500000
H                  3.9485430000      4.9031110000      1.2200630000
H                  4.7308030000      3.4700880000      0.5813830000
H                  6.1497450000      3.3217970000      2.6500680000
H                  5.3638510000      4.7516400000      3.2922510000
H                  6.2268670000      6.0969100000      1.3504330000
H                  7.0160680000      4.6679790000      0.7118340000
H                  8.4204820000      4.5160900000      2.7893940000
H                  7.6307760000      5.9429240000      3.4282990000
H                  9.3410480000      5.8769930000      0.8659850000
H                  9.8426640000      6.5445230000      2.4194120000
H                  8.5434430000      7.3173770000      1.5115890000
$end
$rem
MAX_SCF_CYCLES=200
BASIS  =  6-311++G(d,p)
GUI  =  2
JOB_TYPE  =  SP
METHOD  =  B3LYP
THRESH = 14
SCF_CONVERGENCE = 8
scf_guess = GWH
SCF_ALGORITHM = RCA_DIIS
SOLVENT_METHOD = PCM
$end
$pcm
theory = CPCM
$end
$solvent
dielectric 37.219
opticaldielectric 1.43
$end

--------------------------------------------------------------

             Standard Nuclear Orientation (Angstroms)
    I     Atom           X                Y                Z
 ----------------------------------------------------------------
    1      C      -2.4145290000     0.3889170000     1.2821780000
    2      C      -3.5885840000     1.1340540000     1.3829990000
    3      C      -3.7031970000     2.3259190000     2.3068810000
    4      C      -4.7807890000     0.7936640000     0.6338040000
    5      O      -5.8827360000     1.4433510000     0.7417600000
    6      C      -4.6577250000    -0.3485230000    -0.2439430000
    7      C      -3.4823730000    -1.0756130000    -0.3602400000
    8      O      -3.4361320000    -2.1106200000    -1.2872400000
    9      C      -3.1858690000    -3.3918560000    -0.7285270000
   10      C      -2.2946570000    -0.7465390000     0.3940830000
   11      O      -1.2049930000    -1.4136920000     0.2733150000
   12      O      -5.7737690000    -0.7843650000    -0.9499200000
   13      C      -6.2655990000     0.1449080000    -1.9041660000
   14      H      -4.6571550000     2.8213210000     2.1154740000
   15      H      -2.8895020000     3.0477280000     2.1634490000
   16      H      -3.6852060000     2.0343680000     3.3679740000
   17      H      -4.0147870000    -3.6975930000    -0.0717130000
   18      H      -3.1249460000    -4.0922350000    -1.5685370000
   19      H      -2.2448970000    -3.3913590000    -0.1714330000
   20      H      -6.5144870000     1.0947590000    -1.4226420000
   21      H      -7.1657830000    -0.3018540000    -2.3402970000
   22      H      -5.5274560000     0.3073880000    -2.7043400000
   23      C      -1.1759750000     0.7277940000     2.0823880000
   24      C      -0.1543180000     1.5971000000     1.3208670000
   25      C       1.1101810000     1.8987200000     2.1357110000
   26      C       2.1390020000     2.7721700000     1.4057660000
   27      C       3.3948050000     3.0771750000     2.2336210000
   28      C       4.4249460000     3.9588440000     1.5159300000
   29      C       5.6716670000     4.2659390000     2.3564690000
   30      C       6.7022270000     5.1523180000     1.6458020000
   31      C       7.9437900000     5.4595880000     2.4938150000
   32      C       8.9719500000     6.3462840000     1.7852330000
   33      H      -0.6773040000    -0.2126670000     2.3434590000
   34      H      -1.4467350000     1.2346040000     3.0167090000
   35      H      -0.6293860000     2.5406250000     1.0216490000
   36      H       0.1144280000     1.0694720000     0.4000460000
   37      H       1.5833990000     0.9498150000     2.4224200000
   38      H       0.8265290000     2.3925800000     3.0766130000
   39      H       1.6645960000     3.7178840000     1.1102930000
   40      H       2.4326740000     2.2765960000     0.4711540000
   41      H       3.8715790000     2.1315650000     2.5249700000
   42      H       3.0966770000     3.5654270000     3.1715500000
   43      H       3.9485430000     4.9031110000     1.2200630000
   44      H       4.7308030000     3.4700880000     0.5813830000
   45      H       6.1497450000     3.3217970000     2.6500680000
   46      H       5.3638510000     4.7516400000     3.2922510000
   47      H       6.2268670000     6.0969100000     1.3504330000
   48      H       7.0160680000     4.6679790000     0.7118340000
   49      H       8.4204820000     4.5160900000     2.7893940000
   50      H       7.6307760000     5.9429240000     3.4282990000
   51      H       9.3410480000     5.8769930000     0.8659850000
   52      H       9.8426640000     6.5445230000     2.4194120000
   53      H       8.5434430000     7.3173770000     1.5115890000
 ----------------------------------------------------------------

   82   -1043.4998323025      7.95E-09 Convergence criterion met
 Total energy in the final basis set = -1043.49983230

                    Orbital Energies (a.u.)
 --------------------------------------------------------------

 Alpha MOs
 -- Occupied --
-19.1095 -19.1093 -19.0090 -19.0088 -10.1875 -10.1875 -10.1648 -10.1643
-10.1595 -10.1586 -10.1566 -10.1538 -10.1534 -10.1528 -10.1520 -10.1505
-10.1505 -10.1476 -10.1419 -10.1346 -10.1308 -10.1181 -10.1148  -1.0296
 -1.0119  -0.9289  -0.9264  -0.8036  -0.7900  -0.7786  -0.7581  -0.7358
 -0.7186  -0.6887  -0.6778  -0.6688  -0.6464  -0.6148  -0.6049  -0.5874
 -0.5698  -0.5658  -0.5605  -0.5267  -0.5182  -0.4806  -0.4759  -0.4645
 -0.4555  -0.4531  -0.4411  -0.4343  -0.4259  -0.4241  -0.4190  -0.4125
 -0.4118  -0.4028  -0.3985  -0.3894  -0.3808  -0.3763  -0.3735  -0.3600
 -0.3574  -0.3530  -0.3485  -0.3444  -0.3415  -0.3313  -0.3290  -0.3253
 -0.3215  -0.3195  -0.3160  -0.3137  -0.3129  -0.3110  -0.3086  -0.3050
 -0.2978  -0.2891  -0.2585  -0.2556  -0.2133  -0.1901  -0.1872  -0.1820
 -0.1052

          Ground-State Mulliken Net Atomic Charges

     Atom                 Charge (a.u.)
  ----------------------------------------
      1 C                     1.000616
      2 C                     0.788894
      3 C                    -0.607558
      4 C                    -0.472010
      5 O                    -0.734301
      6 C                    -0.278050
      7 C                    -0.347557
      8 O                    -0.245853
      9 C                    -0.242727
     10 C                    -0.657891
     11 O                    -0.710419
     12 O                    -0.237132
     13 C                    -0.247581
     14 H                     0.156582
     15 H                     0.142812
     16 H                     0.150823
     17 H                     0.119946
     18 H                     0.144951
     19 H                     0.166587
     20 H                     0.167938
     21 H                     0.149451
     22 H                     0.121917
     23 C                    -0.368251
     24 C                    -0.892884
     25 C                    -0.274612
     26 C                    -0.041521
     27 C                     0.067659
     28 C                    -0.029382
     29 C                    -0.238672
     30 C                    -0.453503
     31 C                    -0.288614
     32 C                    -0.717924
     33 H                     0.179645
     34 H                     0.145535
     35 H                     0.132363
     36 H                     0.192480
     37 H                     0.124738
     38 H                     0.109302
     39 H                     0.129956
     40 H                     0.127718
     41 H                     0.132779
     42 H                     0.134052
     43 H                     0.133233
     44 H                     0.135373
     45 H                     0.130960
     46 H                     0.130513
     47 H                     0.128431
     48 H                     0.129123
     49 H                     0.135286
     50 H                     0.135381
     51 H                     0.144974
     52 H                     0.151394
     53 H                     0.145028
  ----------------------------------------
  Sum of atomic charges =    -2.000000

                    Cartesian Multipole Moments
 -----------------------------------------------------------------
    Charge (ESU x 10^10)
                -9.6064
    Dipole Moment (Debye)
         X      34.8810      Y       1.0643      Z      -3.3470
       Tot      35.0574
    Quadrupole Moments (Debye-Ang)
        XX    -330.2046     XY      13.7221     YY    -170.1767
        XZ      16.1549     YZ      -7.8584     ZZ    -161.3491

 Total job time:  2584.79s(wall), 15228.41s(cpu)
        *  Thank you very much for using Q-Chem.  Have a nice day.  *
