 Gaussian 16, Revision A.03,
 Gaussian 16:  ES64L-G16RevA.03 25-Dec-2016

 ----------------------------------------------------------------
 #P UB3LYP/6-311++G(d,p) SCRF=(PCM,Solvent=n,n-DiMethylFormamide)
 ----------------------------------------------------------------

 ------------------
 Quinone PCM in DMF
 ------------------
 Symbolic Z-matrix:
 Charge =  0 Multiplicity = 1

                         Standard orientation:
 ---------------------------------------------------------------------
 Center     Atomic      Atomic             Coordinates (Angstroms)
 Number     Number       Type             X           Y           Z
 ---------------------------------------------------------------------
      1          6           0       -4.349281    0.661173    0.004044
      2          6           0       -2.865034    0.918341    0.004394
      3          6           0       -2.354685    2.221875    0.002590
      4          6           0       -0.989600    2.465796   -0.001448
      5          6           0       -0.082845    1.405771   -0.006304
      6          6           0        1.379284    1.718680   -0.005672
      7          8           0        1.769908    2.873990   -0.006153
      8          6           0        2.329578    0.574269   -0.000426
      9          6           0        3.704554    0.828368    0.013709
     10          6           0        4.607977   -0.227379    0.019114
     11          6           0        4.145484   -1.546579    0.008943
     12          6           0        2.780846   -1.808275   -0.006900
     13          6           0        1.864525   -0.751725   -0.010700
     14          6           0        0.408543   -1.069384   -0.030747
     15          8           0        0.012366   -2.219331   -0.070373
     16          6           0       -0.551457    0.078363   -0.006483
     17          6           0       -1.934708   -0.124724    0.002101
     18          7           0       -2.512467   -1.498893    0.020751
     19          8           0       -2.707991   -1.997004    1.115807
     20          8           0       -2.835675   -1.972720   -1.054783
     21          1           0       -4.899866    1.599370    0.071060
     22          1           0       -4.641701    0.029931    0.847278
     23          1           0       -4.656129    0.146093   -0.910250
     24          1           0       -3.050041    3.053788    0.006305
     25          1           0       -0.600253    3.476086   -0.000816
     26          1           0        4.040191    1.857897    0.020270
     27          1           0        5.673182   -0.026893    0.030913
     28          1           0        4.852218   -2.368438    0.013095
     29          1           0        2.401732   -2.822497   -0.016387
 ---------------------------------------------------------------------

 SCF Done:  E(UB3LYP) =  -932.842806455     A.U. after   16 cycles

 The electronic state is 1-A.
 Alpha  occ. eigenvalues --  -19.19029 -19.19018 -19.14379 -19.13867 -14.58011
 Alpha  occ. eigenvalues --  -10.29781 -10.29133 -10.26495 -10.23564 -10.23346
 Alpha  occ. eigenvalues --  -10.22284 -10.21603 -10.21474 -10.21146 -10.21036
 Alpha  occ. eigenvalues --  -10.20353 -10.20324 -10.20280 -10.20259 -10.18703
 Alpha  occ. eigenvalues --   -1.26767  -1.09584  -1.08188  -1.07370  -0.92082
 Alpha  occ. eigenvalues --   -0.89446  -0.84148  -0.82461  -0.79284  -0.78477
 Alpha  occ. eigenvalues --   -0.74424  -0.72513  -0.68663  -0.66810  -0.65185
 Alpha  occ. eigenvalues --   -0.61708  -0.60015  -0.58947  -0.56511  -0.55788
 Alpha  occ. eigenvalues --   -0.54886  -0.54292  -0.51396  -0.49989  -0.49076
 Alpha  occ. eigenvalues --   -0.48316  -0.46912  -0.46797  -0.45844  -0.45581
 Alpha  occ. eigenvalues --   -0.44613  -0.44565  -0.43048  -0.41763  -0.40651
 Alpha  occ. eigenvalues --   -0.39878  -0.39722  -0.38605  -0.37679  -0.37534
 Alpha  occ. eigenvalues --   -0.34772  -0.34332  -0.33778  -0.29902  -0.29886
 Alpha  occ. eigenvalues --   -0.28820  -0.28596  -0.28388  -0.28218
 Alpha virt. eigenvalues --   -0.12765  -0.10359  -0.08581  -0.04637  -0.03855
 Alpha virt. eigenvalues --   -0.00721   0.00026   0.00953   0.01681   0.01935
 Alpha virt. eigenvalues --    0.02161   0.02634   0.03503   0.03818   0.03936

  Beta  occ. eigenvalues --  -19.19029 -19.19018 -19.14379 -19.13867 -14.58011
  Beta  occ. eigenvalues --  -10.29781 -10.29133 -10.26495 -10.23564 -10.23346
  Beta  occ. eigenvalues --  -10.22284 -10.21603 -10.21474 -10.21146 -10.21036
  Beta  occ. eigenvalues --  -10.20353 -10.20324 -10.20280 -10.20259 -10.18703
  Beta  occ. eigenvalues --   -1.26767  -1.09584  -1.08188  -1.07370  -0.92082
  Beta  occ. eigenvalues --   -0.89446  -0.84148  -0.82461  -0.79284  -0.78477
  Beta  occ. eigenvalues --   -0.74424  -0.72513  -0.68663  -0.66810  -0.65185
  Beta  occ. eigenvalues --   -0.61708  -0.60015  -0.58947  -0.56511  -0.55788
  Beta  occ. eigenvalues --   -0.54886  -0.54292  -0.51396  -0.49989  -0.49076
  Beta  occ. eigenvalues --   -0.48316  -0.46912  -0.46797  -0.45844  -0.45581
  Beta  occ. eigenvalues --   -0.44613  -0.44565  -0.43048  -0.41763  -0.40651
  Beta  occ. eigenvalues --   -0.39878  -0.39722  -0.38605  -0.37679  -0.37534
  Beta  occ. eigenvalues --   -0.34772  -0.34332  -0.33778  -0.29902  -0.29886
  Beta  occ. eigenvalues --   -0.28820  -0.28596  -0.28388  -0.28218
  Beta virt. eigenvalues --   -0.12765  -0.10359  -0.08581  -0.04637  -0.03855
  Beta virt. eigenvalues --   -0.00721   0.00026   0.00953   0.01681   0.01935
  Beta virt. eigenvalues --    0.02161   0.02634   0.03503   0.03818   0.03936

 Mulliken charges and spin densities:
               1          2
     1  C   -0.482605   0.000000
     2  C    0.936379  -0.000000
     3  C   -1.035751  -0.000000
     4  C   -0.126327   0.000000
     5  C    0.607907  -0.000000
     6  C   -0.666330   0.000000
     7  O   -0.255067   0.000000
     8  C    0.084578  -0.000000
     9  C    0.185873  -0.000000
    10  C   -0.356827  -0.000000
    11  C   -0.401107  -0.000000
    12  C    0.185041   0.000000
    13  C    0.060360   0.000000
    14  C   -0.653436  -0.000000
    15  O   -0.215190   0.000000
    16  C    0.174431   0.000000
    17  C    0.325742   0.000000
    18  N   -0.181752   0.000000
    19  O    0.013701  -0.000000
    20  O    0.012133  -0.000000
    21  H    0.194759   0.000000
    22  H    0.197534   0.000000
    23  H    0.206164   0.000000
    24  H    0.193516  -0.000000
    25  H    0.194130  -0.000000
    26  H    0.188096   0.000000
    27  H    0.212588  -0.000000
    28  H    0.213636   0.000000
    29  H    0.187826  -0.000000
 Sum of Mulliken charges =  -0.00000   0.00000

 Dipole moment (field-independent basis, Debye):
    X=              1.9441    Y=              4.2069    Z=              0.0589  Tot=              4.6348
 Quadrupole moment (field-independent basis, Debye-Ang):
   XX=            -85.3721   YY=           -126.3925   ZZ=           -119.0692
   XY=            -27.4159   XZ=              0.0086   YZ=             -0.0439

 Normal termination of Gaussian 16 at Sun Jan 14 01:08:31 2024.
