 Gaussian 16, Revision A.03,
 Gaussian 16:  ES64L-G16RevA.03 25-Dec-2016

 ----------------------------------------------------------------
 #P UB3LYP/6-311++G(d,p) SCRF=(PCM,Solvent=n,n-DiMethylFormamide)
 ----------------------------------------------------------------

 ------------------
 Radical PCM in DMF
 ------------------
 Symbolic Z-matrix:
 Charge = -1 Multiplicity = 2

                         Standard orientation:
 ---------------------------------------------------------------------
 Center     Atomic      Atomic             Coordinates (Angstroms)
 Number     Number       Type             X           Y           Z
 ---------------------------------------------------------------------
      1          6           0       -3.089427   -1.276977   -0.630085
      2          6           0       -1.737558   -1.499236   -0.530256
      3          6           0       -0.860434   -0.512252    0.019201
      4          6           0       -1.400882    0.689614    0.449636
      5          6           0        0.576288   -0.803464    0.136909
      6          6           0        1.697110    0.101847   -0.042842
      7          6           0        1.134653   -2.026139    0.431738
      8          6           0        2.892522   -0.642776    0.160142
      9          6           0        1.806965    1.456753   -0.394970
     10          6           0        3.066421    2.031729   -0.507192
     11          6           0        4.234556    1.278724   -0.279701
     12          6           0        4.161903   -0.068841    0.051019
     13          7           0        2.522441   -1.940085    0.434502
     14          1           0       -0.773146    1.445141    0.911584
     15          1           0        0.645612   -2.960777    0.656589
     16          1           0        0.914304    2.041947   -0.577805
     17          1           0        3.154130    3.078939   -0.776070
     18          1           0        5.205222    1.755173   -0.369442
     19          1           0        5.061366   -0.654794    0.213438
     20          1           0        3.148078   -2.683737    0.690423
     21          6           0       -3.722794   -0.049327   -0.199126
     22          6           0       -2.806903    1.008931    0.380668
     23          8           0       -4.955154    0.130764   -0.302105
     24          8           0       -3.253453    2.104699    0.790002
     25          1           0       -3.745048   -2.027979   -1.063044
     26          1           0       -1.313274   -2.428527   -0.901204
 ---------------------------------------------------------------------

 SCF Done:  E(UB3LYP) =  -744.442560252     A.U. after   22 cycles

 The electronic state is 2-A.
 Alpha  occ. eigenvalues --  -19.07885 -19.07443 -14.35999 -10.21569 -10.21444
 Alpha  occ. eigenvalues --  -10.21054 -10.20782 -10.18215 -10.17829 -10.17721
 Alpha  occ. eigenvalues --  -10.17531 -10.17428 -10.17413 -10.16963 -10.16796
 Alpha  occ. eigenvalues --  -10.15688 -10.15162  -1.01252  -0.98645  -0.98461
 Alpha  occ. eigenvalues --   -0.84830  -0.83733  -0.78862  -0.74229  -0.73335
 Alpha  occ. eigenvalues --   -0.72237  -0.68774  -0.62902  -0.60545  -0.59741
 Alpha  occ. eigenvalues --   -0.58100  -0.55024  -0.53790  -0.49368  -0.47966
 Alpha  occ. eigenvalues --   -0.47315  -0.46105  -0.44251  -0.43886  -0.43268
 Alpha  occ. eigenvalues --   -0.42849  -0.41141  -0.40816  -0.40493  -0.39932
 Alpha  occ. eigenvalues --   -0.37609  -0.36775  -0.35704  -0.34833  -0.34613
 Alpha  occ. eigenvalues --   -0.33915  -0.32837  -0.28513  -0.25895  -0.23706
 Alpha  occ. eigenvalues --   -0.23419  -0.22141  -0.20925  -0.16171
 Alpha virt. eigenvalues --   -0.02951  -0.00394   0.00012   0.00555   0.00643
 Alpha virt. eigenvalues --    0.00857   0.00916   0.01983   0.02455   0.03205
 Alpha virt. eigenvalues --    0.03457   0.04238   0.04607   0.05297   0.06085

  Beta  occ. eigenvalues --  -19.07240 -19.06853 -14.35973 -10.21438 -10.21327
  Beta  occ. eigenvalues --  -10.21057 -10.20715 -10.18039 -10.17826 -10.17706
  Beta  occ. eigenvalues --  -10.17559 -10.17432 -10.17416 -10.16958 -10.16629
  Beta  occ. eigenvalues --  -10.15611 -10.15135  -1.00187  -0.98400  -0.97499
  Beta  occ. eigenvalues --   -0.84794  -0.83319  -0.78671  -0.74204  -0.73179
  Beta  occ. eigenvalues --   -0.71977  -0.67938  -0.62864  -0.60350  -0.59500
  Beta  occ. eigenvalues --   -0.57773  -0.54882  -0.53579  -0.49301  -0.47923
  Beta  occ. eigenvalues --   -0.47097  -0.45862  -0.43970  -0.43830  -0.43122
  Beta  occ. eigenvalues --   -0.42711  -0.40622  -0.40196  -0.39834  -0.38865
  Beta  occ. eigenvalues --   -0.37322  -0.36680  -0.35527  -0.34511  -0.33717
  Beta  occ. eigenvalues --   -0.32167  -0.31506  -0.27926  -0.25280  -0.23341
  Beta  occ. eigenvalues --   -0.22743  -0.21571  -0.20035
  Beta virt. eigenvalues --   -0.09441  -0.02765  -0.00362   0.00558   0.00653
  Beta virt. eigenvalues --    0.00922   0.01419   0.01945   0.02283   0.02499
  Beta virt. eigenvalues --    0.03267   0.03584   0.04316   0.04708   0.05447

 Mulliken charges and spin densities:
               1          2
     1  C    0.299315   0.074542
     2  C   -1.018874   0.089242
     3  C    1.206419   0.119592
     4  C   -0.759655  -0.017321
     5  C    0.375557   0.092951
     6  C    1.219511  -0.066821
     7  C   -0.225708   0.030282
     8  C    0.114187  -0.029077
     9  C   -0.993149   0.023189
    10  C   -0.577103   0.012788
    11  C   -0.233166  -0.006415
    12  C   -0.577144  -0.005774
    13  N   -0.102644   0.008759
    14  H    0.174023  -0.003913
    15  H    0.203787  -0.003264
    16  H    0.139513  -0.001241
    17  H    0.186567  -0.000155
    18  H    0.182803  -0.000017
    19  H    0.183223   0.000043
    20  H    0.338813  -0.000499
    21  C   -0.468428   0.119673
    22  C    0.007395   0.130095
    23  O   -0.495006   0.233640
    24  O   -0.521792   0.214361
    25  H    0.185831  -0.005313
    26  H    0.155724  -0.009346
 Sum of Mulliken charges =  -1.00000   1.00000

 Dipole moment (field-independent basis, Debye):
    X=             20.9919    Y=             -8.5861    Z=             -0.5403  Tot=             22.6864
 Quadrupole moment (field-independent basis, Debye-Ang):
   XX=           -179.3466   YY=           -100.6531   ZZ=           -107.5079
   XY=             11.9148   XZ=              6.1759   YZ=             -7.9759

 Normal termination of Gaussian 16 at Sat Jan 13 19:21:15 2024.
