 Q-Chem 5.4, Q-Chem, Inc., Pleasanton, CA (2021)
 Q-Chem 5.4.0 for Intel X86 EM64T Linux

User input:
--------------------------------------------------------------
$molecule
-1 2
O                 -1.0928960000      1.7445260000     -1.8638000000
C                 -0.8128180000      0.8793770000     -1.0090500000
C                 -1.8276060000     -0.0190670000     -0.4667030000
C                 -1.5529050000     -0.9665370000      0.4611190000
C                 -0.2158970000     -1.1796200000      1.0073150000
O                  0.0101180000     -2.0602930000      1.8620890000
C                  0.8198550000     -0.2943730000      0.4827290000
C                  0.5347970000      0.6891780000     -0.4804430000
C                  1.5561090000      1.5436730000     -0.9811350000
N                  2.3874920000      2.2396130000     -1.3890670000
C                  2.1389110000     -0.4663620000      0.9873680000
N                  3.2129780000     -0.6064020000      1.3980900000
H                 -2.8314230000      0.1186840000     -0.8567370000
H                 -2.3267160000     -1.6223960000      0.8482260000
$end
$rem
MAX_SCF_CYCLES=200
BASIS  =  6-311++G(d,p)
GUI  =  2
JOB_TYPE  =  SP
METHOD  =  B3LYP
SOLVENT_METHOD = COSMO
$end
$solvent
dielectric 37.219
opticaldielectric 1.43
$end

--------------------------------------------------------------

             Standard Nuclear Orientation (Angstroms)
    I     Atom           X                Y                Z
 ----------------------------------------------------------------
    1      O       2.7188202421     0.9452643215     0.0000469475
    2      C       1.4711371969     0.9167856588    -0.0001122954
    3      C       0.6764531090     2.1413728345     0.0000425678
    4      C      -0.6778044453     2.1409482091     0.0000293954
    5      C      -1.4719072076     0.9159071413    -0.0000838529
    6      O      -2.7195190100     0.9436756159    -0.0000031016
    7      C      -0.7028716011    -0.3251485222    -0.0000206986
    8      C       0.7029487351    -0.3248075476    -0.0000396318
    9      C       1.4370214100    -1.5434419029    -0.0000028216
   10      N       2.0350687209    -2.5355498138     0.0000023244
   11      C      -1.4361131260    -1.5443721788     0.0000731929
   12      N      -2.0330352722    -2.5371499139     0.0000146998
   13      H       1.2433714334     3.0673069773     0.0001154948
   14      H      -1.2451998569     3.0666094663     0.0000994336
 ----------------------------------------------------------------

    9    -566.2011104746      5.55e-06  Convergence criterion met
 Total energy in the final basis set =     -566.2011104746
    5    -566.2816241635      6.71e-06  Convergence criterion met
 Total energy in the final basis set =     -566.2816241635

                    Orbital Energies (a.u.)
 --------------------------------------------------------------

 Alpha MOs
 -- Occupied --
-19.1125 -19.1125 -14.3282 -14.3282 -10.2625 -10.2625 -10.2319 -10.2314
-10.2295 -10.2295 -10.1941 -10.1934  -1.0414  -1.0390  -0.9324  -0.9254
 -0.8656  -0.7987  -0.7420  -0.6687  -0.6344  -0.5468  -0.5357  -0.5143
 -0.4698  -0.4535  -0.4469  -0.4223  -0.4140  -0.4070  -0.3933  -0.3908
 -0.3881  -0.3715  -0.3586  -0.3524  -0.3085  -0.2865  -0.2775  -0.2730
 -0.1995

 Beta MOs
 -- Occupied --
-19.1062 -19.1062 -14.3268 -14.3268 -10.2620 -10.2620 -10.2301 -10.2301
-10.2293 -10.2288 -10.1938 -10.1931  -1.0308  -1.0281  -0.9300  -0.9233
 -0.8590  -0.7960  -0.7322  -0.6648  -0.6313  -0.5435  -0.5326  -0.5118
 -0.4679  -0.4402  -0.4378  -0.4186  -0.4052  -0.3926  -0.3912  -0.3887
 -0.3774  -0.3613  -0.3574  -0.3514  -0.2820  -0.2743  -0.2715  -0.2671

          Ground-State Mulliken Net Atomic Charges

     Atom                 Charge (a.u.)    Spin (a.u.)
  --------------------------------------------------------
      1 O                    -0.437992       0.228201
      2 C                    -0.763876       0.009132
      3 C                     0.123203       0.026654
      4 C                     0.123723       0.026670
      5 C                    -0.764945       0.009137
      6 O                    -0.437947       0.228140
      7 C                     1.720652       0.196822
      8 C                     1.721971       0.196853
      9 C                    -1.075707      -0.026517
     10 N                    -0.310389       0.068670
     11 C                    -1.074919      -0.026478
     12 N                    -0.310283       0.068637
     13 H                     0.243255      -0.002961
     14 H                     0.243252      -0.002960
  --------------------------------------------------------
  Sum of atomic charges =    -1.000000

                    Cartesian Multipole Moments
 -----------------------------------------------------------------
    Charge (ESU x 10^10)
                -4.8032
    Dipole Moment (Debye)
         X      -0.0038      Y       6.9000      Z      -0.0004
       Tot       6.9000
    Quadrupole Moments (Debye-Ang)
        XX    -118.5101     XY      -0.0062     YY     -90.5283
        XZ      -0.0001     YZ      -0.0003     ZZ     -68.8748

 Total job time:  24.09s(wall), 176.09s(cpu)
        *  Thank you very much for using Q-Chem.  Have a nice day.  *
