 Q-Chem 5.4, Q-Chem, Inc., Pleasanton, CA (2021)
 Q-Chem 5.4.0 for Intel X86 EM64T Linux

User input:
--------------------------------------------------------------
$molecule
-1 2
C                  1.2829130000     -0.5731710000      1.8459090000
C                  0.8736310000     -1.6009250000      0.9007440000
C                 -0.2502770000     -1.5078610000      0.1362730000
C                 -1.1426900000     -0.3627240000      0.1980480000
C                 -0.7508030000      0.6769060000      1.1234110000
C                  0.3927510000      0.5784560000      1.8838950000
O                  2.3025630000     -0.7002120000      2.5660450000
O                 -2.1867790000     -0.2809100000     -0.5046610000
S                  0.7970420000      1.9684550000      2.9504110000
C                  0.7712730000      1.3190180000      4.6473000000
C                 -0.3845890000      1.4861430000      5.4068940000
C                  1.9045210000      0.7025670000      5.1732820000
C                  1.8699360000      0.2436650000      6.4889430000
C                 -0.4078110000      1.0208690000      6.7206430000
C                  0.7187890000      0.4008680000      7.2614860000
O                  2.1589250000      2.4553900000      2.6870550000
O                 -0.3243120000      2.9279570000      2.8753120000
H                  1.5244090000     -2.4687460000      0.8453920000
H                 -0.5256040000     -2.2994450000     -0.5548940000
H                 -1.3842480000      1.5522890000      1.1993550000
H                 -1.2397160000      1.9852920000      4.9684630000
H                  2.7735170000      0.5689650000      4.5442310000
H                  2.7441430000     -0.2422930000      6.9087640000
H                 -1.3024360000      1.1474810000      7.3210490000
H                  0.6987740000      0.0385070000      8.2842680000
$end
$rem
MAX_SCF_CYCLES=200
BASIS  =  6-311++G(d,p)
GUI  =  2
JOB_TYPE  =  SP
METHOD  =  B3LYP
SOLVENT_METHOD = PCM
$end
$pcm
theory = CPCM
$end
$solvent
dielectric 37.219
opticaldielectric 1.43
$end

--------------------------------------------------------------

             Standard Nuclear Orientation (Angstroms)
    I     Atom           X                Y                Z
 ----------------------------------------------------------------
    1      C       1.2829130000    -0.5731710000     1.8459090000
    2      C       0.8736310000    -1.6009250000     0.9007440000
    3      C      -0.2502770000    -1.5078610000     0.1362730000
    4      C      -1.1426900000    -0.3627240000     0.1980480000
    5      C      -0.7508030000     0.6769060000     1.1234110000
    6      C       0.3927510000     0.5784560000     1.8838950000
    7      O       2.3025630000    -0.7002120000     2.5660450000
    8      O      -2.1867790000    -0.2809100000    -0.5046610000
    9      S       0.7970420000     1.9684550000     2.9504110000
   10      C       0.7712730000     1.3190180000     4.6473000000
   11      C      -0.3845890000     1.4861430000     5.4068940000
   12      C       1.9045210000     0.7025670000     5.1732820000
   13      C       1.8699360000     0.2436650000     6.4889430000
   14      C      -0.4078110000     1.0208690000     6.7206430000
   15      C       0.7187890000     0.4008680000     7.2614860000
   16      O       2.1589250000     2.4553900000     2.6870550000
   17      O      -0.3243120000     2.9279570000     2.8753120000
   18      H       1.5244090000    -2.4687460000     0.8453920000
   19      H      -0.5256040000    -2.2994450000    -0.5548940000
   20      H      -1.3842480000     1.5522890000     1.1993550000
   21      H      -1.2397160000     1.9852920000     4.9684630000
   22      H       2.7735170000     0.5689650000     4.5442310000
   23      H       2.7441430000    -0.2422930000     6.9087640000
   24      H      -1.3024360000     1.1474810000     7.3210490000
   25      H       0.6987740000     0.0385070000     8.2842680000
 ----------------------------------------------------------------

    9   -1161.4899671882      6.30e-06  Convergence criterion met
 Total energy in the final basis set =    -1161.4899671882

                    Orbital Energies (a.u.)
 --------------------------------------------------------------

 Alpha MOs
 -- Occupied --
-89.0554 -19.1236 -19.1213 -19.0939 -19.0935 -10.2459 -10.2358 -10.2125
-10.2080 -10.1930 -10.1904 -10.1889 -10.1875 -10.1860 -10.1853 -10.1784
-10.1777  -8.1192  -6.0822  -6.0809  -6.0801  -1.1148  -1.0211  -1.0147
 -1.0106  -0.8762  -0.8459  -0.7867  -0.7674  -0.7624  -0.7125  -0.6774
 -0.6249  -0.6208  -0.6032  -0.5746  -0.5393  -0.5053  -0.4952  -0.4863
 -0.4770  -0.4734  -0.4542  -0.4535  -0.4450  -0.4365  -0.4252  -0.4216
 -0.4001  -0.3943  -0.3840  -0.3807  -0.3789  -0.3586  -0.3480  -0.3335
 -0.3190  -0.3071  -0.3023  -0.2841  -0.2708  -0.2705  -0.2584  -0.2520
 -0.1814

 Beta MOs
 -- Occupied --
-89.0554 -19.1236 -19.1214 -19.0874 -19.0863 -10.2449 -10.2346 -10.2125
-10.2070 -10.1930 -10.1903 -10.1874 -10.1865 -10.1860 -10.1853 -10.1776
-10.1770  -8.1193  -6.0822  -6.0810  -6.0801  -1.1147  -1.0123  -1.0088
 -1.0012  -0.8762  -0.8397  -0.7856  -0.7657  -0.7624  -0.7046  -0.6730
 -0.6234  -0.6200  -0.5996  -0.5728  -0.5383  -0.5030  -0.4934  -0.4851
 -0.4755  -0.4716  -0.4540  -0.4531  -0.4422  -0.4362  -0.4155  -0.4074
 -0.3967  -0.3855  -0.3797  -0.3771  -0.3627  -0.3584  -0.3470  -0.3329
 -0.3176  -0.3062  -0.2838  -0.2718  -0.2666  -0.2636  -0.2522  -0.2463

          Ground-State Mulliken Net Atomic Charges

     Atom                 Charge (a.u.)    Spin (a.u.)
  --------------------------------------------------------
      1 C                    -0.678209       0.011308
      2 C                     0.054553       0.082163
      3 C                     0.090996       0.040917
      4 C                    -0.516591       0.141356
      5 C                    -0.045037       0.126993
      6 C                     0.268568       0.125030
      7 O                    -0.405464       0.228608
      8 O                    -0.479088       0.270150
      9 S                     0.367717      -0.027746
     10 C                     0.405012       0.007560
     11 C                     0.102096       0.005893
     12 C                    -0.324999       0.013828
     13 C                    -0.451150      -0.005215
     14 C                    -0.481252      -0.000958
     15 C                    -0.338709       0.002659
     16 O                    -0.211572       0.005365
     17 O                    -0.275000      -0.002836
     18 H                     0.224757      -0.006372
     19 H                     0.223084      -0.004030
     20 H                     0.273846      -0.013636
     21 H                     0.257015       0.000715
     22 H                     0.278245      -0.001734
     23 H                     0.228948       0.000117
     24 H                     0.226408       0.000058
     25 H                     0.205826      -0.000191
  --------------------------------------------------------
  Sum of atomic charges =    -1.000000

                    Cartesian Multipole Moments
 -----------------------------------------------------------------
    Charge (ESU x 10^10)
                -4.8032
    Dipole Moment (Debye)
         X      -1.6295      Y      -5.5616      Z      -3.9179
       Tot       6.9955
    Quadrupole Moments (Debye-Ang)
        XX    -135.6242     XY      -8.2194     YY    -129.8978
        XZ     -19.9202     YZ     -14.4602     ZZ     -99.8628

 Total job time:  53.06s(wall), 399.24s(cpu)
        *  Thank you very much for using Q-Chem.  Have a nice day.  *
