 Gaussian 16, Revision A.03,
 Gaussian 16:  ES64L-G16RevA.03 25-Dec-2016

 ----------------------------------------------------------------------
 #P UB3LYP/6-311++G(d,p) nosym opt freq SCRF=(PCM,Solvent=n,n-DiMethylF
 ormamide)
 ----------------------------------------------------------------------

 -------
 Radical
 -------
 Symbolic Z-matrix:
 Charge = -1 Multiplicity = 2

 SCF Done:  E(UB3LYP) =  -678.952182112     A.U. after   18 cycles
 SCF Done:  E(UB3LYP) =  -678.952228333     A.U. after   15 cycles
 SCF Done:  E(UB3LYP) =  -678.952178518     A.U. after   15 cycles
 SCF Done:  E(UB3LYP) =  -678.952260574     A.U. after   15 cycles
 SCF Done:  E(UB3LYP) =  -678.952261949     A.U. after   11 cycles
 SCF Done:  E(UB3LYP) =  -678.952262899     A.U. after   10 cycles
 Optimization completed.
    -- Stationary point found.
 Normal termination of Gaussian 16 at Sun Feb 11 15:44:13 2024.

 ----------------------------------------------------------------------
 #P Geom=AllCheck Guess=TCheck SCRF=Check GenChk UB3LYP/6-311++G(d,p) F
 req
 ----------------------------------------------------------------------

 Structure from the checkpoint file:  "347-rad.chk"
 -------
 Radical
 -------
 Charge = -1 Multiplicity = 2

                          Input orientation:
 ---------------------------------------------------------------------
 Center     Atomic      Atomic             Coordinates (Angstroms)
 Number     Number       Type             X           Y           Z
 ---------------------------------------------------------------------
      1          7           0       -4.720059    0.371965    0.353482
      2          6           0       -3.736238   -0.168972    0.654946
      3          6           0       -2.540998   -0.822122    1.019994
      4          6           0       -2.668356   -1.902701    1.916979
      5          7           0       -2.770717   -2.793738    2.656552
      6          6           0       -1.270172   -0.410907    0.509874
      7          6           0       -1.151216    0.680796   -0.395992
      8          6           0        0.068533    1.075283   -0.885651
      9          6           0        1.270143    0.410865   -0.509845
     10          6           0        1.151191   -0.680834    0.396025
     11          6           0       -0.068560   -1.075319    0.885687
     12          6           0        2.540964    0.822077   -1.019988
     13          6           0        3.736175    0.168860   -0.655002
     14          7           0        4.720304   -0.371604   -0.353705
     15          6           0        2.668299    1.902676   -1.916955
     16          7           0        2.770755    2.793740   -2.656483
     17          1           0       -2.042641    1.212870   -0.706936
     18          1           0        0.116440    1.911208   -1.573666
     19          1           0        2.042616   -1.212904    0.706974
     20          1           0       -0.116464   -1.911238    1.573708
 ---------------------------------------------------------------------

 SCF Done:  E(UB3LYP) =  -678.952262899     A.U. after    2 cycles

 Alpha  occ. eigenvalues --  -14.32000 -14.32000 -14.31999 -14.31999 -10.23129
 Alpha  occ. eigenvalues --  -10.23129 -10.22411 -10.22411 -10.22406 -10.22406
 Alpha  occ. eigenvalues --  -10.21800 -10.21799 -10.19282 -10.19280 -10.19218
 Alpha  occ. eigenvalues --  -10.19217  -0.92981  -0.92847  -0.91630  -0.91628
 Alpha  occ. eigenvalues --   -0.88764  -0.84161  -0.79801  -0.77092  -0.72995
 Alpha  occ. eigenvalues --   -0.64548  -0.63192  -0.59481  -0.56180  -0.55336
 Alpha  occ. eigenvalues --   -0.51878  -0.46104  -0.45872  -0.44142  -0.43206
 Alpha  occ. eigenvalues --   -0.42010  -0.40545  -0.38969  -0.38816  -0.38565
 Alpha  occ. eigenvalues --   -0.38334  -0.37900  -0.36191  -0.35915  -0.35904
 Alpha  occ. eigenvalues --   -0.35661  -0.35354  -0.34483  -0.34287  -0.31280
 Alpha  occ. eigenvalues --   -0.28082  -0.24435  -0.18910
 Alpha virt. eigenvalues --   -0.03351  -0.03047  -0.01418  -0.00914  -0.00375
 Alpha virt. eigenvalues --    0.00885   0.01230   0.02274   0.02715   0.02827
 Alpha virt. eigenvalues --    0.03205   0.04144   0.04547   0.04572   0.04583

  Beta  occ. eigenvalues --  -14.31788 -14.31788 -14.31786 -14.31786 -10.22764
  Beta  occ. eigenvalues --  -10.22764 -10.22488 -10.22488 -10.22481 -10.22481
  Beta  occ. eigenvalues --  -10.21699 -10.21698 -10.19223 -10.19221 -10.19158
  Beta  occ. eigenvalues --  -10.19157  -0.92630  -0.92503  -0.91311  -0.91310
  Beta  occ. eigenvalues --   -0.88379  -0.83540  -0.79085  -0.76932  -0.72299
  Beta  occ. eigenvalues --   -0.64294  -0.63004  -0.59254  -0.55919  -0.55225
  Beta  occ. eigenvalues --   -0.51683  -0.45954  -0.45708  -0.44094  -0.42097
  Beta  occ. eigenvalues --   -0.40821  -0.40361  -0.38648  -0.38539  -0.38256
  Beta  occ. eigenvalues --   -0.38021  -0.36978  -0.36072  -0.35557  -0.35242
  Beta  occ. eigenvalues --   -0.35171  -0.35151  -0.34354  -0.34161  -0.29835
  Beta  occ. eigenvalues --   -0.27645  -0.21851
  Beta virt. eigenvalues --   -0.13633  -0.02553  -0.02030  -0.01318  -0.00831
  Beta virt. eigenvalues --   -0.00347   0.00933   0.01236   0.02865   0.02939
  Beta virt. eigenvalues --    0.03223   0.03398   0.04168   0.04593   0.04601

 Mulliken charges and spin densities:
               1          2
     1  N   -0.309549   0.109681
     2  C   -1.402253  -0.070511
     3  C    2.393331   0.294295
     4  C   -1.402412  -0.070505
     5  N   -0.309466   0.109664
     6  C    1.558626   0.120191
     7  C   -0.666915   0.008570
     8  C   -0.666542   0.008595
     9  C    1.557741   0.120169
    10  C   -0.666878   0.008575
    11  C   -0.666301   0.008591
    12  C    2.393818   0.294303
    13  C   -1.402140  -0.070509
    14  N   -0.309583   0.109680
    15  C   -1.402145  -0.070495
    16  N   -0.309454   0.109661
    17  H    0.152606  -0.004987
    18  H    0.152447  -0.004991
    19  H    0.152609  -0.004987
    20  H    0.152463  -0.004990
 Sum of Mulliken charges =  -1.00000   1.00000

 Dipole moment (field-independent basis, Debye):
    X=             -0.0006    Y=             -0.0008    Z=              0.0002  Tot=              0.0010
 Quadrupole moment (field-independent basis, Debye-Ang):
   XX=           -188.0212   YY=           -121.4837   ZZ=           -118.3718
   XY=            -17.3705   XZ=             27.0058   YZ=             23.5419

  Exact polarizability: 764.187 148.963 260.287-211.751-142.009 256.069
 Approx polarizability: 694.834 103.115 290.908-162.631-147.890 269.491

                      1                      2                      3
                      A                      A                      A
 Frequencies --     40.1826                50.7958                80.8893
 Red. masses --     13.5497                 9.0768                12.2833
 Frc consts  --      0.0129                 0.0138                 0.0474
 IR Inten    --      0.0442                16.8305                 8.0983

                      4                      5                      6
                      A                      A                      A
 Frequencies --     88.2949               120.4263               133.4587
 Red. masses --      4.0934                13.8279                10.4095
 Frc consts  --      0.0188                 0.1182                 0.1092
 IR Inten    --      0.0000                 0.0000                 0.0000

                      7                      8                      9
                      A                      A                      A
 Frequencies --    144.4386               144.7684               226.6929
 Red. masses --     12.3576                 9.3689                 9.4994
 Frc consts  --      0.1519                 0.1157                 0.2876
 IR Inten    --     26.6298                 0.0027                16.0487

                     10                     11                     12
                      A                      A                      A
 Frequencies --    292.0536               335.3655               343.8654
 Red. masses --      9.8030                12.1465                 7.3521
 Frc consts  --      0.4926                 0.8049                 0.5122
 IR Inten    --      1.9120                 0.0000                 0.0000

                     13                     14                     15
                      A                      A                      A
 Frequencies --    386.4066               414.1529               485.3218
 Red. masses --      5.8181                 3.1356                11.9176
 Frc consts  --      0.5118                 0.3169                 1.6539
 IR Inten    --      0.0000                 0.0008                 0.0000

                     16                     17                     18
                      A                      A                      A
 Frequencies --    487.0719               496.3534               529.0941
 Red. masses --     11.3923                 2.8972                11.5195
 Frc consts  --      1.5924                 0.4205                 1.9000
 IR Inten    --      0.1046                53.3059                 0.2663

                     19                     20                     21
                      A                      A                      A
 Frequencies --    545.3193               548.1442               607.3981
 Red. masses --      8.1237                 7.9506                10.4390
 Frc consts  --      1.4233                 1.4075                 2.2691
 IR Inten    --      0.0007                40.7560                 0.0000

                     22                     23                     24
                      A                      A                      A
 Frequencies --    620.6089               635.9582               636.1254
 Red. masses --      5.8319                12.3158                12.4221
 Frc consts  --      1.3234                 2.9348                 2.9616
 IR Inten    --      1.3058                 0.1294                 8.2684

                     25                     26                     27
                      A                      A                      A
 Frequencies --    638.7509               740.3358               745.6196
 Red. masses --      7.2120                 7.5965                 4.9217
 Frc consts  --      1.7337                 2.4531                 1.6121
 IR Inten    --      0.0000                 0.0000                 0.0000

                     28                     29                     30
                      A                      A                      A
 Frequencies --    816.0878               845.5178               975.2021
 Red. masses --      1.2721                 1.7658                 1.2898
 Frc consts  --      0.4992                 0.7438                 0.7227
 IR Inten    --      0.0000               105.2419                 0.0000

                     31                     32                     33
                      A                      A                      A
 Frequencies --    988.1266               995.0182              1002.0758
 Red. masses --      1.3327                 8.7151                 4.4356
 Frc consts  --      0.7667                 5.0838                 2.6242
 IR Inten    --      0.0024                 0.0000                44.5171

                     34                     35                     36
                      A                      A                      A
 Frequencies --   1029.9735              1141.4890              1218.2967
 Red. masses --      3.2879                 1.9162                 1.1486
 Frc consts  --      2.0550                 1.4711                 1.0044
 IR Inten    --     23.6211                 0.1283                 0.0000

                     37                     38                     39
                      A                      A                      A
 Frequencies --   1226.0598              1232.0029              1334.8318
 Red. masses --      6.5509                 2.8180                 6.9308
 Frc consts  --      5.8019                 2.5200                 7.2759
 IR Inten    --      0.0000                25.4206                 3.4089

                     40                     41                     42
                      A                      A                      A
 Frequencies --   1348.1430              1371.3871              1390.4091
 Red. masses --      1.5403                 3.0975                10.0400
 Frc consts  --      1.6494                 3.4323                11.4358
 IR Inten    --      0.0000               454.2466                 0.0000

                     43                     44                     45
                      A                      A                      A
 Frequencies --   1498.3182              1525.2123              1528.1838
 Red. masses --      4.0756                 4.7570                 2.5564
 Frc consts  --      5.3908                 6.5200                 3.5175
 IR Inten    --      0.0448                 0.0001               598.7028

                     46                     47                     48
                      A                      A                      A
 Frequencies --   1641.0292              2232.4680              2232.5224
 Red. masses --      5.4659                12.6737                12.6738
 Frc consts  --      8.6726                37.2156                37.2175
 IR Inten    --      0.0000               841.8799                10.9204

                     49                     50                     51
                      A                      A                      A
 Frequencies --   2261.4698              2280.0619              3175.7020
 Red. masses --     12.6720                12.6664                 1.0874
 Frc consts  --     38.1837                38.7970                 6.4616
 IR Inten    --   3663.2384                 0.0002                 5.1362

                     52                     53                     54
                      A                      A                      A
 Frequencies --   3176.6278              3189.7952              3191.5693
 Red. masses --      1.0869                 1.0943                 1.0954
 Frc consts  --      6.4621                 6.5604                 6.5738
 IR Inten    --      0.0000                13.6618                 0.0000

 - Thermochemistry -
 -------------------
 Temperature   298.150 Kelvin.  Pressure   1.00000 Atm.
 Atom     1 has atomic number  7 and mass  14.00307

 Molecular mass:   204.04360 amu.
 Principal axes and moments of inertia in atomic units:
                           1         2         3
     Eigenvalues --  1522.238596754.960128277.19747
           X            0.88879  -0.44567   0.10692
           Y            0.28741   0.72370   0.62742
           Z           -0.35700  -0.52692   0.77130
 This molecule is an asymmetric top.
 Rotational symmetry number  1.
 Warning -- assumption of classical behavior for rotation
           may cause significant error
 Rotational temperatures (Kelvin)      0.05690     0.01282     0.01046
 Rotational constants (GHZ):           1.18558     0.26717     0.21804
 Zero-point vibrational energy     331159.1 (Joules/Mol)
                                   79.14892 (Kcal/Mol)
 Warning -- explicit consideration of  22 degrees of freedom as
           vibrations may cause significant error
 Vibrational temperatures:     57.81    73.08   116.38   127.04   173.27
          (Kelvin)            192.02   207.81   208.29   326.16   420.20
                              482.52   494.75   555.95   595.87   698.27
                              700.79   714.14   761.25   784.59   788.66
                              873.91   892.92   915.00   915.24   919.02
                             1065.18  1072.78  1174.17  1216.51  1403.10
                             1421.69  1431.61  1441.76  1481.90  1642.35
                             1752.86  1764.03  1772.58  1920.53  1939.68
                             1973.12  2000.49  2155.75  2194.44  2198.72
                             2361.08  3212.02  3212.10  3253.75  3280.50
                             4569.13  4570.46  4589.40  4591.96

 Zero-point correction=                           0.126132 (Hartree/Particle)
 Thermal correction to Energy=                    0.139819
 Thermal correction to Enthalpy=                  0.140764
 Thermal correction to Gibbs Free Energy=         0.083631
 Sum of electronic and zero-point Energies=           -678.826131
 Sum of electronic and thermal Energies=              -678.812443
 Sum of electronic and thermal Enthalpies=            -678.811499
 Sum of electronic and thermal Free Energies=         -678.868632

                     E (Thermal)             CV                S
                      KCal/Mol        Cal/Mol-Kelvin    Cal/Mol-Kelvin
 Total                   87.738             49.469            120.246
 Electronic               0.000              0.000              1.377
 Translational            0.889              2.981             41.844
 Rotational               0.889              2.981             32.809
 Vibrational             85.961             43.507             44.216
 Vibration     1          0.594              1.981              5.250
 Vibration     2          0.595              1.977              4.786
 Vibration     3          0.600              1.962              3.869
 Vibration     4          0.601              1.957              3.697
 Vibration     5          0.609              1.932              3.094
 Vibration     6          0.613              1.920              2.896
 Vibration     7          0.616              1.909              2.744
 Vibration     8          0.616              1.908              2.740
 Vibration     9          0.650              1.800              1.905
 Vibration    10          0.687              1.689              1.462
 Vibration    11          0.716              1.605              1.234
 Vibration    12          0.723              1.588              1.194
 Vibration    13          0.755              1.499              1.014
 Vibration    14          0.778              1.440              0.912
 Vibration    15          0.841              1.283              0.696
 Vibration    16          0.843              1.279              0.691
 Vibration    17          0.852              1.258              0.667
 Vibration    18          0.884              1.186              0.589
 Vibration    19          0.900              1.150              0.554
 Vibration    20          0.903              1.144              0.548
 Vibration    21          0.966              1.016              0.437
 Vibration    22          0.981              0.988              0.416

 Optimization completed.
    -- Stationary point found.
 Normal termination of Gaussian 16 at Sun Feb 11 16:00:18 2024.
