 Gaussian 16, Revision A.03,
 Gaussian 16:  ES64L-G16RevA.03 25-Dec-2016

 ----------------------------------------------------------------
 #P UB3LYP/6-311++G(d,p) SCRF=(PCM,Solvent=n,n-DiMethylFormamide)
 ----------------------------------------------------------------

 -------
 Reduced
 -------
 Symbolic Z-matrix:
 Charge = -2 Multiplicity = 1

                         Standard orientation:
 ---------------------------------------------------------------------
 Center     Atomic      Atomic             Coordinates (Angstroms)
 Number     Number       Type             X           Y           Z
 ---------------------------------------------------------------------
      1          6           0       -0.322867    1.360565    0.000179
      2          6           0        1.129569    1.417521    0.000212
      3          6           0        1.971151    0.327039   -0.000016
      4          6           0        1.460007   -1.038645   -0.000225
      5          6           0        0.057958   -1.119086   -0.000206
      6          6           0       -0.860203   -0.002525   -0.000073
      7          8           0       -0.995471    2.439753    0.000451
      8          8           0        2.279219   -2.054203   -0.000373
      9          6           0       -2.284724   -0.256715   -0.000177
     10          6           0       -2.750881   -1.739322    0.001025
     11          8           0       -3.206869    0.583952   -0.001222
     12          1           0        1.546598    2.426447    0.000328
     13          1           0       -2.388356   -2.282532    0.881855
     14          1           0       -2.390306   -2.283162   -0.880237
     15          1           0       -3.843780   -1.732507    0.002142
     16          6           0        3.468980    0.497777    0.000084
     17          1           0       -0.337870   -2.129781   -0.000328
     18          1           0        3.750273    1.558554   -0.001779
     19          1           0        3.917379    0.001912   -0.871151
     20          1           0        3.917099    0.005401    0.873501
 ---------------------------------------------------------------------

 SCF Done:  E(UB3LYP) =  -573.856562863     A.U. after   18 cycles

 The electronic state is 1-A.
 Alpha  occ. eigenvalues --  -19.06428 -19.02928 -19.01293 -10.21830 -10.18791
 Alpha  occ. eigenvalues --  -10.16717 -10.14610 -10.14486 -10.14446 -10.13018
 Alpha  occ. eigenvalues --  -10.12608 -10.11756  -0.98879  -0.94818  -0.92237
 Alpha  occ. eigenvalues --   -0.78765  -0.74505  -0.70003  -0.66343  -0.64568
 Alpha  occ. eigenvalues --   -0.56598  -0.54380  -0.48123  -0.44456  -0.43692
 Alpha  occ. eigenvalues --   -0.41136  -0.40872  -0.39706  -0.39616  -0.38591
 Alpha  occ. eigenvalues --   -0.36637  -0.35971  -0.35273  -0.34820  -0.33079
 Alpha  occ. eigenvalues --   -0.32277  -0.31213  -0.31043  -0.23174  -0.22816
 Alpha  occ. eigenvalues --   -0.21558  -0.19463  -0.18574  -0.12515
 Alpha virt. eigenvalues --   -0.02069   0.00135   0.01007   0.02074   0.03218
 Alpha virt. eigenvalues --    0.03417   0.03977   0.04535   0.05418   0.05537
 Alpha virt. eigenvalues --    0.06090   0.06290   0.07773   0.08222   0.09056

  Beta  occ. eigenvalues --  -19.06428 -19.02928 -19.01293 -10.21830 -10.18791
  Beta  occ. eigenvalues --  -10.16717 -10.14610 -10.14486 -10.14446 -10.13018
  Beta  occ. eigenvalues --  -10.12608 -10.11756  -0.98879  -0.94818  -0.92237
  Beta  occ. eigenvalues --   -0.78765  -0.74505  -0.70003  -0.66343  -0.64568
  Beta  occ. eigenvalues --   -0.56598  -0.54380  -0.48123  -0.44456  -0.43692
  Beta  occ. eigenvalues --   -0.41136  -0.40872  -0.39706  -0.39616  -0.38591
  Beta  occ. eigenvalues --   -0.36637  -0.35971  -0.35273  -0.34820  -0.33079
  Beta  occ. eigenvalues --   -0.32277  -0.31213  -0.31043  -0.23174  -0.22816
  Beta  occ. eigenvalues --   -0.21558  -0.19463  -0.18574  -0.12515
  Beta virt. eigenvalues --   -0.02069   0.00135   0.01007   0.02074   0.03218
  Beta virt. eigenvalues --    0.03417   0.03977   0.04535   0.05418   0.05537
  Beta virt. eigenvalues --    0.06090   0.06290   0.07773   0.08222   0.09056

 Mulliken charges and spin densities:
               1          2
     1  C   -0.503397  -0.000000
     2  C   -0.684571  -0.000000
     3  C    1.072278  -0.000000
     4  C   -0.778912   0.000000
     5  C   -1.086132  -0.000000
     6  C    1.690920  -0.000000
     7  O   -0.604859   0.000000
     8  O   -0.723889  -0.000000
     9  C   -0.205091   0.000000
    10  C   -0.471323   0.000000
    11  O   -0.473509   0.000000
    12  H    0.113959   0.000000
    13  H    0.153049  -0.000000
    14  H    0.153152  -0.000000
    15  H    0.165081  -0.000000
    16  C   -0.362629  -0.000000
    17  H    0.106407   0.000000
    18  H    0.135221  -0.000000
    19  H    0.152093  -0.000000
    20  H    0.152153  -0.000000
 Sum of Mulliken charges =  -2.00000  -0.00000

 Dipole moment (field-independent basis, Debye):
    X=              1.4430    Y=             -2.0853    Z=              0.0035  Tot=              2.5359
 Quadrupole moment (field-independent basis, Debye-Ang):
   XX=           -126.0365   YY=           -117.6087   ZZ=            -78.5119
   XY=             33.7365   XZ=             -0.0061   YZ=             -0.0037

 Normal termination of Gaussian 16 at Sun Jan 21 07:47:04 2024.
