 Gaussian 16, Revision A.03,
 Gaussian 16:  ES64L-G16RevA.03 25-Dec-2016

 --------------------------------------
 #P UB3LYP/6-311++G(d,p) nosym opt freq
 --------------------------------------

 -------
 Reduced
 -------
 Symbolic Z-matrix:
 Charge = -2 Multiplicity = 1

 SCF Done:  E(UB3LYP) =  -669.199005303     A.U. after   55 cycles
 SCF Done:  E(UB3LYP) =  -669.220891197     A.U. after   41 cycles
 SCF Done:  E(UB3LYP) =  -669.223951512     A.U. after   35 cycles
 SCF Done:  E(UB3LYP) =  -669.226492605     A.U. after   33 cycles
 SCF Done:  E(UB3LYP) =  -669.226659758     A.U. after   29 cycles
 SCF Done:  E(UB3LYP) =  -669.227755817     A.U. after   29 cycles
 SCF Done:  E(UB3LYP) =  -669.228180364     A.U. after   33 cycles
 SCF Done:  E(UB3LYP) =  -669.229044663     A.U. after   33 cycles
 SCF Done:  E(UB3LYP) =  -669.230131599     A.U. after   30 cycles
 SCF Done:  E(UB3LYP) =  -669.231342087     A.U. after   32 cycles
 SCF Done:  E(UB3LYP) =  -669.231889714     A.U. after   28 cycles
 SCF Done:  E(UB3LYP) =  -669.231940539     A.U. after   32 cycles
 SCF Done:  E(UB3LYP) =  -669.232003504     A.U. after   30 cycles
 SCF Done:  E(UB3LYP) =  -669.232005771     A.U. after   27 cycles
 SCF Done:  E(UB3LYP) =  -669.232006342     A.U. after   24 cycles
 Optimization completed.
    -- Stationary point found.
 Normal termination of Gaussian 16 at Tue Dec 26 22:34:28 2023.

 ----------------------------------------------------------------------
 #P Geom=AllCheck Guess=TCheck SCRF=Check GenChk UB3LYP/6-311++G(d,p) F
 req
 ----------------------------------------------------------------------

 Structure from the checkpoint file:  "274-an.chk"
 -------
 Reduced
 -------
 Charge = -2 Multiplicity = 1

                          Input orientation:
 ---------------------------------------------------------------------
 Center     Atomic      Atomic             Coordinates (Angstroms)
 Number     Number       Type             X           Y           Z
 ---------------------------------------------------------------------
      1          6           0       -1.688219    3.083059    0.295840
      2          6           0       -2.864902    2.373049    0.151524
      3          6           0       -2.821159    0.982463   -0.136550
      4          6           0       -0.414040    2.472942    0.160660
      5          6           0       -0.373604    1.057139   -0.134726
      6          6           0       -1.592392    0.358567   -0.271921
      7          6           0        0.777665    3.277139    0.352014
      8          6           0        2.012233    2.559044    0.180763
      9          6           0        2.039094    1.182220   -0.125068
     10          6           0        0.894099    0.354925   -0.288107
     11          8           0        0.713268    4.537176    0.647253
     12          8           0        0.963667   -0.903761   -0.559446
     13          7           0        3.238980    3.285283    0.353168
     14          6           0        3.385198    4.483391   -0.453482
     15          6           0        4.465358    2.538666    0.474377
     16          1           0       -1.692712    4.145367    0.520721
     17          1           0       -3.824453    2.877952    0.258693
     18          1           0       -3.744198    0.415503   -0.248552
     19          1           0       -1.517178   -0.702823   -0.491564
     20          1           0        2.991163    0.677030   -0.254594
     21          1           0        2.445553    5.038890   -0.405218
     22          1           0        3.634864    4.250086   -1.511393
     23          1           0        4.196489    5.105367   -0.049224
     24          1           0        4.350909    1.732138    1.204850
     25          1           0        5.272800    3.200599    0.820845
     26          1           0        4.810415    2.080379   -0.475232
 ---------------------------------------------------------------------

 SCF Done:  E(UB3LYP) =  -669.232006342     A.U. after    6 cycles

 Alpha  occ. eigenvalues --  -18.77286 -18.77225 -14.07283  -9.96573  -9.94968
 Alpha  occ. eigenvalues --   -9.93173  -9.92977  -9.92704  -9.92437  -9.92246
 Alpha  occ. eigenvalues --   -9.91485  -9.91340  -9.89936  -9.89748  -9.88185
 Alpha  occ. eigenvalues --   -0.69921  -0.68477  -0.67337  -0.59024  -0.52615
 Alpha  occ. eigenvalues --   -0.48865  -0.47817  -0.47411  -0.41853  -0.38610
 Alpha  occ. eigenvalues --   -0.35087  -0.33089  -0.29291  -0.25562  -0.25154
 Alpha  occ. eigenvalues --   -0.22585  -0.21867  -0.20607  -0.19194  -0.16868
 Alpha  occ. eigenvalues --   -0.16482  -0.16418  -0.15126  -0.13933  -0.13160
 Alpha  occ. eigenvalues --   -0.12810  -0.11259  -0.10753  -0.08625  -0.08158
 Alpha  occ. eigenvalues --   -0.07089  -0.06501  -0.01229   0.00697   0.02077
 Alpha  occ. eigenvalues --    0.04598   0.05213   0.05375   0.13765
 Alpha virt. eigenvalues --    0.15155   0.16310   0.17975   0.18073   0.18877
 Alpha virt. eigenvalues --    0.20559   0.21382   0.21539   0.21784   0.22637
 Alpha virt. eigenvalues --    0.23548   0.24116   0.24474   0.25534   0.25893

  Beta  occ. eigenvalues --  -18.77286 -18.77225 -14.07283  -9.96573  -9.94968
  Beta  occ. eigenvalues --   -9.93173  -9.92977  -9.92704  -9.92437  -9.92246
  Beta  occ. eigenvalues --   -9.91485  -9.91340  -9.89936  -9.89748  -9.88185
  Beta  occ. eigenvalues --   -0.69921  -0.68477  -0.67337  -0.59024  -0.52615
  Beta  occ. eigenvalues --   -0.48865  -0.47817  -0.47411  -0.41853  -0.38610
  Beta  occ. eigenvalues --   -0.35087  -0.33089  -0.29291  -0.25562  -0.25154
  Beta  occ. eigenvalues --   -0.22585  -0.21867  -0.20607  -0.19194  -0.16868
  Beta  occ. eigenvalues --   -0.16482  -0.16418  -0.15126  -0.13933  -0.13160
  Beta  occ. eigenvalues --   -0.12810  -0.11259  -0.10753  -0.08625  -0.08158
  Beta  occ. eigenvalues --   -0.07089  -0.06501  -0.01229   0.00697   0.02077
  Beta  occ. eigenvalues --    0.04598   0.05213   0.05375   0.13765
  Beta virt. eigenvalues --    0.15155   0.16310   0.17975   0.18073   0.18877
  Beta virt. eigenvalues --    0.20559   0.21382   0.21539   0.21784   0.22637
  Beta virt. eigenvalues --    0.23548   0.24116   0.24474   0.25534   0.25893

 Mulliken charges and spin densities:
               1          2
     1  C    0.048142  -0.000000
     2  C   -0.433496  -0.000000
     3  C   -0.304172  -0.000000
     4  C    0.399997   0.000000
     5  C    0.827910  -0.000000
     6  C    0.016079  -0.000000
     7  C   -1.176581  -0.000000
     8  C   -0.758868   0.000000
     9  C    0.758106  -0.000000
    10  C   -0.643196  -0.000000
    11  O   -0.526610  -0.000000
    12  O   -0.529485  -0.000000
    13  N    0.147968   0.000000
    14  C   -0.330663  -0.000000
    15  C    0.422935  -0.000000
    16  H    0.130401  -0.000000
    17  H    0.062738   0.000000
    18  H    0.072941  -0.000000
    19  H    0.115279   0.000000
    20  H    0.124655  -0.000000
    21  H    0.175076   0.000000
    22  H    0.032306  -0.000000
    23  H    0.089840   0.000000
    24  H    0.075490   0.000000
    25  H   -0.852058   0.000000
    26  H    0.055266   0.000000
 Sum of Mulliken charges =  -2.00000   0.00000

 Dipole moment (field-independent basis, Debye):
    X=            -10.6232    Y=            -19.4018    Z=             -1.6069  Tot=             22.1780
 Quadrupole moment (field-independent basis, Debye-Ang):
   XX=           -179.3864   YY=           -193.5519   ZZ=           -110.1091
   XY=            -33.6249   XZ=             -9.0816   YZ=            -15.8715

  Exact polarizability:1732.355 356.167 512.222 279.774  58.297 252.956
 Approx polarizability:4465.1621039.481 767.021 791.646 230.196 399.489

                      1                      2                      3
                      A                      A                      A
 Frequencies --     59.2393                89.2080               138.4548
 Red. masses --      4.4560                 3.0680                 4.2991
 Frc consts  --      0.0092                 0.0144                 0.0486
 IR Inten    --      2.3956                 0.4215                 0.2831

                      4                      5                      6
                      A                      A                      A
 Frequencies --    160.5344               193.9528               204.9412
 Red. masses --      4.5063                 3.8162                 4.1754
 Frc consts  --      0.0684                 0.0846                 0.1033
 IR Inten    --      9.8365                 1.6381                 0.3566

                      7                      8                      9
                      A                      A                      A
 Frequencies --    268.2332               287.0621               293.2267
 Red. masses --      3.4580                 1.9396                 1.3732
 Frc consts  --      0.1466                 0.0942                 0.0696
 IR Inten    --     33.6144                46.4618                26.8116

                     10                     11                     12
                      A                      A                      A
 Frequencies --    314.2602               338.8171               364.2907
 Red. masses --      2.2778                 2.2160                 9.6008
 Frc consts  --      0.1325                 0.1499                 0.7507
 IR Inten    --     52.9299                64.5623                 8.8357

                     13                     14                     15
                      A                      A                      A
 Frequencies --    381.9082               411.8595               443.6672
 Red. masses --      4.0379                 4.8940                 3.4754
 Frc consts  --      0.3470                 0.4891                 0.4031
 IR Inten    --      7.4448                14.4983                 0.3527

                     16                     17                     18
                      A                      A                      A
 Frequencies --    456.9207               475.0386               529.0986
 Red. masses --      5.4199                 4.9124                 4.5358
 Frc consts  --      0.6667                 0.6531                 0.7481
 IR Inten    --    765.1447                57.5953                24.0092

                     19                     20                     21
                      A                      A                      A
 Frequencies --    537.6275               629.0867               640.7229
 Red. masses --      4.0631                 5.6411                 2.8581
 Frc consts  --      0.6919                 1.3153                 0.6913
 IR Inten    --     95.8997                15.2615                12.3894

                     22                     23                     24
                      A                      A                      A
 Frequencies --    681.2755               694.3135               722.4301
 Red. masses --      5.1620                 2.0002                 6.0516
 Frc consts  --      1.4116                 0.5681                 1.8609
 IR Inten    --     12.5374                51.2206                20.4182

                     25                     26                     27
                      A                      A                      A
 Frequencies --    743.9643               760.4228               808.4891
 Red. masses --      2.1828                 2.0032                 1.9324
 Frc consts  --      0.7118                 0.6825                 0.7442
 IR Inten    --     27.8857                 4.1626                 2.5756

                     28                     29                     30
                      A                      A                      A
 Frequencies --    838.1474               841.9852               871.5707
 Red. masses --      3.4434                 3.0871                 5.5248
 Frc consts  --      1.4252                 1.2895                 2.4727
 IR Inten    --      4.8751                26.5475                12.0548

                     31                     32                     33
                      A                      A                      A
 Frequencies --    946.0473               954.6192               997.9089
 Red. masses --      1.2521                 1.3307                 3.3636
 Frc consts  --      0.6603                 0.7145                 1.9735
 IR Inten    --      2.3502                 3.1913               100.6907

                     34                     35                     36
                      A                      A                      A
 Frequencies --   1014.9409              1066.0538              1086.8013
 Red. masses --      2.0524                 1.4858                 2.4462
 Frc consts  --      1.2457                 0.9949                 1.7023
 IR Inten    --    435.7037               516.0956                34.1385

                     37                     38                     39
                      A                      A                      A
 Frequencies --   1111.0564              1115.1058              1125.8979
 Red. masses --      1.6437                 1.5839                 1.6404
 Frc consts  --      1.1955                 1.1604                 1.2252
 IR Inten    --     66.8312               571.5701                57.6224

                     40                     41                     42
                      A                      A                      A
 Frequencies --   1151.1328              1164.0008              1214.7445
 Red. masses --      1.6483                 1.5025                 2.0916
 Frc consts  --      1.2869                 1.1994                 1.8185
 IR Inten    --     63.7065               422.6679               374.9859

                     43                     44                     45
                      A                      A                      A
 Frequencies --   1219.4760              1228.8173              1288.5558
 Red. masses --      2.9926                 2.6440                 2.0783
 Frc consts  --      2.6221                 2.3522                 2.0331
 IR Inten    --     98.7167               232.1262                84.2950

                     46                     47                     48
                      A                      A                      A
 Frequencies --   1312.1798              1324.5828              1379.1696
 Red. masses --      3.1879                 5.4098                 3.1409
 Frc consts  --      3.2340                 5.5922                 3.5200
 IR Inten    --      7.7039              1266.3257               783.3520

                     49                     50                     51
                      A                      A                      A
 Frequencies --   1393.0551              1410.6699              1423.6370
 Red. masses --      2.8449                 4.2750                 1.4285
 Frc consts  --      3.2528                 5.0123                 1.7059
 IR Inten    --    235.2698              1632.6832               739.3420

                     52                     53                     54
                      A                      A                      A
 Frequencies --   1446.4739              1452.9207              1469.5659
 Red. masses --      1.6411                 2.2726                 1.0658
 Frc consts  --      2.0231                 2.8265                 1.3562
 IR Inten    --    384.3484                17.3107                76.0756

                     55                     56                     57
                      A                      A                      A
 Frequencies --   1482.2459              1490.1689              1504.0555
 Red. masses --      1.3525                 2.2065                 1.0974
 Frc consts  --      1.7508                 2.8869                 1.4627
 IR Inten    --    109.1543               619.4799               129.1050

                     58                     59                     60
                      A                      A                      A
 Frequencies --   1510.8310              1516.7643              1566.3283
 Red. masses --      1.1719                 2.9591                 5.5934
 Frc consts  --      1.5761                 4.0109                 8.0852
 IR Inten    --    196.5898               193.0899              2082.5198

                     61                     62                     63
                      A                      A                      A
 Frequencies --   1583.7485              2826.2828              2851.2506
 Red. masses --      5.5163                 1.0634                 1.0675
 Frc consts  --      8.1522                 5.0047                 5.1131
 IR Inten    --    639.2699               343.6604               370.6946

                     64                     65                     66
                      A                      A                      A
 Frequencies --   2966.0159              2974.1194              3053.7508
 Red. masses --      1.0720                 1.0693                 1.0927
 Frc consts  --      5.5562                 5.5727                 6.0039
 IR Inten    --     17.2122               176.5746               104.8605

                     67                     68                     69
                      A                      A                      A
 Frequencies --   3065.3148              3083.6680              3108.5904
 Red. masses --      1.0974                 1.0823                 1.0903
 Frc consts  --      6.0754                 6.0639                 6.2079
 IR Inten    --     88.3552                46.7691               343.9488

                     70                     71                     72
                      A                      A                      A
 Frequencies --   3147.5571              3149.4599              3156.0626
 Red. masses --      1.0864                 1.0901                 1.0906
 Frc consts  --      6.3415                 6.3707                 6.4004
 IR Inten    --     50.4105               180.5359               147.6435

 - Thermochemistry -
 -------------------
 Temperature   298.150 Kelvin.  Pressure   1.00000 Atm.
 Atom     1 has atomic number  6 and mass  12.00000

 Molecular mass:   201.07898 amu.
 Principal axes and moments of inertia in atomic units:
                           1         2         3
     Eigenvalues --  1658.588033868.794095394.21367
           X            0.93284  -0.35990   0.01693
           Y            0.35809   0.92091  -0.15391
           Z            0.03981   0.14964   0.98794
 This molecule is an asymmetric top.
 Rotational symmetry number  1.
 Warning -- assumption of classical behavior for rotation
           may cause significant error
 Rotational temperatures (Kelvin)      0.05222     0.02239     0.01606
 Rotational constants (GHZ):           1.08812     0.46649     0.33457
 Zero-point vibrational energy     523452.2 (Joules/Mol)
                                  125.10808 (Kcal/Mol)
 Warning -- explicit consideration of  19 degrees of freedom as
           vibrations may cause significant error
 Vibrational temperatures:     85.23   128.35   199.21   230.97   279.05
          (Kelvin)            294.86   385.93   413.02   421.89   452.15
                              487.48   524.13   549.48   592.57   638.34
                              657.41   683.47   761.25   773.53   905.12
                              921.86   980.20   998.96  1039.42  1070.40
                             1094.08  1163.24  1205.91  1211.43  1254.00
                             1361.15  1373.48  1435.77  1460.27  1533.81
                             1563.66  1598.56  1604.39  1619.92  1656.22
                             1674.74  1747.75  1754.55  1767.99  1853.94
                             1887.93  1905.78  1984.32  2004.30  2029.64
                             2048.30  2081.15  2090.43  2114.38  2132.62
                             2144.02  2164.00  2173.75  2182.29  2253.60
                             2278.66  4066.39  4102.31  4267.44  4279.09
                             4393.67  4410.30  4436.71  4472.57  4528.63
                             4531.37  4540.87

 Zero-point correction=                           0.199372 (Hartree/Particle)
 Thermal correction to Energy=                    0.211998
 Thermal correction to Enthalpy=                  0.212943
 Thermal correction to Gibbs Free Energy=         0.161017
 Sum of electronic and zero-point Energies=           -669.032634
 Sum of electronic and thermal Energies=              -669.020008
 Sum of electronic and thermal Enthalpies=            -669.019064
 Sum of electronic and thermal Free Energies=         -669.070989

                     E (Thermal)             CV                S
                      KCal/Mol        Cal/Mol-Kelvin    Cal/Mol-Kelvin
 Total                  133.031             50.502            109.287
 Electronic               0.000              0.000              0.000
 Translational            0.889              2.981             41.800
 Rotational               0.889              2.981             31.915
 Vibrational            131.254             44.540             35.571
 Vibration     1          0.597              1.974              4.482
 Vibration     2          0.602              1.957              3.677
 Vibration     3          0.614              1.915              2.825
 Vibration     4          0.622              1.891              2.543
 Vibration     5          0.635              1.848              2.190
 Vibration     6          0.640              1.833              2.088
 Vibration     7          0.673              1.732              1.608
 Vibration     8          0.684              1.698              1.491
 Vibration     9          0.688              1.686              1.455
 Vibration    10          0.702              1.646              1.340
 Vibration    11          0.719              1.598              1.218
 Vibration    12          0.738              1.546              1.104
 Vibration    13          0.751              1.509              1.032
 Vibration    14          0.776              1.444              0.920
 Vibration    15          0.803              1.375              0.815
 Vibration    16          0.815              1.346              0.775
 Vibration    17          0.832              1.305              0.724
 Vibration    18          0.884              1.186              0.589
 Vibration    19          0.893              1.167              0.570

                           ! Non-Optimized Parameters !
 Normal termination of Gaussian 16 at Tue Dec 26 23:10:12 2023.
