 Gaussian 16, Revision A.03,
 Gaussian 16:  ES64L-G16RevA.03 25-Dec-2016

 --------------------------------------
 #P UB3LYP/6-311++G(d,p) nosym opt freq
 --------------------------------------

 -------
 Reduced
 -------
 Symbolic Z-matrix:
 Charge = -2 Multiplicity = 1

 SCF Done:  E(UB3LYP) =  -5643.18826043     A.U. after   29 cycles
 SCF Done:  E(UB3LYP) =  -5643.22727517     A.U. after   18 cycles
 SCF Done:  E(UB3LYP) =  -5643.24194469     A.U. after   15 cycles
 SCF Done:  E(UB3LYP) =  -5643.24373441     A.U. after   14 cycles
 SCF Done:  E(UB3LYP) =  -5643.24398548     A.U. after   14 cycles
 SCF Done:  E(UB3LYP) =  -5643.24404816     A.U. after   14 cycles
 SCF Done:  E(UB3LYP) =  -5643.24405633     A.U. after   14 cycles
 SCF Done:  E(UB3LYP) =  -5643.24405706     A.U. after   14 cycles
 SCF Done:  E(UB3LYP) =  -5643.24405793     A.U. after   13 cycles
 Optimization completed.
    -- Stationary point found.
 Normal termination of Gaussian 16 at Wed Dec 20 01:49:43 2023.

 ----------------------------------------------------------------------
 #P Geom=AllCheck Guess=TCheck SCRF=Check GenChk UB3LYP/6-311++G(d,p) F
 req
 ----------------------------------------------------------------------

 Structure from the checkpoint file:  "109-an.chk"
 -------
 Reduced
 -------
 Charge = -2 Multiplicity = 1

                          Input orientation:
 ---------------------------------------------------------------------
 Center     Atomic      Atomic             Coordinates (Angstroms)
 Number     Number       Type             X           Y           Z
 ---------------------------------------------------------------------
      1          6           0       -1.887415   -3.694884    1.246548
      2          6           0       -0.507820   -3.874793    1.083291
      3          6           0        0.364281   -2.825515    0.678725
      4          6           0       -0.071633   -1.494932    0.400061
      5          6           0       -1.508291   -1.309287    0.570980
      6          6           0       -2.318669   -2.351180    0.964219
      7          8           0       -2.810532   -4.550877    1.609441
      8          8           0        0.695419   -0.529975    0.033327
      9          8           0       -3.684054   -2.205655    1.134521
     10          6           0       -2.087444    0.057001    0.305584
     11         35           0        0.147466   -5.679296    1.451479
     12         35           0        2.278491   -3.133624    0.467003
     13          1           0       -1.271855    0.721413    0.009378
     14          1           0       -2.587346    0.471586    1.193550
     15          1           0       -2.844244    0.035267   -0.492567
     16          1           0       -3.895008   -3.140621    1.408610
 ---------------------------------------------------------------------

 SCF Done:  E(UB3LYP) =  -5643.24405793     A.U. after    1 cycles

 Alpha  occ. eigenvalues -- -482.56269-482.55659 -62.21541 -62.20925 -56.03543
 Alpha  occ. eigenvalues --  -56.03219 -56.03187 -56.02926 -56.02605 -56.02573
 Alpha  occ. eigenvalues --  -18.86589 -18.77743 -18.76045  -9.93843  -9.93578
 Alpha  occ. eigenvalues --   -9.93179  -9.92744  -9.92698  -9.90866  -9.88658
 Alpha  occ. eigenvalues --   -8.42491  -8.41875  -6.25523  -6.24901  -6.24436
 Alpha  occ. eigenvalues --   -6.24338  -6.23822  -6.23724  -2.36636  -2.36342
 Alpha  occ. eigenvalues --   -2.36267  -2.36016  -2.35723  -2.35648  -2.35401
 Alpha  occ. eigenvalues --   -2.35401  -2.34788  -2.34787  -0.77766  -0.68032
 Alpha  occ. eigenvalues --   -0.67762  -0.56545  -0.52179  -0.51513  -0.46827
 Alpha  occ. eigenvalues --   -0.40231  -0.38799  -0.29740  -0.28754  -0.23862
 Alpha  occ. eigenvalues --   -0.20394  -0.16681  -0.16437  -0.14347  -0.12943
 Alpha  occ. eigenvalues --   -0.12897  -0.12116  -0.10599  -0.09317  -0.08116
 Alpha  occ. eigenvalues --   -0.06777  -0.06381  -0.03691  -0.03589  -0.02822
 Alpha  occ. eigenvalues --   -0.00848   0.03004   0.03473   0.05917   0.05921
 Alpha  occ. eigenvalues --    0.12966
 Alpha virt. eigenvalues --    0.18288   0.19548   0.21043   0.21326   0.21830
 Alpha virt. eigenvalues --    0.23050   0.24475   0.24613   0.25256   0.25496
 Alpha virt. eigenvalues --    0.25664   0.26547   0.27613   0.28233   0.28723

  Beta  occ. eigenvalues -- -482.56269-482.55659 -62.21541 -62.20925 -56.03543
  Beta  occ. eigenvalues --  -56.03219 -56.03187 -56.02926 -56.02605 -56.02573
  Beta  occ. eigenvalues --  -18.86589 -18.77743 -18.76045  -9.93843  -9.93578
  Beta  occ. eigenvalues --   -9.93179  -9.92744  -9.92698  -9.90866  -9.88658
  Beta  occ. eigenvalues --   -8.42491  -8.41875  -6.25523  -6.24901  -6.24436
  Beta  occ. eigenvalues --   -6.24338  -6.23822  -6.23724  -2.36636  -2.36342
  Beta  occ. eigenvalues --   -2.36267  -2.36016  -2.35723  -2.35648  -2.35401
  Beta  occ. eigenvalues --   -2.35401  -2.34788  -2.34787  -0.77766  -0.68032
  Beta  occ. eigenvalues --   -0.67762  -0.56545  -0.52179  -0.51513  -0.46827
  Beta  occ. eigenvalues --   -0.40231  -0.38799  -0.29740  -0.28754  -0.23862
  Beta  occ. eigenvalues --   -0.20394  -0.16681  -0.16437  -0.14347  -0.12943
  Beta  occ. eigenvalues --   -0.12897  -0.12116  -0.10599  -0.09317  -0.08116
  Beta  occ. eigenvalues --   -0.06777  -0.06381  -0.03691  -0.03589  -0.02822
  Beta  occ. eigenvalues --   -0.00848   0.03004   0.03473   0.05917   0.05921
  Beta  occ. eigenvalues --    0.12966
  Beta virt. eigenvalues --    0.18288   0.19548   0.21043   0.21326   0.21830
  Beta virt. eigenvalues --    0.23050   0.24475   0.24613   0.25256   0.25496
  Beta virt. eigenvalues --    0.25664   0.26547   0.27613   0.28233   0.28723

 Mulliken charges and spin densities:
               1          2
     1  C   -1.011269   0.000000
     2  C    0.740160  -0.000000
     3  C    0.059031  -0.000000
     4  C   -1.523120  -0.000000
     5  C    1.932171   0.000000
     6  C   -0.367522   0.000000
     7  O   -0.560638   0.000000
     8  O   -0.488203  -0.000000
     9  O   -0.327600  -0.000000
    10  C   -0.357952  -0.000000
    11  Br  -0.344668   0.000000
    12  Br  -0.375545  -0.000000
    13  H    0.178599  -0.000000
    14  H    0.102675  -0.000000
    15  H    0.102617  -0.000000
    16  H    0.241264   0.000000
 Sum of Mulliken charges =  -2.00000   0.00000

 Dipole moment (field-independent basis, Debye):
    X=              5.9264    Y=             27.2580    Z=             -7.9855  Tot=             29.0153
 Quadrupole moment (field-independent basis, Debye-Ang):
   XX=           -151.4379   YY=           -224.7613   ZZ=           -115.8075
   XY=            -25.4465   XZ=             13.7406   YZ=             35.0685

  Exact polarizability: 207.536 -17.565 202.991 -11.139 -22.848 112.152
 Approx polarizability: 315.571  -8.504 295.959 -22.522 -35.709 165.892

 ******    2 imaginary frequencies (negative Signs) ******

                      1                      2                      3
                      A                      A                      A
 Frequencies --    -74.0303               -10.9386                96.6569
 Red. masses --      1.0248                14.7201                 6.1845
 Frc consts  --      0.0033                 0.0010                 0.0340
 IR Inten    --      0.7331                 0.0001                 8.6213

                      4                      5                      6
                      A                      A                      A
 Frequencies --    125.3349               160.9589               166.9862
 Red. masses --     57.8622                 5.8766                10.5399
 Frc consts  --      0.5355                 0.0897                 0.1732
 IR Inten    --      2.2522                 0.4325                 1.1871

                      7                      8                      9
                      A                      A                      A
 Frequencies --    175.0579               230.9163               242.9716
 Red. masses --     13.1574                11.0391                11.5681
 Frc consts  --      0.2376                 0.3468                 0.4024
 IR Inten    --      2.3793                 0.1943                 4.0682

                     10                     11                     12
                      A                      A                      A
 Frequencies --    252.9751               286.6266               314.9952
 Red. masses --      9.7565                 4.0092                 6.3989
 Frc consts  --      0.3679                 0.1941                 0.3741
 IR Inten    --      0.1136                 7.5599                 0.0008

                     13                     14                     15
                      A                      A                      A
 Frequencies --    346.2254               402.1872               493.8507
 Red. masses --      5.9756                 8.8822                13.3879
 Frc consts  --      0.4220                 0.8465                 1.9238
 IR Inten    --      9.8707                14.3067                 1.4938

                     16                     17                     18
                      A                      A                      A
 Frequencies --    498.7957               534.2764               703.3914
 Red. masses --      7.0615                 7.7364                10.3072
 Frc consts  --      1.0351                 1.3011                 3.0046
 IR Inten    --      0.1220                 7.7184                 1.3033

                     19                     20                     21
                      A                      A                      A
 Frequencies --    711.5876               714.3196               756.0415
 Red. masses --      8.5574                 5.9588                 8.3533
 Frc consts  --      2.5530                 1.7914                 2.8132
 IR Inten    --      0.0002                 3.6276                44.2763

                     22                     23                     24
                      A                      A                      A
 Frequencies --    780.9542               821.5286               936.9710
 Red. masses --     10.7841                 1.1122                 2.3836
 Frc consts  --      3.8751                 0.4423                 1.2329
 IR Inten    --    156.4790                69.8074                22.7154

                     25                     26                     27
                      A                      A                      A
 Frequencies --   1043.0033              1045.0712              1115.5425
 Red. masses --      1.4119                 4.7671                 4.6105
 Frc consts  --      0.9049                 3.0676                 3.3804
 IR Inten    --      0.0706                57.4930                21.9563

                     28                     29                     30
                      A                      A                      A
 Frequencies --   1156.4035              1216.2135              1303.0816
 Red. masses --      6.7334                 7.0294                 8.7738
 Frc consts  --      5.3053                 6.1262                 8.7777
 IR Inten    --    308.0146                34.7313                43.8834

                     31                     32                     33
                      A                      A                      A
 Frequencies --   1351.0654              1368.7843              1423.9644
 Red. masses --      1.4226                 2.6451                 3.9248
 Frc consts  --      1.5300                 2.9198                 4.6888
 IR Inten    --     25.9512                22.7866               633.3327

                     34                     35                     36
                      A                      A                      A
 Frequencies --   1453.7761              1480.1960              1488.2829
 Red. masses --      4.4794                 1.2521                 1.0508
 Frc consts  --      5.5778                 1.6163                 1.3714
 IR Inten    --    414.0479                 9.0684                 1.0881

                     37                     38                     39
                      A                      A                      A
 Frequencies --   1540.2528              1644.3788              2955.1978
 Red. masses --      2.8905                 5.5265                 1.0398
 Frc consts  --      4.0402                 8.8046                 5.3505
 IR Inten    --     60.2666               151.5409               252.0624

                     40                     41                     42
                      A                      A                      A
 Frequencies --   2973.8110              3076.6351              3233.1106
 Red. masses --      1.0987                 1.0936                 1.0637
 Frc consts  --      5.7247                 6.0992                 6.5509
 IR Inten    --    116.6453                12.4049               224.6112

 - Thermochemistry -
 -------------------
 Temperature   298.150 Kelvin.  Pressure   1.00000 Atm.
 Atom     1 has atomic number  6 and mass  12.00000

 Molecular mass:   293.85272 amu.
 Principal axes and moments of inertia in atomic units:
                           1         2         3
     Eigenvalues --  3111.920893876.725756977.49195
           X            0.79214   0.59265   0.14585
           Y           -0.60920   0.75318   0.24820
           Z            0.03724  -0.28546   0.95767
 This molecule is an asymmetric top.
 Rotational symmetry number  1.
 Warning -- assumption of classical behavior for rotation
           may cause significant error
 Rotational temperatures (Kelvin)      0.02783     0.02234     0.01241
 Rotational constants (GHZ):           0.57994     0.46553     0.25865
    2 imaginary frequencies ignored.
 Zero-point vibrational energy     242975.8 (Joules/Mol)
                                   58.07261 (Kcal/Mol)
 Warning -- explicit consideration of  15 degrees of freedom as
           vibrations may cause significant error
 Vibrational temperatures:    139.07   180.33   231.58   240.26   251.87
          (Kelvin)            332.24   349.58   363.97   412.39   453.21
                              498.14   578.66   710.54   717.66   768.70
                             1012.02  1023.82  1027.75  1087.78  1123.62
                             1182.00  1348.09  1500.65  1503.62  1605.02
                             1663.81  1749.86  1874.84  1943.88  1969.38
                             2048.77  2091.66  2129.67  2141.31  2216.08
                             2365.89  4251.87  4278.65  4426.59  4651.73

 Zero-point correction=                           0.092545 (Hartree/Particle)
 Thermal correction to Energy=                    0.103105
 Thermal correction to Enthalpy=                  0.104049
 Thermal correction to Gibbs Free Energy=         0.054632
 Sum of electronic and zero-point Energies=          -5643.151513
 Sum of electronic and thermal Energies=             -5643.140953
 Sum of electronic and thermal Enthalpies=           -5643.140009
 Sum of electronic and thermal Free Energies=        -5643.189426

                     E (Thermal)             CV                S
                      KCal/Mol        Cal/Mol-Kelvin    Cal/Mol-Kelvin
 Total                   64.699             38.006            104.007
 Electronic               0.000              0.000              0.000
 Translational            0.889              2.981             42.931
 Rotational               0.889              2.981             32.798
 Vibrational             62.922             32.045             28.278
 Vibration     1          0.603              1.952              3.521
 Vibration     2          0.610              1.928              3.016
 Vibration     3          0.622              1.890              2.538
 Vibration     4          0.624              1.883              2.469
 Vibration     5          0.627              1.873              2.380
 Vibration     6          0.653              1.794              1.872
 Vibration     7          0.659              1.774              1.781
 Vibration     8          0.664              1.758              1.710
 Vibration     9          0.684              1.699              1.494
 Vibration    10          0.702              1.645              1.336
 Vibration    11          0.724              1.583              1.183
 Vibration    12          0.768              1.465              0.955
 Vibration    13          0.850              1.264              0.674
 Vibration    14          0.854              1.253              0.661
 Vibration    15          0.889              1.174              0.578

                           ! Non-Optimized Parameters !
 Normal termination of Gaussian 16 at Wed Dec 20 01:57:47 2023.
