 Q-Chem 5.4, Q-Chem, Inc., Pleasanton, CA (2021)
 Q-Chem 5.4.0 for Intel X86 EM64T Linux

User input:
--------------------------------------------------------------
$molecule
-1 2
C                  0.1450910000      3.7150200000     -0.1566110000
C                 -0.9276120000      3.6428140000     -1.0257770000
C                 -0.9479630000      2.6660880000     -2.0419720000
C                  1.2300780000      2.8189330000     -0.2705590000
C                  1.2114860000      1.8314290000     -1.2970910000
C                  0.1090360000      1.7791860000     -2.1678170000
C                  2.3527240000      2.8951760000      0.6401260000
C                  3.4151980000      1.9358800000      0.4438480000
C                  3.4259840000      0.9639220000     -0.5341730000
C                  2.3210970000      0.8688270000     -1.4636780000
O                  2.4712730000      3.7362030000      1.5909090000
O                  2.2961090000      0.0035090000     -2.3779080000
H                  0.1835160000      4.4572750000      0.6327560000
H                 -1.7555930000      4.3388920000     -0.9264390000
H                 -1.7909700000      2.6100880000     -2.7242690000
H                  0.1203110000      1.0186400000     -2.9403990000
O                  4.4393960000      2.0695670000      1.3361750000
H                  4.1305600000      2.8230130000      1.8867290000
C                  4.5753620000     -0.0010790000     -0.6772090000
C                  5.5964040000      0.4464990000     -1.7431860000
C                  6.7155240000     -0.5707600000     -2.0413340000
C                  7.5147440000     -0.1319210000     -3.2847680000
C                  8.5059020000     -1.1661230000     -3.8367000000
C                  9.1966880000     -0.7001090000     -5.1251950000
C                 10.1256370000     -1.7323360000     -5.7925200000
C                 10.5884730000     -1.2342790000     -7.1694020000
C                  7.6278900000     -0.7935580000     -0.8248090000
C                 11.3363070000     -2.0890210000     -4.9174780000
H                  4.1696110000     -0.9726050000     -0.9793060000
H                  5.0669780000     -0.1178260000      0.2916630000
H                  6.0453900000      1.3997190000     -1.4344410000
H                  5.0437130000      0.6395620000     -2.6677230000
H                  6.2303260000     -1.5280740000     -2.2827740000
H                  8.0528980000      0.7979040000     -3.0519060000
H                  6.8008430000      0.1227050000     -4.0775670000
H                  7.9694880000     -2.1037910000     -4.0366910000
H                  9.2594640000     -1.3989480000     -3.0779780000
H                  9.7723630000      0.2137010000     -4.9201540000
H                  8.4240000000     -0.4120500000     -5.8491670000
H                  9.5417360000     -2.6503210000     -5.9483880000
H                  9.7365720000     -1.0199360000     -7.8217550000
H                 11.2187080000     -1.9755090000     -7.6716440000
H                 11.1729150000     -0.3120040000     -7.0734280000
H                  8.3925070000     -1.5525590000     -1.0165730000
H                  7.0557930000     -1.1197760000      0.0463670000
H                  8.1385260000      0.1378070000     -0.5525980000
H                 11.0361220000     -2.5166740000     -3.9581420000
H                 11.9401940000     -1.1976610000     -4.7108720000
H                 11.9815130000     -2.8183500000     -5.4180630000
$end

$rem
BASIS  =  6-311++G(d,p)
GUI  =  2
JOB_TYPE  =  SP
METHOD  =  B3LYP
SCF_CONVERGENCE  = 8
SOLVENT_METHOD = sm12
$end

$smx
solvent dimethylformamide
charges CM5
$end

--------------------------------------------------------------

             Standard Nuclear Orientation (Angstroms)
    I     Atom           X                Y                Z
 ----------------------------------------------------------------
    1      C       0.1450910000     3.7150200000    -0.1566110000
    2      C      -0.9276120000     3.6428140000    -1.0257770000
    3      C      -0.9479630000     2.6660880000    -2.0419720000
    4      C       1.2300780000     2.8189330000    -0.2705590000
    5      C       1.2114860000     1.8314290000    -1.2970910000
    6      C       0.1090360000     1.7791860000    -2.1678170000
    7      C       2.3527240000     2.8951760000     0.6401260000
    8      C       3.4151980000     1.9358800000     0.4438480000
    9      C       3.4259840000     0.9639220000    -0.5341730000
   10      C       2.3210970000     0.8688270000    -1.4636780000
   11      O       2.4712730000     3.7362030000     1.5909090000
   12      O       2.2961090000     0.0035090000    -2.3779080000
   13      H       0.1835160000     4.4572750000     0.6327560000
   14      H      -1.7555930000     4.3388920000    -0.9264390000
   15      H      -1.7909700000     2.6100880000    -2.7242690000
   16      H       0.1203110000     1.0186400000    -2.9403990000
   17      O       4.4393960000     2.0695670000     1.3361750000
   18      H       4.1305600000     2.8230130000     1.8867290000
   19      C       4.5753620000    -0.0010790000    -0.6772090000
   20      C       5.5964040000     0.4464990000    -1.7431860000
   21      C       6.7155240000    -0.5707600000    -2.0413340000
   22      C       7.5147440000    -0.1319210000    -3.2847680000
   23      C       8.5059020000    -1.1661230000    -3.8367000000
   24      C       9.1966880000    -0.7001090000    -5.1251950000
   25      C      10.1256370000    -1.7323360000    -5.7925200000
   26      C      10.5884730000    -1.2342790000    -7.1694020000
   27      C       7.6278900000    -0.7935580000    -0.8248090000
   28      C      11.3363070000    -2.0890210000    -4.9174780000
   29      H       4.1696110000    -0.9726050000    -0.9793060000
   30      H       5.0669780000    -0.1178260000     0.2916630000
   31      H       6.0453900000     1.3997190000    -1.4344410000
   32      H       5.0437130000     0.6395620000    -2.6677230000
   33      H       6.2303260000    -1.5280740000    -2.2827740000
   34      H       8.0528980000     0.7979040000    -3.0519060000
   35      H       6.8008430000     0.1227050000    -4.0775670000
   36      H       7.9694880000    -2.1037910000    -4.0366910000
   37      H       9.2594640000    -1.3989480000    -3.0779780000
   38      H       9.7723630000     0.2137010000    -4.9201540000
   39      H       8.4240000000    -0.4120500000    -5.8491670000
   40      H       9.5417360000    -2.6503210000    -5.9483880000
   41      H       9.7365720000    -1.0199360000    -7.8217550000
   42      H      11.2187080000    -1.9755090000    -7.6716440000
   43      H      11.1729150000    -0.3120040000    -7.0734280000
   44      H       8.3925070000    -1.5525590000    -1.0165730000
   45      H       7.0557930000    -1.1197760000     0.0463670000
   46      H       8.1385260000     0.1378070000    -0.5525980000
   47      H      11.0361220000    -2.5166740000    -3.9581420000
   48      H      11.9401940000    -1.1976610000    -4.7108720000
   49      H      11.9815130000    -2.8183500000    -5.4180630000
 ----------------------------------------------------------------

   18   -1003.8364087598      6.12e-09  Convergence criterion met
 Total energy in the final basis set =    -1003.9228631779

                    Orbital Energies (a.u.)
 --------------------------------------------------------------

 Alpha MOs
 -- Occupied --
-19.1441 -19.0859 -19.0730 -10.2238 -10.2236 -10.2215 -10.1818 -10.1805
-10.1803 -10.1789 -10.1781 -10.1775 -10.1736 -10.1715 -10.1651 -10.1644
-10.1629 -10.1624 -10.1618 -10.1611 -10.1568 -10.1566 -10.1564  -1.0637
 -0.9980  -0.9953  -0.8640  -0.8259  -0.8143  -0.8021  -0.7686  -0.7574
 -0.7453  -0.7135  -0.6837  -0.6785  -0.6732  -0.6445  -0.6217  -0.6047
 -0.5840  -0.5730  -0.5631  -0.5546  -0.5414  -0.5078  -0.4879  -0.4805
 -0.4696  -0.4615  -0.4569  -0.4445  -0.4416  -0.4389  -0.4339  -0.4316
 -0.4197  -0.4175  -0.4122  -0.3987  -0.3911  -0.3889  -0.3878  -0.3838
 -0.3820  -0.3804  -0.3709  -0.3614  -0.3550  -0.3527  -0.3491  -0.3457
 -0.3438  -0.3398  -0.3316  -0.3235  -0.3218  -0.3209  -0.3138  -0.3027
 -0.2707  -0.2639  -0.2585  -0.2379  -0.2305  -0.1520

 Beta MOs
 -- Occupied --
-19.1437 -19.0792 -19.0674 -10.2227 -10.2227 -10.2189 -10.1817 -10.1800
-10.1795 -10.1784 -10.1780 -10.1766 -10.1736 -10.1715 -10.1645 -10.1642
-10.1629 -10.1624 -10.1617 -10.1610 -10.1568 -10.1566 -10.1564  -1.0617
 -0.9884  -0.9841  -0.8617  -0.8254  -0.8128  -0.8002  -0.7670  -0.7553
 -0.7446  -0.7120  -0.6837  -0.6776  -0.6664  -0.6430  -0.6202  -0.6030
 -0.5829  -0.5706  -0.5631  -0.5545  -0.5398  -0.5056  -0.4855  -0.4803
 -0.4681  -0.4605  -0.4565  -0.4441  -0.4395  -0.4381  -0.4329  -0.4249
 -0.4176  -0.4148  -0.4076  -0.3961  -0.3883  -0.3875  -0.3838  -0.3817
 -0.3800  -0.3786  -0.3634  -0.3606  -0.3538  -0.3508  -0.3452  -0.3416
 -0.3388  -0.3321  -0.3275  -0.3230  -0.3213  -0.3207  -0.3137  -0.3021
 -0.2567  -0.2525  -0.2504  -0.2325  -0.2205

          Ground-State Mulliken Net Atomic Charges

     Atom                 Charge (a.u.)    Spin (a.u.)
  --------------------------------------------------------
      1 C                     0.083685       0.072746
      2 C                     0.865688       0.001556
      3 C                     0.850922       0.076649
      4 C                    -0.559931       0.004578
      5 C                    -1.303764       0.076611
      6 C                    -0.178936       0.000979
      7 C                    -1.730478       0.138394
      8 C                    -0.706384       0.054628
      9 C                     1.745750       0.054798
     10 C                    -2.135789       0.049528
     11 O                    -0.373670       0.248573
     12 O                    -0.283780       0.210799
     13 H                     0.168363      -0.004052
     14 H                     0.356409      -0.000698
     15 H                     0.340322      -0.005341
     16 H                     0.137073      -0.000352
     17 O                    -0.130656       0.015843
     18 H                     0.291835      -0.004179
     19 C                    -0.444731       0.009739
     20 C                    -2.566346      -0.002615
     21 C                     1.078088       0.005692
     22 C                    -0.580075      -0.008404
     23 C                     1.384380      -0.000018
     24 C                     0.141465       0.000139
     25 C                     0.975258       0.000091
     26 C                    -0.232409       0.000014
     27 C                    -0.273735       0.000384
     28 C                    -0.600031      -0.000018
     29 H                     0.118414       0.003125
     30 H                     0.158099      -0.001577
     31 H                     0.110867       0.002685
     32 H                    -0.048591      -0.001279
     33 H                     0.112290       0.000963
     34 H                     0.082477      -0.000064
     35 H                     0.152247      -0.000114
     36 H                     0.136212      -0.000031
     37 H                     0.031241       0.000084
     38 H                     0.134332      -0.000004
     39 H                     0.081519      -0.000015
     40 H                     0.107242       0.000003
     41 H                     0.140100      -0.000001
     42 H                     0.216049      -0.000005
     43 H                     0.139886      -0.000001
     44 H                     0.255255       0.000090
     45 H                     0.144240       0.000117
     46 H                     0.127476      -0.000039
     47 H                     0.156954       0.000000
     48 H                     0.132552      -0.000000
     49 H                     0.192612       0.000000
  --------------------------------------------------------
  Sum of atomic charges =    -1.000000

                    Cartesian Multipole Moments
 -----------------------------------------------------------------
    Charge (ESU x 10^10)
                -4.8032
    Dipole Moment (Debye)
         X     -12.1287      Y      -8.5242      Z       2.3054
       Tot      15.0027
    Quadrupole Moments (Debye-Ang)
        XX    -189.7542     XY     -19.4057     YY    -177.0713
        XZ       6.2297     YZ      -8.1896     ZZ    -165.8757

 Total job time:  2972.49s(wall), 21397.27s(cpu)
        *  Thank you very much for using Q-Chem.  Have a nice day.  *
