 Gaussian 16, Revision A.03,
 Gaussian 16:  ES64L-G16RevA.03 25-Dec-2016

 ----------------------------------------------------------------
 #P UB3LYP/6-311++G(d,p) SCRF=(PCM,Solvent=n,n-DiMethylFormamide)
 ----------------------------------------------------------------

 -------
 Reduced
 -------
 Symbolic Z-matrix:
 Charge = -2 Multiplicity = 1

                         Standard orientation:
 ---------------------------------------------------------------------
 Center     Atomic      Atomic             Coordinates (Angstroms)
 Number     Number       Type             X           Y           Z
 ---------------------------------------------------------------------
      1          6           0        2.589425    1.022321    0.158346
      2          6           0        3.612453    0.096136    0.199602
      3          6           0        3.320141   -1.291594    0.103245
      4          6           0        1.227520    0.634342    0.019226
      5          6           0        0.927284   -0.785659   -0.070340
      6          6           0        1.999254   -1.697541   -0.026043
      7          6           0        0.184421    1.603962   -0.028160
      8          6           0       -1.125860    1.081981   -0.160973
      9          6           0       -1.466071   -0.275107   -0.251069
     10          6           0       -0.442992   -1.282766   -0.207432
     11          8           0        0.323183    2.912545    0.045459
     12          8           0       -0.705042   -2.539199   -0.292284
     13          1           0        2.791904    2.087126    0.229624
     14          1           0        4.644864    0.428710    0.305518
     15          1           0        4.123479   -2.025760    0.132655
     16          1           0        1.739086   -2.749886   -0.098805
     17          6           0       -2.899624   -0.702344   -0.422046
     18          8           0       -2.091737    2.073512   -0.197139
     19          6           0       -3.629273   -0.981532    0.909264
     20          1           0       -2.908052   -1.625144   -1.014268
     21          1           0       -3.455738    0.069851   -0.968679
     22          1           0       -1.494351    2.862955   -0.110864
     23          1           0       -3.113700   -1.775253    1.457576
     24          1           0       -4.672494   -1.297211    0.741688
     25          1           0       -3.646301   -0.083449    1.535548
 ---------------------------------------------------------------------

 SCF Done:  E(UB3LYP) =  -689.418068857     A.U. after   18 cycles

 The electronic state is 1-A.
 Alpha  occ. eigenvalues --  -19.10703 -19.02352 -19.01554 -10.17406 -10.17108
 Alpha  occ. eigenvalues --  -10.15792 -10.14741 -10.14304 -10.14265 -10.14264
 Alpha  occ. eigenvalues --  -10.14246 -10.14164 -10.13540 -10.13085 -10.12201
 Alpha  occ. eigenvalues --   -1.01908  -0.93308  -0.92072  -0.82051  -0.77351
 Alpha  occ. eigenvalues --   -0.73730  -0.71922  -0.68727  -0.63785  -0.60565
 Alpha  occ. eigenvalues --   -0.57746  -0.55243  -0.53047  -0.49886  -0.46760
 Alpha  occ. eigenvalues --   -0.44566  -0.42962  -0.42292  -0.40793  -0.39897
 Alpha  occ. eigenvalues --   -0.39432  -0.38359  -0.36643  -0.35593  -0.35035
 Alpha  occ. eigenvalues --   -0.34751  -0.34446  -0.33561  -0.31936  -0.30910
 Alpha  occ. eigenvalues --   -0.30473  -0.29460  -0.29199  -0.22690  -0.22088
 Alpha  occ. eigenvalues --   -0.21235  -0.19365  -0.18854  -0.10816
 Alpha virt. eigenvalues --   -0.00403   0.00015   0.00803   0.01478   0.02070
 Alpha virt. eigenvalues --    0.02488   0.02800   0.03045   0.04740   0.05186
 Alpha virt. eigenvalues --    0.05631   0.05743   0.05881   0.06936   0.08189

  Beta  occ. eigenvalues --  -19.10703 -19.02352 -19.01554 -10.17406 -10.17108
  Beta  occ. eigenvalues --  -10.15792 -10.14741 -10.14304 -10.14265 -10.14264
  Beta  occ. eigenvalues --  -10.14246 -10.14164 -10.13540 -10.13085 -10.12201
  Beta  occ. eigenvalues --   -1.01908  -0.93308  -0.92072  -0.82051  -0.77351
  Beta  occ. eigenvalues --   -0.73730  -0.71922  -0.68727  -0.63785  -0.60565
  Beta  occ. eigenvalues --   -0.57746  -0.55243  -0.53047  -0.49886  -0.46760
  Beta  occ. eigenvalues --   -0.44566  -0.42962  -0.42292  -0.40793  -0.39897
  Beta  occ. eigenvalues --   -0.39432  -0.38359  -0.36643  -0.35593  -0.35035
  Beta  occ. eigenvalues --   -0.34751  -0.34446  -0.33561  -0.31936  -0.30910
  Beta  occ. eigenvalues --   -0.30473  -0.29460  -0.29199  -0.22690  -0.22088
  Beta  occ. eigenvalues --   -0.21235  -0.19365  -0.18854  -0.10816
  Beta virt. eigenvalues --   -0.00403   0.00015   0.00803   0.01478   0.02070
  Beta virt. eigenvalues --    0.02488   0.02800   0.03045   0.04740   0.05186
  Beta virt. eigenvalues --    0.05631   0.05743   0.05881   0.06936   0.08189

 Mulliken charges and spin densities:
               1          2
     1  C   -0.048643   0.000000
     2  C   -0.429921   0.000000
     3  C   -0.472544   0.000000
     4  C    0.197559   0.000000
     5  C    0.448007   0.000000
     6  C    0.035668  -0.000000
     7  C   -0.913490   0.000000
     8  C   -0.567539  -0.000000
     9  C    1.653366   0.000000
    10  C   -0.876162  -0.000000
    11  O   -0.742662  -0.000000
    12  O   -0.654218   0.000000
    13  H    0.148950  -0.000000
    14  H    0.150898   0.000000
    15  H    0.149349  -0.000000
    16  H    0.143898  -0.000000
    17  C   -0.244684  -0.000000
    18  O   -0.352030   0.000000
    19  C   -0.621830  -0.000000
    20  H    0.148645   0.000000
    21  H    0.158555   0.000000
    22  H    0.276956  -0.000000
    23  H    0.158139   0.000000
    24  H    0.114801  -0.000000
    25  H    0.138933   0.000000
 Sum of Mulliken charges =  -2.00000  -0.00000

 Dipole moment (field-independent basis, Debye):
    X=              0.5996    Y=             -1.5060    Z=              0.9420  Tot=              1.8749
 Quadrupole moment (field-independent basis, Debye-Ang):
   XX=           -118.4234   YY=           -150.0856   ZZ=           -100.7966
   XY=             -4.9543   XZ=             -0.9173   YZ=             -2.3446

 Normal termination of Gaussian 16 at Sun Jan 21 09:03:15 2024.
