 Gaussian 16, Revision A.03,
 Gaussian 16:  ES64L-G16RevA.03 25-Dec-2016

 --------------------------------------
 #P UB3LYP/6-311++G(d,p) nosym opt freq
 --------------------------------------

 --------
 Oxidized
 --------
 Symbolic Z-matrix:
 Charge =  0 Multiplicity = 1

 SCF Done:  E(UB3LYP) =  -839.440024051     A.U. after   15 cycles
 SCF Done:  E(UB3LYP) =  -839.460121839     A.U. after   14 cycles
 SCF Done:  E(UB3LYP) =  -839.464611884     A.U. after   13 cycles
 SCF Done:  E(UB3LYP) =  -839.464900472     A.U. after   13 cycles
 SCF Done:  E(UB3LYP) =  -839.465089218     A.U. after   12 cycles
 SCF Done:  E(UB3LYP) =  -839.465110892     A.U. after   11 cycles
 SCF Done:  E(UB3LYP) =  -839.465108010     A.U. after   10 cycles
 SCF Done:  E(UB3LYP) =  -839.465109981     A.U. after   11 cycles
 SCF Done:  E(UB3LYP) =  -839.465112559     A.U. after   10 cycles
 SCF Done:  E(UB3LYP) =  -839.465113137     A.U. after    9 cycles
 Optimization completed.
    -- Stationary point found.
 Normal termination of Gaussian 16 at Thu Dec 21 19:45:02 2023.

 ----------------------------------------------------------------------
 #P Geom=AllCheck Guess=TCheck SCRF=Check GenChk UB3LYP/6-311++G(d,p) F
 req
 ----------------------------------------------------------------------

 Structure from the checkpoint file:  "184.chk"
 --------
 Oxidized
 --------
 Charge =  0 Multiplicity = 1

                          Input orientation:
 ---------------------------------------------------------------------
 Center     Atomic      Atomic             Coordinates (Angstroms)
 Number     Number       Type             X           Y           Z
 ---------------------------------------------------------------------
      1          6           0        4.877745   -2.872420   -0.347778
      2          6           0        5.611497   -1.979075   -1.118752
      3          6           0        5.031781   -0.780170   -1.542401
      4          6           0        3.557496   -2.573012    0.005528
      5          6           0        2.972751   -1.366129   -0.420505
      6          6           0        3.720020   -0.475770   -1.195109
      7          6           0        2.789398   -3.536910    0.828161
      8          6           0        1.407080   -3.198215    1.184352
      9          6           0        0.806148   -1.985367    0.761430
     10          6           0        1.563229   -1.012025   -0.061961
     11          6           0        0.663783   -4.098261    1.962687
     12          6           0       -0.668186   -3.794861    2.318556
     13          6           0       -0.507260   -1.705667    1.122830
     14          6           0       -1.242219   -2.603996    1.897062
     15          8           0        3.303299   -4.601202    1.204430
     16          8           0        1.067662    0.039420   -0.438403
     17          8           0        1.139878   -5.274862    2.414532
     18          1           0        5.306872   -3.806932   -0.008739
     19          1           0        6.634152   -2.213347   -1.391166
     20          1           0        5.605882   -0.084469   -2.143826
     21          1           0        3.252016    0.447644   -1.512937
     22          1           0        2.073292   -5.349265    2.090080
     23          8           0       -1.374684   -4.669931    3.069064
     24          1           0       -0.948221   -0.774705    0.790380
     25          1           0       -2.265693   -2.391732    2.181826
     26          1           0       -0.809475   -5.432311    3.261728
 ---------------------------------------------------------------------

 SCF Done:  E(UB3LYP) =  -839.465113137     A.U. after    1 cycles

 Alpha  occ. eigenvalues --  -19.17851 -19.17587 -19.14533 -19.12385 -10.29474
 Alpha  occ. eigenvalues --  -10.27823 -10.27161 -10.26559 -10.21568 -10.21511
 Alpha  occ. eigenvalues --  -10.21368 -10.20757 -10.20731 -10.20674 -10.20571
 Alpha  occ. eigenvalues --  -10.20302 -10.20278 -10.20027  -1.11060  -1.08587
 Alpha  occ. eigenvalues --   -1.06568  -1.05789  -0.89974  -0.88512  -0.81911
 Alpha  occ. eigenvalues --   -0.78586  -0.77927  -0.77351  -0.70084  -0.68187
 Alpha  occ. eigenvalues --   -0.66315  -0.63737  -0.60565  -0.58770  -0.56967
 Alpha  occ. eigenvalues --   -0.55314  -0.53391  -0.51811  -0.50316  -0.48564
 Alpha  occ. eigenvalues --   -0.47560  -0.47100  -0.46410  -0.45804  -0.44905
 Alpha  occ. eigenvalues --   -0.44507  -0.43562  -0.42491  -0.42256  -0.40029
 Alpha  occ. eigenvalues --   -0.39740  -0.39201  -0.38687  -0.38571  -0.37471
 Alpha  occ. eigenvalues --   -0.35116  -0.29843  -0.29395  -0.28462  -0.27505
 Alpha  occ. eigenvalues --   -0.27465  -0.24401
 Alpha virt. eigenvalues --   -0.12254  -0.07483  -0.04016  -0.02382  -0.01247
 Alpha virt. eigenvalues --   -0.00778   0.00523   0.01123   0.01526   0.02902
 Alpha virt. eigenvalues --    0.03559   0.03647   0.03772   0.04114   0.04488

  Beta  occ. eigenvalues --  -19.17851 -19.17587 -19.14533 -19.12385 -10.29474
  Beta  occ. eigenvalues --  -10.27823 -10.27161 -10.26559 -10.21568 -10.21511
  Beta  occ. eigenvalues --  -10.21368 -10.20757 -10.20731 -10.20674 -10.20571
  Beta  occ. eigenvalues --  -10.20302 -10.20278 -10.20027  -1.11060  -1.08587
  Beta  occ. eigenvalues --   -1.06568  -1.05789  -0.89974  -0.88512  -0.81911
  Beta  occ. eigenvalues --   -0.78586  -0.77927  -0.77351  -0.70084  -0.68187
  Beta  occ. eigenvalues --   -0.66315  -0.63737  -0.60565  -0.58770  -0.56967
  Beta  occ. eigenvalues --   -0.55314  -0.53391  -0.51811  -0.50316  -0.48564
  Beta  occ. eigenvalues --   -0.47560  -0.47100  -0.46410  -0.45804  -0.44905
  Beta  occ. eigenvalues --   -0.44507  -0.43562  -0.42491  -0.42256  -0.40029
  Beta  occ. eigenvalues --   -0.39740  -0.39201  -0.38687  -0.38571  -0.37471
  Beta  occ. eigenvalues --   -0.35116  -0.29843  -0.29395  -0.28462  -0.27505
  Beta  occ. eigenvalues --   -0.27465  -0.24401
  Beta virt. eigenvalues --   -0.12254  -0.07483  -0.04016  -0.02382  -0.01247
  Beta virt. eigenvalues --   -0.00778   0.00523   0.01123   0.01526   0.02902
  Beta virt. eigenvalues --    0.03559   0.03647   0.03772   0.04114   0.04488

 Mulliken charges and spin densities:
               1          2
     1  C    0.192191  -0.000000
     2  C   -0.384723   0.000000
     3  C   -0.380280  -0.000000
     4  C    0.230280  -0.000000
     5  C   -0.077430  -0.000000
     6  C    0.147886   0.000000
     7  C   -0.510650  -0.000000
     8  C    0.564915   0.000000
     9  C    0.468701   0.000000
    10  C   -0.615038  -0.000000
    11  C   -0.144839   0.000000
    12  C   -0.374495  -0.000000
    13  C    0.097720   0.000000
    14  C    0.099640  -0.000000
    15  O   -0.276331   0.000000
    16  O   -0.222167   0.000000
    17  O   -0.356267  -0.000000
    18  H    0.186156   0.000000
    19  H    0.177362   0.000000
    20  H    0.178517  -0.000000
    21  H    0.185724  -0.000000
    22  H    0.350045  -0.000000
    23  O   -0.230668  -0.000000
    24  H    0.184644   0.000000
    25  H    0.214633  -0.000000
    26  H    0.294474   0.000000
 Sum of Mulliken charges =  -0.00000  -0.00000

 Dipole moment (field-independent basis, Debye):
    X=              1.9939    Y=             -0.3596    Z=             -0.5839  Tot=              2.1085
 Quadrupole moment (field-independent basis, Debye-Ang):
   XX=            -85.2296   YY=           -105.3999   ZZ=           -102.5677
   XY=             -1.0821   XZ=             -7.1420   YZ=              0.6314

  Exact polarizability: 233.719   8.510 185.477 -63.528 -58.948 139.663
 Approx polarizability: 364.864 -14.808 351.968 -82.228-112.514 226.910

                      1                      2                      3
                      A                      A                      A
 Frequencies --     44.1865                90.7939               119.3828
 Red. masses --      7.7590                 5.5851                 6.4855
 Frc consts  --      0.0089                 0.0271                 0.0545
 IR Inten    --      2.8350                 0.4093                 1.0685

                      4                      5                      6
                      A                      A                      A
 Frequencies --    136.9791               179.2570               195.6429
 Red. masses --      9.2112                 6.2607                 5.8799
 Frc consts  --      0.1018                 0.1185                 0.1326
 IR Inten    --      0.0104                 0.0843                 0.5958

                      7                      8                      9
                      A                      A                      A
 Frequencies --    252.5173               290.1740               327.1440
 Red. masses --      5.9851                 6.3372                 7.9982
 Frc consts  --      0.2249                 0.3144                 0.5043
 IR Inten    --      0.1483                 1.3661                 0.2391

                     10                     11                     12
                      A                      A                      A
 Frequencies --    332.0327               348.7860               393.4490
 Red. masses --      6.2191                 6.1487                 8.1593
 Frc consts  --      0.4040                 0.4407                 0.7442
 IR Inten    --      0.5017                 7.1669                 5.6397

                     13                     14                     15
                      A                      A                      A
 Frequencies --    424.4825               424.9114               450.7096
 Red. masses --     11.9638                 3.4149                 4.2646
 Frc consts  --      1.2701                 0.3633                 0.5104
 IR Inten    --     21.1114                 0.2398                 8.4864

                     16                     17                     18
                      A                      A                      A
 Frequencies --    466.5619               473.9402               486.6559
 Red. masses --      1.2747                11.3069                 6.7580
 Frc consts  --      0.1635                 1.4964                 0.9430
 IR Inten    --    115.3590                 0.2900                12.9826

                     19                     20                     21
                      A                      A                      A
 Frequencies --    498.7461               575.0897               584.1454
 Red. masses --      3.1979                 4.9684                 7.8919
 Frc consts  --      0.4687                 0.9681                 1.5866
 IR Inten    --     10.6501                 0.5465                 6.1668

                     22                     23                     24
                      A                      A                      A
 Frequencies --    626.7136               671.6202               678.9707
 Red. masses --      6.5796                 6.8671                 5.2921
 Frc consts  --      1.5226                 1.8250                 1.4374
 IR Inten    --     13.7538                16.0471                 3.2972

                     25                     26                     27
                      A                      A                      A
 Frequencies --    698.8562               709.0552               734.1388
 Red. masses --      6.3103                 6.9647                 2.1945
 Frc consts  --      1.8158                 2.0631                 0.6969
 IR Inten    --      3.3603                 0.3322                65.2283

                     28                     29                     30
                      A                      A                      A
 Frequencies --    767.2225               785.3964               790.3112
 Red. masses --      7.2928                 4.7992                 1.0853
 Frc consts  --      2.5292                 1.7442                 0.3994
 IR Inten    --      6.0656                 4.5671                93.5805

                     31                     32                     33
                      A                      A                      A
 Frequencies --    810.4623               843.8335               862.1039
 Red. masses --      1.8511                 7.3400                 1.5112
 Frc consts  --      0.7164                 3.0793                 0.6618
 IR Inten    --      1.7057                42.9086                22.9079

                     34                     35                     36
                      A                      A                      A
 Frequencies --    906.7116               916.6984               977.5499
 Red. masses --      7.3127                 1.3750                 1.3136
 Frc consts  --      3.5421                 0.6808                 0.7396
 IR Inten    --      8.0366                 0.1725                 0.0249

                     37                     38                     39
                      A                      A                      A
 Frequencies --   1002.8593              1019.4095              1027.0021
 Red. masses --      1.3813                 1.3280                 4.6742
 Frc consts  --      0.8185                 0.8131                 2.9047
 IR Inten    --      1.6596                 0.0830                58.0586

                     40                     41                     42
                      A                      A                      A
 Frequencies --   1045.8425              1066.5883              1113.3791
 Red. masses --      3.1284                 1.9894                 2.2559
 Frc consts  --      2.0160                 1.3334                 1.6476
 IR Inten    --     12.2439                 8.6477                 0.7545

                     43                     44                     45
                      A                      A                      A
 Frequencies --   1171.5284              1182.3594              1205.3323
 Red. masses --      1.6853                 1.1610                 2.0102
 Frc consts  --      1.3628                 0.9563                 1.7207
 IR Inten    --      1.6495                14.7746                38.7790

                     46                     47                     48
                      A                      A                      A
 Frequencies --   1216.2991              1244.3639              1285.7411
 Red. masses --      1.7768                 1.9193                 2.0164
 Frc consts  --      1.5487                 1.7510                 1.9640
 IR Inten    --     75.4736                21.0188                92.4294

                     49                     50                     51
                      A                      A                      A
 Frequencies --   1307.2199              1318.0067              1344.8907
 Red. masses --      5.6707                 2.7544                 3.9084
 Frc consts  --      5.7093                 2.8192                 4.1651
 IR Inten    --    981.2778                84.1682                99.4648

                     52                     53                     54
                      A                      A                      A
 Frequencies --   1357.8370              1376.2374              1431.9835
 Red. masses --      6.1950                 2.5022                 2.8836
 Frc consts  --      6.7296                 2.7923                 3.4839
 IR Inten    --     46.4263               160.9957                 2.5627

                     55                     56                     57
                      A                      A                      A
 Frequencies --   1481.7434              1486.1581              1504.3305
 Red. masses --      2.4840                 3.3878                 2.8197
 Frc consts  --      3.2133                 4.4086                 3.7596
 IR Inten    --     32.6866               392.9079                 1.5269

                     58                     59                     60
                      A                      A                      A
 Frequencies --   1514.6822              1608.0720              1622.4733
 Red. masses --      3.8452                 6.8642                 4.3741
 Frc consts  --      5.1977                10.4581                 6.7842
 IR Inten    --      6.5510                 6.5471               142.7286

                     61                     62                     63
                      A                      A                      A
 Frequencies --   1625.4874              1631.6616              1673.2440
 Red. masses --      5.9685                 6.1333                 8.6078
 Frc consts  --      9.2914                 9.6206                14.1991
 IR Inten    --     23.0793                45.3575               168.7566

                     64                     65                     66
                      A                      A                      A
 Frequencies --   1718.0463              3171.4444              3185.7764
 Red. masses --     11.8102                 1.0871                 1.0919
 Frc consts  --     20.5390                 6.4423                 6.5293
 IR Inten    --    173.9562                 3.2161                10.6229

                     67                     68                     69
                      A                      A                      A
 Frequencies --   3190.9978              3201.3520              3204.0991
 Red. masses --      1.0895                 1.0926                 1.0948
 Frc consts  --      6.5360                 6.5975                 6.6222
 IR Inten    --      2.6915                 0.8793                10.3446

                     70                     71                     72
                      A                      A                      A
 Frequencies --   3207.2729              3286.6410              3755.5388
 Red. masses --      1.0936                 1.0681                 1.0653
 Frc consts  --      6.6279                 6.7979                 8.8528
 IR Inten    --      1.5600               288.3056               129.6643

 - Thermochemistry -
 -------------------
 Temperature   298.150 Kelvin.  Pressure   1.00000 Atm.
 Atom     1 has atomic number  6 and mass  12.00000

 Molecular mass:   240.04226 amu.
 Principal axes and moments of inertia in atomic units:
                           1         2         3
     Eigenvalues --  2001.757485707.158607708.91607
           X            0.75692  -0.56710   0.32476
           Y            0.40323   0.79635   0.45080
           Z           -0.51428  -0.21027   0.83145
 This molecule is an asymmetric top.
 Rotational symmetry number  1.
 Warning -- assumption of classical behavior for rotation
           may cause significant error
 Rotational temperatures (Kelvin)      0.04327     0.01518     0.01124
 Rotational constants (GHZ):           0.90158     0.31622     0.23411
 Zero-point vibrational energy     494423.4 (Joules/Mol)
                                  118.17002 (Kcal/Mol)
 Warning -- explicit consideration of  21 degrees of freedom as
           vibrations may cause significant error
 Vibrational temperatures:     63.57   130.63   171.77   197.08   257.91
          (Kelvin)            281.49   363.32   417.50   470.69   477.72
                              501.83   566.09   610.74   611.35   648.47
                              671.28   681.89   700.19   717.58   827.43
                              840.45   901.70   966.31   976.89  1005.50
                             1020.17  1056.26  1103.86  1130.01  1137.08
                             1166.07  1214.09  1240.38  1304.56  1318.92
                             1406.48  1442.89  1466.70  1477.63  1504.73
                             1534.58  1601.90  1685.57  1701.15  1734.20
                             1749.98  1790.36  1849.89  1880.80  1896.32
                             1935.00  1953.62  1980.10  2060.30  2131.90
                             2138.25  2164.40  2179.29  2313.66  2334.38
                             2338.71  2347.60  2407.42  2471.89  4563.00
                             4583.62  4591.13  4606.03  4609.98  4614.55
                             4728.74  5403.38

 Zero-point correction=                           0.188316 (Hartree/Particle)
 Thermal correction to Energy=                    0.201454
 Thermal correction to Enthalpy=                  0.202398
 Thermal correction to Gibbs Free Energy=         0.148707
 Sum of electronic and zero-point Energies=           -839.276797
 Sum of electronic and thermal Energies=              -839.263659
 Sum of electronic and thermal Enthalpies=            -839.262715
 Sum of electronic and thermal Free Energies=         -839.316407

                     E (Thermal)             CV                S
                      KCal/Mol        Cal/Mol-Kelvin    Cal/Mol-Kelvin
 Total                  126.414             53.513            113.004
 Electronic               0.000              0.000              0.000
 Translational            0.889              2.981             42.328
 Rotational               0.889              2.981             32.843
 Vibrational            124.637             47.552             37.833
 Vibration     1          0.595              1.980              5.062
 Vibration     2          0.602              1.956              3.643
 Vibration     3          0.609              1.933              3.110
 Vibration     4          0.614              1.916              2.846
 Vibration     5          0.629              1.868              2.336
 Vibration     6          0.636              1.846              2.174
 Vibration     7          0.664              1.759              1.713
 Vibration     8          0.686              1.692              1.473
 Vibration     9          0.711              1.621              1.274
 Vibration    10          0.714              1.612              1.250
 Vibration    11          0.726              1.578              1.172
 Vibration    12          0.761              1.484              0.987
 Vibration    13          0.786              1.417              0.877
 Vibration    14          0.787              1.416              0.875
 Vibration    15          0.809              1.359              0.794
 Vibration    16          0.824              1.324              0.747
 Vibration    17          0.831              1.308              0.727
 Vibration    18          0.843              1.280              0.692
 Vibration    19          0.854              1.253              0.661
 Vibration    20          0.931              1.085              0.495
 Vibration    21          0.941              1.066              0.478

 Optimization completed.
    -- Stationary point found.
 Normal termination of Gaussian 16 at Thu Dec 21 20:31:54 2023.
