 Q-Chem 5.4, Q-Chem, Inc., Pleasanton, CA (2021)
 Q-Chem 5.4.0 for Intel X86 EM64T Linux

User input:
--------------------------------------------------------------
$molecule
-2 1
C                 -3.4184800000      3.5951710000      0.0760600000
C                 -4.5958930000      2.8636620000      0.1078860000
C                 -4.5930180000      1.4418530000      0.1242770000
C                 -2.1403700000      2.9262670000      0.0583820000
C                 -2.1511310000      1.4673270000      0.0753890000
C                 -3.3924310000      0.7768380000      0.1080920000
C                 -0.8911530000      3.6703010000      0.0250470000
C                  0.3279010000      2.8772590000      0.0089510000
C                  0.2814140000      1.4190260000      0.0268410000
C                 -0.9500070000      0.6706580000      0.0606000000
C                  1.6312350000      3.4948560000     -0.0252220000
C                  2.7790240000      2.7171740000     -0.0396400000
C                  2.7203790000      1.2965950000     -0.0216540000
C                  1.4946520000      0.6797820000      0.0106910000
O                 -0.8658160000      4.9619040000      0.0105780000
O                 -0.9753550000     -0.6219560000      0.0763470000
C                 -3.5555510000      5.1062350000      0.0613330000
H                 -5.5449990000      3.3984300000      0.1204940000
H                 -5.5349830000      0.8951120000      0.1493030000
H                 -3.3318140000     -0.3067750000      0.1193880000
C                  1.8275190000      4.9992930000     -0.0474930000
H                  1.3915680000     -0.4005770000      0.0254450000
H                  3.7483410000      3.2138570000     -0.0656300000
H                  3.6401520000      0.7128790000     -0.0336320000
H                 -4.6226690000      5.3754680000      0.0784390000
H                 -3.0799460000      5.5460140000     -0.8175610000
H                 -3.0473270000      5.5658040000      0.9114010000
H                  1.3351700000      5.4577190000     -0.9074490000
H                  2.9043240000      5.2258680000     -0.0732960000
H                  1.3721780000      5.4786470000      0.8214020000
$end

$rem
BASIS  =  6-311++G(d,p)
GUI  =  2
JOB_TYPE  =  SP
METHOD  =  B3LYP
SCF_CONVERGENCE  = 8
SOLVENT_METHOD = sm12
$end

$smx
solvent dimethylformamide
charges CM5
$end

--------------------------------------------------------------

             Standard Nuclear Orientation (Angstroms)
    I     Atom           X                Y                Z
 ----------------------------------------------------------------
    1      C      -3.4184800000     3.5951710000     0.0760600000
    2      C      -4.5958930000     2.8636620000     0.1078860000
    3      C      -4.5930180000     1.4418530000     0.1242770000
    4      C      -2.1403700000     2.9262670000     0.0583820000
    5      C      -2.1511310000     1.4673270000     0.0753890000
    6      C      -3.3924310000     0.7768380000     0.1080920000
    7      C      -0.8911530000     3.6703010000     0.0250470000
    8      C       0.3279010000     2.8772590000     0.0089510000
    9      C       0.2814140000     1.4190260000     0.0268410000
   10      C      -0.9500070000     0.6706580000     0.0606000000
   11      C       1.6312350000     3.4948560000    -0.0252220000
   12      C       2.7790240000     2.7171740000    -0.0396400000
   13      C       2.7203790000     1.2965950000    -0.0216540000
   14      C       1.4946520000     0.6797820000     0.0106910000
   15      O      -0.8658160000     4.9619040000     0.0105780000
   16      O      -0.9753550000    -0.6219560000     0.0763470000
   17      C      -3.5555510000     5.1062350000     0.0613330000
   18      H      -5.5449990000     3.3984300000     0.1204940000
   19      H      -5.5349830000     0.8951120000     0.1493030000
   20      H      -3.3318140000    -0.3067750000     0.1193880000
   21      C       1.8275190000     4.9992930000    -0.0474930000
   22      H       1.3915680000    -0.4005770000     0.0254450000
   23      H       3.7483410000     3.2138570000    -0.0656300000
   24      H       3.6401520000     0.7128790000    -0.0336320000
   25      H      -4.6226690000     5.3754680000     0.0784390000
   26      H      -3.0799460000     5.5460140000    -0.8175610000
   27      H      -3.0473270000     5.5658040000     0.9114010000
   28      H       1.3351700000     5.4577190000    -0.9074490000
   29      H       2.9043240000     5.2258680000    -0.0732960000
   30      H       1.3721780000     5.4786470000     0.8214020000
 ----------------------------------------------------------------

   18    -767.5571708396      2.78e-09  Convergence criterion met
 Total energy in the final basis set =     -767.8381410248

                    Orbital Energies (a.u.)
 --------------------------------------------------------------

 Alpha MOs
 -- Occupied --
-19.0246 -19.0240 -10.1945 -10.1824 -10.1822 -10.1821 -10.1706 -10.1705
-10.1647 -10.1647 -10.1626 -10.1625 -10.1621 -10.1620 -10.1591 -10.1590
-10.1519 -10.1519  -0.9466  -0.9391  -0.8441  -0.8422  -0.7722  -0.7667
 -0.7611  -0.7224  -0.6868  -0.6763  -0.6472  -0.6147  -0.6085  -0.5576
 -0.5357  -0.5165  -0.5060  -0.4594  -0.4547  -0.4541  -0.4506  -0.4197
 -0.4109  -0.4109  -0.4032  -0.3942  -0.3936  -0.3788  -0.3777  -0.3765
 -0.3632  -0.3523  -0.3458  -0.3377  -0.3307  -0.3285  -0.3142  -0.3133
 -0.2436  -0.2395  -0.2349  -0.2291  -0.2033  -0.1970  -0.1164

          Ground-State Mulliken Net Atomic Charges

     Atom                 Charge (a.u.)
  ----------------------------------------
      1 C                    -0.456679
      2 C                     1.635457
      3 C                     1.352978
      4 C                    -1.301781
      5 C                    -1.487069
      6 C                    -0.060556
      7 C                    -2.804014
      8 C                    -1.299831
      9 C                    -1.485950
     10 C                    -3.655219
     11 C                    -0.453041
     12 C                     1.642624
     13 C                     1.355555
     14 C                    -0.053172
     15 O                    -0.194734
     16 O                    -0.336797
     17 C                     1.474428
     18 H                     0.259099
     19 H                     0.407572
     20 H                     0.092186
     21 C                     1.475838
     22 H                     0.092355
     23 H                     0.259408
     24 H                     0.407752
     25 H                     0.314857
     26 H                     0.125912
     27 H                     0.125814
     28 H                     0.126031
     29 H                     0.315023
     30 H                     0.125953
  ----------------------------------------
  Sum of atomic charges =    -2.000000

                    Cartesian Multipole Moments
 -----------------------------------------------------------------
    Charge (ESU x 10^10)
                -9.6064
    Dipole Moment (Debye)
         X       8.8792      Y     -19.3598      Z      -0.4284
       Tot      21.3032
    Quadrupole Moments (Debye-Ang)
        XX    -161.6517     XY      17.6369     YY    -206.1179
        XZ       1.0589     YZ      -0.3340     ZZ    -120.8403

 Total job time:  931.80s(wall), 7125.63s(cpu)
        *  Thank you very much for using Q-Chem.  Have a nice day.  *
