 Gaussian 16, Revision A.03,
 Gaussian 16:  ES64L-G16RevA.03 25-Dec-2016

 --------------------------------------
 #P UB3LYP/6-311++G(d,p) nosym opt freq
 --------------------------------------

 -------
 Reduced
 -------
 Symbolic Z-matrix:
 Charge = -2 Multiplicity = 1

 SCF Done:  E(UB3LYP) =  -669.218354675     A.U. after   90 cycles
 SCF Done:  E(UB3LYP) =  -669.233236166     A.U. after   32 cycles
 SCF Done:  E(UB3LYP) =  -669.235036156     A.U. after   29 cycles
 SCF Done:  E(UB3LYP) =  -669.235488594     A.U. after   27 cycles
 SCF Done:  E(UB3LYP) =  -669.236300622     A.U. after   28 cycles
 SCF Done:  E(UB3LYP) =  -669.236927958     A.U. after   28 cycles
 SCF Done:  E(UB3LYP) =  -669.237682417     A.U. after   25 cycles
 SCF Done:  E(UB3LYP) =  -669.238130752     A.U. after   26 cycles
 SCF Done:  E(UB3LYP) =  -669.238454818     A.U. after   28 cycles
 SCF Done:  E(UB3LYP) =  -669.238665823     A.U. after   26 cycles
 SCF Done:  E(UB3LYP) =  -669.238808528     A.U. after   26 cycles
 SCF Done:  E(UB3LYP) =  -669.238871084     A.U. after   26 cycles
 SCF Done:  E(UB3LYP) =  -669.238886933     A.U. after   24 cycles
 SCF Done:  E(UB3LYP) =  -669.238893518     A.U. after   25 cycles
 SCF Done:  E(UB3LYP) =  -669.238900547     A.U. after   24 cycles
 SCF Done:  E(UB3LYP) =  -669.238901914     A.U. after   25 cycles
 SCF Done:  E(UB3LYP) =  -669.238902208     A.U. after   23 cycles
 SCF Done:  E(UB3LYP) =  -669.238902266     A.U. after   24 cycles
 Optimization completed.
    -- Stationary point found.
 Normal termination of Gaussian 16 at Sat Jan  6 04:00:20 2024.

 ----------------------------------------------------------------------
 #P Geom=AllCheck Guess=TCheck SCRF=Check GenChk UB3LYP/6-311++G(d,p) F
 req
 ----------------------------------------------------------------------

 Structure from the checkpoint file:  "324-an.chk"
 -------
 Reduced
 -------
 Charge = -2 Multiplicity = 1

                          Input orientation:
 ---------------------------------------------------------------------
 Center     Atomic      Atomic             Coordinates (Angstroms)
 Number     Number       Type             X           Y           Z
 ---------------------------------------------------------------------
      1          6           0       -1.771217    2.740056   -0.817736
      2          6           0       -2.877901    1.934540   -0.628852
      3          6           0       -2.700443    0.600200   -0.179358
      4          6           0       -0.448331    2.287001   -0.596931
      5          6           0       -0.263762    0.902149   -0.197158
      6          6           0       -1.420265    0.115023    0.028674
      7          6           0        0.653640    3.220689   -0.793925
      8          6           0        2.030201    2.679537   -0.576032
      9          6           0        2.135119    1.291486   -0.200609
     10          6           0        1.070551    0.418517   -0.022076
     11          8           0        0.457054    4.419529   -1.144134
     12          8           0        3.060699    3.395029   -0.730714
     13          1           0       -1.875247    3.770513   -1.143193
     14          1           0       -3.878533    2.322830   -0.807615
     15          1           0       -3.559582   -0.040532    0.004946
     16          1           0       -1.317747   -0.902482    0.397982
     17          1           0        3.154989    0.939434   -0.080418
     18          7           0        1.260260   -0.922652    0.415046
     19          6           0        2.537834   -1.591716    0.232917
     20          6           0        2.490430   -3.018015    0.783177
     21          1           0        0.504691   -1.515844    0.104174
     22          1           0        3.308437   -1.022448    0.757128
     23          1           0        2.844808   -1.622293   -0.831360
     24          1           0        2.244535   -3.024802    1.849704
     25          1           0        3.453029   -3.523452    0.649300
     26          1           0        1.740262   -3.628618    0.265413
 ---------------------------------------------------------------------

 SCF Done:  E(UB3LYP) =  -669.238902266     A.U. after    4 cycles

 Alpha  occ. eigenvalues --  -18.80376 -18.80020 -14.09901  -9.99483  -9.96810
 Alpha  occ. eigenvalues --   -9.96360  -9.95555  -9.95473  -9.94864  -9.94603
 Alpha  occ. eigenvalues --   -9.94256  -9.93713  -9.93547  -9.92133  -9.90639
 Alpha  occ. eigenvalues --   -0.73324  -0.70759  -0.70505  -0.61883  -0.56668
 Alpha  occ. eigenvalues --   -0.53200  -0.51462  -0.48291  -0.43656  -0.40969
 Alpha  occ. eigenvalues --   -0.37653  -0.35795  -0.32646  -0.29295  -0.26907
 Alpha  occ. eigenvalues --   -0.26298  -0.25278  -0.22790  -0.21260  -0.19548
 Alpha  occ. eigenvalues --   -0.18909  -0.18176  -0.17837  -0.16926  -0.15738
 Alpha  occ. eigenvalues --   -0.15399  -0.14143  -0.12985  -0.11530  -0.10813
 Alpha  occ. eigenvalues --   -0.10088  -0.09198  -0.06056  -0.02235  -0.01327
 Alpha  occ. eigenvalues --    0.01478   0.03378   0.04478   0.12114
 Alpha virt. eigenvalues --    0.13732   0.15116   0.16369   0.17268   0.17461
 Alpha virt. eigenvalues --    0.18552   0.19915   0.20040   0.20864   0.21232
 Alpha virt. eigenvalues --    0.22047   0.23186   0.23353   0.24584   0.25442

  Beta  occ. eigenvalues --  -18.80376 -18.80020 -14.09901  -9.99483  -9.96810
  Beta  occ. eigenvalues --   -9.96360  -9.95555  -9.95473  -9.94864  -9.94603
  Beta  occ. eigenvalues --   -9.94256  -9.93713  -9.93547  -9.92133  -9.90639
  Beta  occ. eigenvalues --   -0.73324  -0.70759  -0.70505  -0.61883  -0.56668
  Beta  occ. eigenvalues --   -0.53200  -0.51462  -0.48291  -0.43656  -0.40969
  Beta  occ. eigenvalues --   -0.37653  -0.35795  -0.32646  -0.29295  -0.26907
  Beta  occ. eigenvalues --   -0.26298  -0.25278  -0.22790  -0.21260  -0.19548
  Beta  occ. eigenvalues --   -0.18909  -0.18176  -0.17837  -0.16926  -0.15738
  Beta  occ. eigenvalues --   -0.15399  -0.14143  -0.12985  -0.11530  -0.10813
  Beta  occ. eigenvalues --   -0.10088  -0.09198  -0.06056  -0.02235  -0.01327
  Beta  occ. eigenvalues --    0.01478   0.03378   0.04478   0.12114
  Beta virt. eigenvalues --    0.13732   0.15116   0.16369   0.17268   0.17461
  Beta virt. eigenvalues --    0.18552   0.19915   0.20040   0.20864   0.21232
  Beta virt. eigenvalues --    0.22047   0.23186   0.23353   0.24584   0.25442

 Mulliken charges and spin densities:
               1          2
     1  C    0.125482  -0.000000
     2  C   -0.220251  -0.000000
     3  C   -0.521518   0.000000
     4  C    0.487368   0.000000
     5  C    0.339635  -0.000000
     6  C    0.082463   0.000000
     7  C   -0.436902   0.000000
     8  C   -0.731448  -0.000000
     9  C   -0.173806  -0.000000
    10  C    0.000945   0.000000
    11  O   -0.454287   0.000000
    12  O   -0.451714   0.000000
    13  H    0.125469   0.000000
    14  H    0.088388  -0.000000
    15  H   -0.019900  -0.000000
    16  H   -0.269644  -0.000000
    17  H    0.037696  -0.000000
    18  N    0.048399  -0.000000
    19  C   -1.938799  -0.000000
    20  C    3.136444   0.000000
    21  H    0.760480   0.000000
    22  H    0.214832   0.000000
    23  H   -0.050362  -0.000000
    24  H   -0.299278  -0.000000
    25  H   -0.993227  -0.000000
    26  H   -0.886465  -0.000000
 Sum of Mulliken charges =  -2.00000   0.00000

 Dipole moment (field-independent basis, Debye):
    X=            -12.0689    Y=            -10.1200    Z=              2.5751  Tot=             15.9595
 Quadrupole moment (field-independent basis, Debye-Ang):
   XX=           -168.3641   YY=           -235.6746   ZZ=           -118.4975
   XY=              4.2178   XZ=              2.1841   YZ=             27.7183

  Exact polarizability:1338.489-349.5471454.687  -4.476-213.453 548.516
 Approx polarizability:2063.354********8753.675 415.426******** 775.096

                      1                      2                      3
                      A                      A                      A
 Frequencies --     53.9218                64.1092                82.5223
 Red. masses --      5.1657                 1.8233                 4.0054
 Frc consts  --      0.0088                 0.0044                 0.0161
 IR Inten    --      4.4103                 1.5833                 1.6799

                      4                      5                      6
                      A                      A                      A
 Frequencies --    118.2146               121.5272               184.9701
 Red. masses --      3.7643                 3.8476                 5.1731
 Frc consts  --      0.0310                 0.0335                 0.1043
 IR Inten    --      7.1172                 9.9576                 0.9596

                      7                      8                      9
                      A                      A                      A
 Frequencies --    218.5918               258.2979               263.1338
 Red. masses --      4.6531                 1.2687                 3.3906
 Frc consts  --      0.1310                 0.0499                 0.1383
 IR Inten    --      3.4455                18.4414                 2.0329

                     10                     11                     12
                      A                      A                      A
 Frequencies --    310.9711               350.1770               359.5109
 Red. masses --      3.6617                 5.4781                13.7003
 Frc consts  --      0.2086                 0.3958                 1.0433
 IR Inten    --     11.5974                 2.3149                19.4897

                     13                     14                     15
                      A                      A                      A
 Frequencies --    395.8087               423.9510               428.6252
 Red. masses --      5.4908                 3.4555                 7.9790
 Frc consts  --      0.5068                 0.3659                 0.8637
 IR Inten    --     12.6266                29.5440                10.5853

                     16                     17                     18
                      A                      A                      A
 Frequencies --    468.3830               512.0445               567.0175
 Red. masses --      7.3997                 3.7813                 3.1872
 Frc consts  --      0.9565                 0.5841                 0.6037
 IR Inten    --    179.9833                 4.5571               157.0986

                     19                     20                     21
                      A                      A                      A
 Frequencies --    601.2583               627.4594               643.8185
 Red. masses --      4.3089                 3.9037                 2.6903
 Frc consts  --      0.9178                 0.9055                 0.6570
 IR Inten    --     54.1593                44.9464                63.0705

                     22                     23                     24
                      A                      A                      A
 Frequencies --    681.3724               694.0891               712.7243
 Red. masses --      3.8933                 3.0663                 1.7753
 Frc consts  --      1.0650                 0.8704                 0.5313
 IR Inten    --      7.1597                 5.6386                50.5289

                     25                     26                     27
                      A                      A                      A
 Frequencies --    720.2684               762.0771               788.4128
 Red. masses --      4.1672                 3.0729                 1.6892
 Frc consts  --      1.2737                 1.0515                 0.6186
 IR Inten    --     13.1759                 2.5552                13.6773

                     28                     29                     30
                      A                      A                      A
 Frequencies --    808.1592               821.5172               851.2164
 Red. masses --      1.2637                 1.3880                 3.5143
 Frc consts  --      0.4863                 0.5519                 1.5003
 IR Inten    --     12.3297                40.8317                 9.9180

                     31                     32                     33
                      A                      A                      A
 Frequencies --    893.9678               914.5341               958.2795
 Red. masses --      1.2762                 1.8800                 1.2795
 Frc consts  --      0.6009                 0.9264                 0.6923
 IR Inten    --     12.5848                70.6504                15.9026

                     34                     35                     36
                      A                      A                      A
 Frequencies --    978.6768              1026.1783              1035.6598
 Red. masses --      6.0757                 2.2379                 3.4609
 Frc consts  --      3.4287                 1.3885                 2.1871
 IR Inten    --     58.8936                87.6539                19.4455

                     37                     38                     39
                      A                      A                      A
 Frequencies --   1085.8469              1123.1936              1137.9323
 Red. masses --      2.3672                 1.5715                 1.5288
 Frc consts  --      1.6445                 1.1681                 1.1663
 IR Inten    --      0.1533                 2.5859               116.2669

                     40                     41                     42
                      A                      A                      A
 Frequencies --   1162.4058              1182.1272              1219.5364
 Red. masses --      1.2702                 3.1814                 3.5483
 Frc consts  --      1.0112                 2.6193                 3.1093
 IR Inten    --     68.1082                76.1029               166.5681

                     43                     44                     45
                      A                      A                      A
 Frequencies --   1230.5268              1244.8940              1280.6327
 Red. masses --      2.1787                 2.6132                 2.0114
 Frc consts  --      1.9437                 2.3861                 1.9436
 IR Inten    --    321.8727               108.0343               497.3328

                     46                     47                     48
                      A                      A                      A
 Frequencies --   1286.6791              1344.6970              1351.7183
 Red. masses --      1.2086                 4.4108                 1.6550
 Frc consts  --      1.1789                 4.6991                 1.7816
 IR Inten    --      7.1168               307.7129               164.3066

                     49                     50                     51
                      A                      A                      A
 Frequencies --   1392.4981              1411.1990              1434.3556
 Red. masses --      1.3339                 1.9662                 2.8631
 Frc consts  --      1.5239                 2.3071                 3.4706
 IR Inten    --    828.6016               223.1777               218.2448

                     52                     53                     54
                      A                      A                      A
 Frequencies --   1456.0043              1473.6344              1481.9529
 Red. masses --      4.5183                 1.1153                 2.3597
 Frc consts  --      5.6436                 1.4270                 3.0533
 IR Inten    --   1436.8707               318.9355              1908.1215

                     55                     56                     57
                      A                      A                      A
 Frequencies --   1489.7726              1505.2868              1516.1794
 Red. masses --      1.0577                 2.8266                 1.1595
 Frc consts  --      1.3831                 3.7735                 1.5705
 IR Inten    --    294.7637               277.8581                23.1836

                     58                     59                     60
                      A                      A                      A
 Frequencies --   1532.0247              1537.2411              1564.4968
 Red. masses --      4.5629                 3.1075                 3.0897
 Frc consts  --      6.3099                 4.3266                 4.4558
 IR Inten    --   2327.2259              1245.0530               428.8605

                     61                     62                     63
                      A                      A                      A
 Frequencies --   1595.4279              2872.5525              2989.0051
 Red. masses --      5.5252                 1.0748                 1.0380
 Frc consts  --      8.2861                 5.2254                 5.4636
 IR Inten    --     92.6676               263.5927                85.3754

                     64                     65                     66
                      A                      A                      A
 Frequencies --   3042.4057              3062.0199              3068.1620
 Red. masses --      1.0962                 1.0907                 1.0974
 Frc consts  --      5.9780                 6.0249                 6.0864
 IR Inten    --     37.5534                59.3765                 2.7786

                     67                     68                     69
                      A                      A                      A
 Frequencies --   3102.2218              3118.1568              3137.3047
 Red. masses --      1.0820                 1.0869                 1.0939
 Frc consts  --      6.1351                 6.2264                 6.3437
 IR Inten    --     46.7390                20.0515               221.4913

                     70                     71                     72
                      A                      A                      A
 Frequencies --   3150.2027              3160.1133              3582.6229
 Red. masses --      1.0866                 1.0909                 1.0738
 Frc consts  --      6.3535                 6.4189                 8.1203
 IR Inten    --     63.6413               111.7116                32.5972

 - Thermochemistry -
 -------------------
 Temperature   298.150 Kelvin.  Pressure   1.00000 Atm.
 Atom     1 has atomic number  6 and mass  12.00000

 Molecular mass:   201.07898 amu.
 Principal axes and moments of inertia in atomic units:
                           1         2         3
     Eigenvalues --  2310.410273635.931445911.50081
           X           -0.50780   0.86113  -0.02428
           Y            0.83303   0.49802   0.24091
           Z           -0.21955  -0.10211   0.97024
 This molecule is an asymmetric top.
 Rotational symmetry number  1.
 Warning -- assumption of classical behavior for rotation
           may cause significant error
 Rotational temperatures (Kelvin)      0.03749     0.02382     0.01465
 Rotational constants (GHZ):           0.78113     0.49636     0.30529
 Zero-point vibrational energy     526515.3 (Joules/Mol)
                                  125.84017 (Kcal/Mol)
 Warning -- explicit consideration of  19 degrees of freedom as
           vibrations may cause significant error
 Vibrational temperatures:     77.58    92.24   118.73   170.08   174.85
          (Kelvin)            266.13   314.50   371.63   378.59   447.42
                              503.83   517.26   569.48   609.97   616.70
                              673.90   736.72   815.81   865.08   902.77
                              926.31   980.34   998.64  1025.45  1036.31
                             1096.46  1134.35  1162.76  1181.98  1224.71
                             1286.22  1315.81  1378.75  1408.10  1476.44
                             1490.08  1562.29  1616.03  1637.23  1672.44
                             1700.82  1754.64  1770.45  1791.12  1842.54
                             1851.24  1934.72  1944.82  2003.49  2030.40
                             2063.72  2094.87  2120.23  2132.20  2143.45
                             2165.77  2181.44  2204.24  2211.75  2250.96
                             2295.46  4132.96  4300.51  4377.34  4405.56
                             4414.40  4463.41  4486.33  4513.88  4532.44
                             4546.70  5154.60

 Zero-point correction=                           0.200539 (Hartree/Particle)
 Thermal correction to Energy=                    0.213664
 Thermal correction to Enthalpy=                  0.214609
 Thermal correction to Gibbs Free Energy=         0.160597
 Sum of electronic and zero-point Energies=           -669.038363
 Sum of electronic and thermal Energies=              -669.025238
 Sum of electronic and thermal Enthalpies=            -669.024294
 Sum of electronic and thermal Free Energies=         -669.078306

                     E (Thermal)             CV                S
                      KCal/Mol        Cal/Mol-Kelvin    Cal/Mol-Kelvin
 Total                  134.076             50.984            113.678
 Electronic               0.000              0.000              0.000
 Translational            0.889              2.981             41.800
 Rotational               0.889              2.981             32.274
 Vibrational            132.299             45.023             39.604
 Vibration     1          0.596              1.976              4.668
 Vibration     2          0.597              1.971              4.327
 Vibration     3          0.600              1.961              3.830
 Vibration     4          0.608              1.934              3.129
 Vibration     5          0.609              1.931              3.076
 Vibration     6          0.631              1.860              2.278
 Vibration     7          0.646              1.813              1.971
 Vibration     8          0.667              1.749              1.673
 Vibration     9          0.670              1.740              1.641
 Vibration    10          0.700              1.653              1.357
 Vibration    11          0.727              1.575              1.165
 Vibration    12          0.734              1.556              1.124
 Vibration    13          0.763              1.479              0.978
 Vibration    14          0.786              1.418              0.879
 Vibration    15          0.790              1.408              0.863
 Vibration    16          0.826              1.320              0.742
 Vibration    17          0.867              1.223              0.629
 Vibration    18          0.923              1.103              0.510
 Vibration    19          0.959              1.029              0.447

 Optimization completed.
    -- Stationary point found.
 Normal termination of Gaussian 16 at Sat Jan  6 04:38:59 2024.
