 Gaussian 16, Revision A.03,
 Gaussian 16:  ES64L-G16RevA.03 25-Dec-2016

 ----------------------------------------------------------------
 #P UB3LYP/6-311++G(d,p) SCRF=(PCM,Solvent=n,n-DiMethylFormamide)
 ----------------------------------------------------------------

 -------
 Reduced
 -------
 Symbolic Z-matrix:
 Charge = -2 Multiplicity = 1

                         Standard orientation:
 ---------------------------------------------------------------------
 Center     Atomic      Atomic             Coordinates (Angstroms)
 Number     Number       Type             X           Y           Z
 ---------------------------------------------------------------------
      1          6           0        0.000315   -0.716293    0.691002
      2          6           0        1.208928   -1.389120    0.277782
      3          6           0        1.232686   -2.609060   -0.429635
      4          6           0       -0.001013   -3.224421   -0.857328
      5          6           0       -1.234061   -2.608193   -0.428985
      6          6           0       -1.209040   -1.388371    0.278658
      7          8           0        0.000870    0.382071    1.337113
      8          8           0       -0.001549   -4.312927   -1.550024
      9         16           0       -2.708468   -0.520371    0.739392
     10          6           0       -2.580823    1.169421    0.056348
     11          6           0       -2.054861    2.210347    0.819698
     12          6           0       -3.077017    1.400872   -1.224788
     13          6           0       -3.048137    2.691331   -1.753093
     14          6           0       -2.039633    3.499720    0.288001
     15          6           0       -2.530886    3.744065   -0.995002
     16          8           0       -2.867114   -0.369082    2.201105
     17          8           0       -3.869296   -1.092086    0.010044
     18          1           0       -1.658878    1.986157    1.799156
     19          1           0       -3.491273    0.572314   -1.785931
     20          1           0       -1.625873    4.315029    0.873668
     21          1           0       -3.430066    2.873696   -2.753210
     22          1           0       -2.502027    4.748805   -1.406986
     23         16           0        2.709333   -0.521852    0.736891
     24          6           0        2.580957    1.168766    0.056074
     25          6           0        2.057733    2.209106    0.822061
     26          6           0        3.074214    1.401458   -1.225936
     27          6           0        3.045234    2.692663   -1.752460
     28          6           0        2.042488    3.499209    0.292180
     29          6           0        2.530882    3.744852   -0.991676
     30          8           0        2.870406   -0.372170    2.198530
     31          8           0        3.868813   -1.092961    0.004894
     32          1           0        1.663922    1.983939    1.802171
     33          1           0        3.486347    0.573274   -1.789196
     34          1           0        3.424861    2.876000   -2.753271
     35          1           0        1.630973    4.314153    0.879940
     36          1           0        2.501930    4.750180   -1.402212
     37          6           0        2.474593   -3.401482   -0.757756
     38          6           0       -2.476607   -3.399755   -0.756795
     39          1           0        3.006177   -2.993701   -1.626306
     40          1           0        2.144793   -4.411107   -1.012290
     41          1           0        3.192572   -3.413860    0.063033
     42          1           0       -2.147433   -4.409290   -1.012478
     43          1           0       -3.008680   -2.990915   -1.624555
     44          1           0       -3.193940   -3.412544    0.064536
 ---------------------------------------------------------------------

 SCF Done:  E(UB3LYP) =  -2020.00066031     A.U. after   20 cycles

 The electronic state is 1-A.
 Alpha  occ. eigenvalues --  -89.03473 -89.03472 -19.10204 -19.10203 -19.09727
 Alpha  occ. eigenvalues --  -19.09725 -19.03742 -19.02039 -10.21085 -10.19916
 Alpha  occ. eigenvalues --  -10.19915 -10.18390 -10.18389 -10.18264 -10.18138
 Alpha  occ. eigenvalues --  -10.18137 -10.17976 -10.17975 -10.17958 -10.17958
 Alpha  occ. eigenvalues --  -10.17805 -10.17805 -10.17321 -10.17319 -10.16330
 Alpha  occ. eigenvalues --  -10.16329 -10.13833 -10.13830  -8.09814  -8.09814
 Alpha  occ. eigenvalues --   -6.06116  -6.06115  -6.05998  -6.05997  -6.05884
 Alpha  occ. eigenvalues --   -6.05883  -1.09025  -1.08993  -0.98519  -0.98469
 Alpha  occ. eigenvalues --   -0.96796  -0.94234  -0.86560  -0.86554  -0.81456
 Alpha  occ. eigenvalues --   -0.78006  -0.76677  -0.76111  -0.75364  -0.75305
 Alpha  occ. eigenvalues --   -0.71556  -0.70858  -0.67259  -0.63497  -0.63304
 Alpha  occ. eigenvalues --   -0.61303  -0.61263  -0.59630  -0.58751  -0.55072
 Alpha  occ. eigenvalues --   -0.54856  -0.52438  -0.52123  -0.48631  -0.48269
 Alpha  occ. eigenvalues --   -0.47174  -0.47013  -0.46454  -0.46412  -0.44821
 Alpha  occ. eigenvalues --   -0.44733  -0.44502  -0.43794  -0.43302  -0.43099
 Alpha  occ. eigenvalues --   -0.42659  -0.41375  -0.40736  -0.39044  -0.38873
 Alpha  occ. eigenvalues --   -0.38348  -0.37758  -0.37592  -0.37110  -0.36883
 Alpha  occ. eigenvalues --   -0.36526  -0.36020  -0.35009  -0.35006  -0.34052
 Alpha  occ. eigenvalues --   -0.33828  -0.32580  -0.32361  -0.31959  -0.31113
 Alpha  occ. eigenvalues --   -0.30942  -0.29428  -0.29069  -0.28532  -0.28013
 Alpha  occ. eigenvalues --   -0.26585  -0.26375  -0.26147  -0.25953  -0.24178
 Alpha  occ. eigenvalues --   -0.23214  -0.21533  -0.20183  -0.13691
 Alpha virt. eigenvalues --   -0.03886  -0.03424  -0.01863  -0.01294  -0.00647
 Alpha virt. eigenvalues --   -0.00478   0.00451   0.00746   0.01351   0.01967
 Alpha virt. eigenvalues --    0.02073   0.02876   0.03077   0.03468   0.03800

  Beta  occ. eigenvalues --  -89.03473 -89.03472 -19.10204 -19.10203 -19.09727
  Beta  occ. eigenvalues --  -19.09725 -19.03742 -19.02039 -10.21085 -10.19916
  Beta  occ. eigenvalues --  -10.19915 -10.18390 -10.18389 -10.18264 -10.18138
  Beta  occ. eigenvalues --  -10.18137 -10.17976 -10.17975 -10.17958 -10.17958
  Beta  occ. eigenvalues --  -10.17805 -10.17805 -10.17321 -10.17319 -10.16330
  Beta  occ. eigenvalues --  -10.16329 -10.13833 -10.13830  -8.09814  -8.09814
  Beta  occ. eigenvalues --   -6.06116  -6.06115  -6.05998  -6.05997  -6.05884
  Beta  occ. eigenvalues --   -6.05883  -1.09025  -1.08993  -0.98519  -0.98469
  Beta  occ. eigenvalues --   -0.96796  -0.94234  -0.86560  -0.86554  -0.81456
  Beta  occ. eigenvalues --   -0.78006  -0.76677  -0.76111  -0.75364  -0.75305
  Beta  occ. eigenvalues --   -0.71556  -0.70858  -0.67259  -0.63497  -0.63304
  Beta  occ. eigenvalues --   -0.61303  -0.61263  -0.59630  -0.58751  -0.55072
  Beta  occ. eigenvalues --   -0.54856  -0.52438  -0.52123  -0.48631  -0.48269
  Beta  occ. eigenvalues --   -0.47174  -0.47013  -0.46454  -0.46412  -0.44821
  Beta  occ. eigenvalues --   -0.44733  -0.44502  -0.43794  -0.43302  -0.43099
  Beta  occ. eigenvalues --   -0.42659  -0.41375  -0.40736  -0.39044  -0.38873
  Beta  occ. eigenvalues --   -0.38348  -0.37758  -0.37592  -0.37110  -0.36883
  Beta  occ. eigenvalues --   -0.36526  -0.36020  -0.35009  -0.35006  -0.34052
  Beta  occ. eigenvalues --   -0.33828  -0.32580  -0.32361  -0.31959  -0.31113
  Beta  occ. eigenvalues --   -0.30942  -0.29428  -0.29069  -0.28532  -0.28013
  Beta  occ. eigenvalues --   -0.26585  -0.26375  -0.26147  -0.25953  -0.24178
  Beta  occ. eigenvalues --   -0.23214  -0.21533  -0.20183  -0.13691
  Beta virt. eigenvalues --   -0.03886  -0.03424  -0.01863  -0.01294  -0.00647
  Beta virt. eigenvalues --   -0.00478   0.00451   0.00746   0.01351   0.01967
  Beta virt. eigenvalues --    0.02073   0.02876   0.03077   0.03468   0.03800

 Mulliken charges and spin densities:
               1          2
     1  C   -0.402262  -0.000000
     2  C    0.129117   0.000000
     3  C    0.665799   0.000000
     4  C   -1.522771  -0.000000
     5  C    0.665236   0.000000
     6  C    0.130126   0.000000
     7  O   -0.401268  -0.000000
     8  O   -0.628211   0.000000
     9  S    0.210904   0.000000
    10  C   -0.230249   0.000000
    11  C   -0.044325  -0.000000
    12  C    0.337446  -0.000000
    13  C   -0.538789  -0.000000
    14  C   -0.274901  -0.000000
    15  C   -0.457000   0.000000
    16  O   -0.220296   0.000000
    17  O   -0.229230   0.000000
    18  H    0.262550   0.000000
    19  H    0.243638  -0.000000
    20  H    0.212202   0.000000
    21  H    0.205042  -0.000000
    22  H    0.186883   0.000000
    23  S    0.211204  -0.000000
    24  C   -0.232638   0.000000
    25  C   -0.046134   0.000000
    26  C    0.339815  -0.000000
    27  C   -0.539177  -0.000000
    28  C   -0.274753  -0.000000
    29  C   -0.456111   0.000000
    30  O   -0.219884   0.000000
    31  O   -0.229381   0.000000
    32  H    0.262413   0.000000
    33  H    0.243742  -0.000000
    34  H    0.205039   0.000000
    35  H    0.212435  -0.000000
    36  H    0.186820  -0.000000
    37  C   -0.478290   0.000000
    38  C   -0.478209   0.000000
    39  H    0.170386   0.000000
    40  H    0.163290   0.000000
    41  H    0.163103  -0.000000
    42  H    0.163382   0.000000
    43  H    0.170279   0.000000
    44  H    0.163031   0.000000
 Sum of Mulliken charges =  -2.00000  -0.00000

 Dipole moment (field-independent basis, Debye):
    X=             -0.0009    Y=             19.9915    Z=             -6.0229  Tot=             20.8791
 Quadrupole moment (field-independent basis, Debye-Ang):
   XX=           -259.2651   YY=           -236.3932   ZZ=           -210.3096
   XY=              0.0079   XZ=              0.0376   YZ=            -23.1248

 Normal termination of Gaussian 16 at Wed Jan 24 23:14:38 2024.
