 Q-Chem 5.4, Q-Chem, Inc., Pleasanton, CA (2021)
 Q-Chem 5.4.0 for Intel X86 EM64T Linux

User input:
--------------------------------------------------------------
$molecule
-2 1
C                  3.7655890000      0.1397920000     -0.1979730000
C                  2.7365840000      0.1270690000      0.9551200000
C                  1.2999130000      0.2456950000      0.5257610000
C                  0.5854660000     -0.9838800000      0.3145800000
O                  1.1674670000     -2.1090780000      0.4509010000
C                 -0.8407040000     -0.8578050000     -0.0522990000
C                 -1.6701680000     -1.9936090000     -0.2865370000
O                 -1.2106960000     -3.3045770000     -0.1939850000
C                 -3.0020940000     -1.8211360000     -0.6301310000
O                 -3.8011370000     -2.9600490000     -0.8597870000
C                 -3.5541840000     -0.5522310000     -0.7646670000
O                 -4.8899410000     -0.3917920000     -1.1261140000
C                 -2.8159590000      0.6089860000     -0.5601050000
C                 -1.4333940000      0.4566540000     -0.1876450000
C                 -0.6544290000      1.6346820000      0.0386210000
C                  0.6721250000      1.5063820000      0.3881790000
O                  1.3998840000      2.6867680000      0.6010320000
O                 -1.2189220000      2.8888800000     -0.1030980000
O                 -3.4520070000      1.7634420000     -0.7243870000
H                  3.5580760000     -0.6919820000     -0.8761300000
H                  3.7111040000      1.0685190000     -0.7774700000
H                  4.7967770000      0.0343980000      0.1793090000
H                  2.8318790000     -0.8326810000      1.4750710000
H                  3.0195410000      0.9097720000      1.6864880000
H                 -1.9597260000     -3.8484400000     -0.4658530000
H                  2.2740280000      2.4136140000      0.8935480000
H                 -2.1653860000      2.7078180000     -0.3648070000
H                 -4.6513210000     -2.6177010000     -1.1589580000
H                 -4.9341960000      0.5933460000     -1.1377900000
$end

$rem
BASIS  =  6-311++G(d,p)
GUI  =  2
JOB_TYPE  =  SP
METHOD  =  B3LYP
SCF_CONVERGENCE  = 8
SOLVENT_METHOD = sm12
$end

$smx
solvent dimethylformamide
charges CM5
$end

--------------------------------------------------------------

             Standard Nuclear Orientation (Angstroms)
    I     Atom           X                Y                Z
 ----------------------------------------------------------------
    1      C       3.7655890000     0.1397920000    -0.1979730000
    2      C       2.7365840000     0.1270690000     0.9551200000
    3      C       1.2999130000     0.2456950000     0.5257610000
    4      C       0.5854660000    -0.9838800000     0.3145800000
    5      O       1.1674670000    -2.1090780000     0.4509010000
    6      C      -0.8407040000    -0.8578050000    -0.0522990000
    7      C      -1.6701680000    -1.9936090000    -0.2865370000
    8      O      -1.2106960000    -3.3045770000    -0.1939850000
    9      C      -3.0020940000    -1.8211360000    -0.6301310000
   10      O      -3.8011370000    -2.9600490000    -0.8597870000
   11      C      -3.5541840000    -0.5522310000    -0.7646670000
   12      O      -4.8899410000    -0.3917920000    -1.1261140000
   13      C      -2.8159590000     0.6089860000    -0.5601050000
   14      C      -1.4333940000     0.4566540000    -0.1876450000
   15      C      -0.6544290000     1.6346820000     0.0386210000
   16      C       0.6721250000     1.5063820000     0.3881790000
   17      O       1.3998840000     2.6867680000     0.6010320000
   18      O      -1.2189220000     2.8888800000    -0.1030980000
   19      O      -3.4520070000     1.7634420000    -0.7243870000
   20      H       3.5580760000    -0.6919820000    -0.8761300000
   21      H       3.7111040000     1.0685190000    -0.7774700000
   22      H       4.7967770000     0.0343980000     0.1793090000
   23      H       2.8318790000    -0.8326810000     1.4750710000
   24      H       3.0195410000     0.9097720000     1.6864880000
   25      H      -1.9597260000    -3.8484400000    -0.4658530000
   26      H       2.2740280000     2.4136140000     0.8935480000
   27      H      -2.1653860000     2.7078180000    -0.3648070000
   28      H      -4.6513210000    -2.6177010000    -1.1589580000
   29      H      -4.9341960000     0.5933460000    -1.1377900000
 ----------------------------------------------------------------

   18    -990.1482003278      6.33e-09  Convergence criterion met
 Total energy in the final basis set =     -990.4214514570

                    Orbital Energies (a.u.)
 --------------------------------------------------------------

 Alpha MOs
 -- Occupied --
-19.1491 -19.1312 -19.1308 -19.1227 -19.0901 -19.0449 -19.0132 -10.2020
-10.1995 -10.1917 -10.1882 -10.1849 -10.1836 -10.1774 -10.1671 -10.1645
-10.1490 -10.1459 -10.1270  -1.0589  -1.0350  -1.0341  -1.0199  -0.9992
 -0.9396  -0.9375  -0.8156  -0.7849  -0.7557  -0.6999  -0.6964  -0.6639
 -0.6231  -0.6025  -0.5802  -0.5540  -0.5438  -0.5173  -0.5141  -0.4795
 -0.4777  -0.4578  -0.4391  -0.4299  -0.4233  -0.4183  -0.4079  -0.3989
 -0.3933  -0.3765  -0.3728  -0.3668  -0.3642  -0.3571  -0.3553  -0.3513
 -0.3482  -0.3355  -0.3317  -0.3240  -0.3188  -0.3158  -0.3029  -0.2561
 -0.2289  -0.2226  -0.1914  -0.1868  -0.1686  -0.1138

          Ground-State Mulliken Net Atomic Charges

     Atom                 Charge (a.u.)
  ----------------------------------------
      1 C                     0.229449
      2 C                     1.738210
      3 C                     0.630250
      4 C                    -1.816467
      5 O                    -0.353344
      6 C                    -1.236209
      7 C                    -0.393624
      8 O                    -0.163587
      9 C                     1.358705
     10 O                    -0.179791
     11 C                     1.418119
     12 O                    -0.185349
     13 C                    -0.975266
     14 C                    -1.444263
     15 C                    -1.481405
     16 C                    -0.712744
     17 O                    -0.075278
     18 O                    -0.358847
     19 O                    -0.516516
     20 H                     0.106892
     21 H                     0.114208
     22 H                     0.274844
     23 H                     0.054247
     24 H                     0.190696
     25 H                     0.343895
     26 H                     0.341658
     27 H                     0.377759
     28 H                     0.381600
     29 H                     0.332162
  ----------------------------------------
  Sum of atomic charges =    -2.000000

                    Cartesian Multipole Moments
 -----------------------------------------------------------------
    Charge (ESU x 10^10)
                -9.6064
    Dipole Moment (Debye)
         X       7.4787      Y      -0.1247      Z       0.3615
       Tot       7.4885
    Quadrupole Moments (Debye-Ang)
        XX    -169.6761     XY      14.4682     YY    -171.2012
        XZ      -8.5335     YZ       4.3859     ZZ    -123.4854

 Total job time:  797.60s(wall), 6260.09s(cpu)
        *  Thank you very much for using Q-Chem.  Have a nice day.  *
