 Q-Chem 5.4, Q-Chem, Inc., Pleasanton, CA (2021)
 Q-Chem 5.4.0 for Intel X86 EM64T Linux

User input:
--------------------------------------------------------------
$molecule
-1 2
C                 -0.8683380000     -1.8018550000      3.5669150000
C                  0.2241100000     -2.4627700000      2.8805740000
C                  0.3236380000     -2.3495980000      1.5095010000
C                 -0.6098090000     -1.6042570000      0.6889970000
C                 -1.7034720000     -0.9689110000      1.3791910000
C                 -1.8444950000     -1.0579600000      2.7445920000
O                 -1.0334870000     -1.8155440000      4.8320470000
O                 -0.4670360000     -1.5272380000     -0.5661660000
N                 -2.8724470000     -0.5229130000      3.5144980000
C                 -3.6724930000      0.6737650000      3.2334370000
C                 -4.3784190000      1.0339150000      4.5532110000
C                 -4.7551250000      0.3752790000      2.1738240000
C                 -2.8025360000      1.8707290000      2.7887960000
H                 -2.4084480000     -0.4329080000      0.7564700000
H                 -2.6304700000     -0.6660670000      4.4932680000
H                 -3.6466110000      1.2675920000      5.3328570000
H                 -4.9916730000      0.1968220000      4.8997590000
H                 -5.0253370000      1.9057540000      4.4198670000
H                 -5.3684210000     -0.4695340000      2.4983550000
H                 -4.3190320000      0.1194660000      1.2082440000
H                 -5.4040880000      1.2467900000      2.0324670000
H                 -2.0821600000      2.1233470000      3.5722120000
H                 -3.4248640000      2.7509050000      2.5926990000
H                 -2.2409090000      1.6367860000      1.8834150000
C                  1.2479720000     -3.2615610000      3.7107220000
C                  0.5287180000     -4.3935370000      4.4836770000
C                  2.3349380000     -3.9117040000      2.8335120000
C                  1.9556880000     -2.3224720000      4.7176680000
H                  1.1270650000     -2.8234110000      0.9588810000
H                 -0.2371700000     -3.9794440000      5.1390510000
H                  1.2492780000     -4.9598240000      5.0878920000
H                  0.0524060000     -5.0889390000      3.7846120000
H                  1.9085040000     -4.6131630000      2.1105990000
H                  3.0307680000     -4.4681490000      3.4713830000
H                  2.9120990000     -3.1654740000      2.2799410000
H                  1.2259620000     -1.8560640000      5.3791640000
H                  2.5002050000     -1.5351350000      4.1858360000
H                  2.6783180000     -2.8863380000      5.3217830000
$end

$rem
BASIS  =  6-311++G(d,p)
GUI  =  2
JOB_TYPE  =  SP
METHOD  =  B3LYP
SCF_CONVERGENCE  = 8
SOLVENT_METHOD = sm12
$end

$smx
solvent dimethylformamide
charges CM5
$end

--------------------------------------------------------------

             Standard Nuclear Orientation (Angstroms)
    I     Atom           X                Y                Z
 ----------------------------------------------------------------
    1      C      -0.8683380000    -1.8018550000     3.5669150000
    2      C       0.2241100000    -2.4627700000     2.8805740000
    3      C       0.3236380000    -2.3495980000     1.5095010000
    4      C      -0.6098090000    -1.6042570000     0.6889970000
    5      C      -1.7034720000    -0.9689110000     1.3791910000
    6      C      -1.8444950000    -1.0579600000     2.7445920000
    7      O      -1.0334870000    -1.8155440000     4.8320470000
    8      O      -0.4670360000    -1.5272380000    -0.5661660000
    9      N      -2.8724470000    -0.5229130000     3.5144980000
   10      C      -3.6724930000     0.6737650000     3.2334370000
   11      C      -4.3784190000     1.0339150000     4.5532110000
   12      C      -4.7551250000     0.3752790000     2.1738240000
   13      C      -2.8025360000     1.8707290000     2.7887960000
   14      H      -2.4084480000    -0.4329080000     0.7564700000
   15      H      -2.6304700000    -0.6660670000     4.4932680000
   16      H      -3.6466110000     1.2675920000     5.3328570000
   17      H      -4.9916730000     0.1968220000     4.8997590000
   18      H      -5.0253370000     1.9057540000     4.4198670000
   19      H      -5.3684210000    -0.4695340000     2.4983550000
   20      H      -4.3190320000     0.1194660000     1.2082440000
   21      H      -5.4040880000     1.2467900000     2.0324670000
   22      H      -2.0821600000     2.1233470000     3.5722120000
   23      H      -3.4248640000     2.7509050000     2.5926990000
   24      H      -2.2409090000     1.6367860000     1.8834150000
   25      C       1.2479720000    -3.2615610000     3.7107220000
   26      C       0.5287180000    -4.3935370000     4.4836770000
   27      C       2.3349380000    -3.9117040000     2.8335120000
   28      C       1.9556880000    -2.3224720000     4.7176680000
   29      H       1.1270650000    -2.8234110000     0.9588810000
   30      H      -0.2371700000    -3.9794440000     5.1390510000
   31      H       1.2492780000    -4.9598240000     5.0878920000
   32      H       0.0524060000    -5.0889390000     3.7846120000
   33      H       1.9085040000    -4.6131630000     2.1105990000
   34      H       3.0307680000    -4.4681490000     3.4713830000
   35      H       2.9120990000    -3.1654740000     2.2799410000
   36      H       1.2259620000    -1.8560640000     5.3791640000
   37      H       2.5002050000    -1.5351350000     4.1858360000
   38      H       2.6783180000    -2.8863380000     5.3217830000
 ----------------------------------------------------------------

   17    -751.6038810985      9.96e-09  Convergence criterion met
 Total energy in the final basis set =     -751.6875039788

                    Orbital Energies (a.u.)
 --------------------------------------------------------------

 Alpha MOs
 -- Occupied --
-19.0758 -19.0642 -14.3127 -10.2225 -10.2171 -10.2133 -10.2059 -10.1911
-10.1717 -10.1641 -10.1630 -10.1623 -10.1615 -10.1571 -10.1570 -10.1565
-10.1485  -1.0005  -0.9844  -0.9260  -0.8350  -0.8110  -0.7812  -0.7253
 -0.6946  -0.6934  -0.6903  -0.6860  -0.6703  -0.6166  -0.5821  -0.5596
 -0.5277  -0.4988  -0.4836  -0.4659  -0.4636  -0.4536  -0.4497  -0.4408
 -0.4320  -0.4261  -0.4192  -0.4009  -0.4003  -0.3941  -0.3871  -0.3838
 -0.3761  -0.3732  -0.3708  -0.3705  -0.3649  -0.3618  -0.3488  -0.3364
 -0.3350  -0.3346  -0.3270  -0.3022  -0.2669  -0.2414  -0.2282  -0.2125
 -0.1525

 Beta MOs
 -- Occupied --
-19.0688 -19.0581 -14.3120 -10.2225 -10.2146 -10.2125 -10.2050 -10.1911
-10.1710 -10.1641 -10.1630 -10.1623 -10.1615 -10.1571 -10.1570 -10.1541
-10.1485  -0.9889  -0.9737  -0.9235  -0.8323  -0.8093  -0.7784  -0.7235
 -0.6944  -0.6932  -0.6891  -0.6859  -0.6611  -0.6141  -0.5792  -0.5578
 -0.5264  -0.4966  -0.4824  -0.4642  -0.4608  -0.4528  -0.4485  -0.4401
 -0.4314  -0.4254  -0.4107  -0.3988  -0.3967  -0.3907  -0.3862  -0.3776
 -0.3747  -0.3726  -0.3677  -0.3672  -0.3633  -0.3508  -0.3385  -0.3352
 -0.3341  -0.3317  -0.3262  -0.2900  -0.2403  -0.2353  -0.2224  -0.2042

          Ground-State Mulliken Net Atomic Charges

     Atom                 Charge (a.u.)    Spin (a.u.)
  --------------------------------------------------------
      1 C                    -1.245038       0.182438
      2 C                     0.492789       0.003161
      3 C                    -0.762779       0.189075
      4 C                    -1.846770       0.048732
      5 C                    -0.301075      -0.004224
      6 C                    -0.335410       0.083508
      7 O                    -0.247362       0.262539
      8 O                    -0.416638       0.217557
      9 N                     0.095958       0.037219
     10 C                    -0.322004       0.003272
     11 C                     0.419643       0.000274
     12 C                    -0.159448      -0.005290
     13 C                    -0.348703       0.003623
     14 H                     0.002300      -0.003557
     15 H                     0.274535      -0.002274
     16 H                     0.187357       0.000047
     17 H                     0.201571       0.000280
     18 H                     0.270258      -0.000045
     19 H                     0.091143       0.000697
     20 H                     0.102875       0.000213
     21 H                     0.306502       0.000161
     22 H                     0.090496       0.000368
     23 H                     0.305583       0.000368
     24 H                     0.052764      -0.001286
     25 C                     0.980151      -0.021317
     26 C                    -0.437328       0.008298
     27 C                     0.359751       0.001987
     28 C                    -0.423531       0.009153
     29 H                     0.082527      -0.013302
     30 H                     0.105361      -0.001609
     31 H                     0.260503       0.000338
     32 H                     0.096585       0.000803
     33 H                     0.117928      -0.000695
     34 H                     0.353471       0.000286
     35 H                     0.124059      -0.000619
     36 H                     0.118366      -0.001558
     37 H                     0.094203       0.000993
     38 H                     0.259407       0.000385
  --------------------------------------------------------
  Sum of atomic charges =    -1.000000

                    Cartesian Multipole Moments
 -----------------------------------------------------------------
    Charge (ESU x 10^10)
                -4.8032
    Dipole Moment (Debye)
         X       2.4633      Y       9.3062      Z      -8.2659
       Tot      12.6885
    Quadrupole Moments (Debye-Ang)
        XX    -114.7981     XY      -6.9543     YY    -129.6190
        XZ       4.3363     YZ      21.4254     ZZ    -159.6601

 Total job time:  1404.41s(wall), 10918.50s(cpu)
        *  Thank you very much for using Q-Chem.  Have a nice day.  *
