 Gaussian 16, Revision A.03,
 Gaussian 16:  ES64L-G16RevA.03 25-Dec-2016

 ----------------------------------------------------------------------
 #P UB3LYP/6-311++G(d,p) nosym opt freq SCRF=(PCM,Solvent=n,n-DiMethylF
 ormamide)
 ----------------------------------------------------------------------

 --------
 Oxidized
 --------
 Symbolic Z-matrix:
 Charge =  0 Multiplicity = 1

 SCF Done:  E(UB3LYP) =  -967.845141453     A.U. after   15 cycles
 SCF Done:  E(UB3LYP) =  -967.845227771     A.U. after   12 cycles
 SCF Done:  E(UB3LYP) =  -967.845222284     A.U. after   11 cycles
 SCF Done:  E(UB3LYP) =  -967.845195284     A.U. after   12 cycles
 SCF Done:  E(UB3LYP) =  -967.845240574     A.U. after   12 cycles
 SCF Done:  E(UB3LYP) =  -967.845243165     A.U. after   10 cycles
 SCF Done:  E(UB3LYP) =  -967.845243136     A.U. after    9 cycles
 SCF Done:  E(UB3LYP) =  -967.845243786     A.U. after    9 cycles
 SCF Done:  E(UB3LYP) =  -967.845244538     A.U. after    9 cycles
 SCF Done:  E(UB3LYP) =  -967.845245232     A.U. after   10 cycles
 SCF Done:  E(UB3LYP) =  -967.845245567     A.U. after    9 cycles
 SCF Done:  E(UB3LYP) =  -967.845245845     A.U. after   10 cycles
 SCF Done:  E(UB3LYP) =  -967.845245857     A.U. after    8 cycles
 Optimization completed.
    -- Stationary point found.
 Normal termination of Gaussian 16 at Sun Feb 11 03:23:28 2024.

 ----------------------------------------------------------------------
 #P Geom=AllCheck Guess=TCheck SCRF=Check GenChk UB3LYP/6-311++G(d,p) F
 req
 ----------------------------------------------------------------------

 Structure from the checkpoint file:  "249.chk"
 --------
 Oxidized
 --------
 Charge =  0 Multiplicity = 1

                          Input orientation:
 ---------------------------------------------------------------------
 Center     Atomic      Atomic             Coordinates (Angstroms)
 Number     Number       Type             X           Y           Z
 ---------------------------------------------------------------------
      1          6           0        5.763879   -5.729018    0.462274
      2          6           0        5.923987   -5.872690   -0.913119
      3          6           0        5.272820   -5.000792   -1.788888
      4          6           0        4.950760   -4.712327    0.968901
      5          6           0        4.297251   -3.836794    0.090084
      6          6           0        4.462049   -3.985347   -1.289224
      7          6           0        4.776013   -4.557431    2.437519
      8          6           0        3.890823   -3.470473    2.953747
      9          6           0        3.272711   -2.608088    2.106337
     10          6           0        3.432993   -2.749595    0.625144
     11          8           0        5.347200   -5.307148    3.221545
     12          8           0        2.858720   -1.979245   -0.135788
     13          1           0        6.554709   -6.662485   -1.303929
     14          6           0        2.366128   -1.490556    2.556317
     15          1           0        5.398437   -5.113968   -2.859285
     16          6           0        3.765107   -3.427333    4.450075
     17          6           0        0.892485   -1.932050    2.690004
     18          6           0       -0.030681   -0.781701    3.105090
     19          6           0       -1.497640   -1.203211    3.247066
     20          1           0        6.262422   -6.397570    1.152618
     21          1           0        3.952256   -3.302381   -1.956829
     22          1           0        2.423569   -0.683288    1.823741
     23          1           0        2.712625   -1.086645    3.509524
     24          1           0        3.407162   -4.390185    4.824294
     25          1           0        3.085283   -2.650458    4.789743
     26          1           0        4.744520   -3.263491    4.908754
     27          1           0        0.822196   -2.742805    3.424137
     28          1           0        0.554079   -2.346980    1.734298
     29          1           0        0.044972    0.026265    2.366432
     30          1           0        0.319820   -0.362117    4.056758
     31          1           0       -1.571084   -2.013384    3.983992
     32          1           0       -1.846561   -1.622821    2.294730
     33          6           0       -2.425918   -0.056499    3.663672
     34          6           0       -3.893454   -0.476123    3.805619
     35          6           0       -4.822850    0.669799    4.221786
     36          6           0       -6.290184    0.250328    4.364469
     37          6           0       -7.220800    1.395371    4.780338
     38          6           0       -8.684413    0.966005    4.920484
     39          1           0       -2.351584    0.753889    2.926923
     40          1           0       -2.076431    0.363075    4.615986
     41          1           0       -3.967452   -1.286635    4.542366
     42          1           0       -4.242463   -0.896216    2.853318
     43          1           0       -4.749200    1.480117    3.484745
     44          1           0       -4.473517    1.090291    5.173855
     45          1           0       -6.364942   -0.559774    5.101859
     46          1           0       -6.640582   -0.170269    3.412680
     47          1           0       -7.147223    2.204722    4.043603
     48          1           0       -6.871521    1.815798    5.731381
     49          1           0       -9.072446    0.572735    3.975263
     50          1           0       -9.320594    1.804662    5.217734
     51          1           0       -8.794625    0.180865    5.675529
 ---------------------------------------------------------------------

 SCF Done:  E(UB3LYP) =  -967.845245857     A.U. after    1 cycles

 Alpha  occ. eigenvalues --  -19.13334 -19.13300 -10.28196 -10.28120 -10.21439
 Alpha  occ. eigenvalues --  -10.21179 -10.20737 -10.20684 -10.19863 -10.19833
 Alpha  occ. eigenvalues --  -10.19797 -10.19774 -10.17706 -10.17484 -10.17065
 Alpha  occ. eigenvalues --  -10.16359 -10.16166 -10.16126 -10.16010 -10.15962
 Alpha  occ. eigenvalues --  -10.15940 -10.15919 -10.15533  -1.06562  -1.06365
 Alpha  occ. eigenvalues --   -0.89055  -0.85375  -0.81393  -0.80129  -0.78812
 Alpha  occ. eigenvalues --   -0.77811  -0.77374  -0.74854  -0.72341  -0.69761
 Alpha  occ. eigenvalues --   -0.68011  -0.65959  -0.63343  -0.61960  -0.60041
 Alpha  occ. eigenvalues --   -0.58488  -0.58190  -0.57478  -0.57250  -0.55145
 Alpha  occ. eigenvalues --   -0.52019  -0.50078  -0.48726  -0.47901  -0.47050
 Alpha  occ. eigenvalues --   -0.46156  -0.45983  -0.45775  -0.45195  -0.44630
 Alpha  occ. eigenvalues --   -0.43626  -0.43021  -0.42745  -0.42263  -0.42085
 Alpha  occ. eigenvalues --   -0.41112  -0.40822  -0.39950  -0.39687  -0.39254
 Alpha  occ. eigenvalues --   -0.38946  -0.37740  -0.37641  -0.36937  -0.36593
 Alpha  occ. eigenvalues --   -0.35952  -0.34712  -0.34435  -0.33990  -0.33034
 Alpha  occ. eigenvalues --   -0.32801  -0.32339  -0.32180  -0.32012  -0.30442
 Alpha  occ. eigenvalues --   -0.29028  -0.28859  -0.27890  -0.27296  -0.27094
 Alpha virt. eigenvalues --   -0.12381  -0.05711  -0.03001  -0.00836  -0.00368
 Alpha virt. eigenvalues --    0.00118   0.00520   0.00641   0.01047   0.01383
 Alpha virt. eigenvalues --    0.01733   0.02095   0.02268   0.02424   0.03182

  Beta  occ. eigenvalues --  -19.13334 -19.13300 -10.28196 -10.28120 -10.21439
  Beta  occ. eigenvalues --  -10.21179 -10.20737 -10.20684 -10.19863 -10.19833
  Beta  occ. eigenvalues --  -10.19797 -10.19774 -10.17706 -10.17484 -10.17065
  Beta  occ. eigenvalues --  -10.16359 -10.16166 -10.16126 -10.16010 -10.15962
  Beta  occ. eigenvalues --  -10.15940 -10.15919 -10.15533  -1.06562  -1.06365
  Beta  occ. eigenvalues --   -0.89055  -0.85375  -0.81393  -0.80129  -0.78812
  Beta  occ. eigenvalues --   -0.77811  -0.77374  -0.74854  -0.72341  -0.69761
  Beta  occ. eigenvalues --   -0.68011  -0.65959  -0.63343  -0.61960  -0.60041
  Beta  occ. eigenvalues --   -0.58488  -0.58190  -0.57478  -0.57250  -0.55145
  Beta  occ. eigenvalues --   -0.52019  -0.50078  -0.48726  -0.47901  -0.47050
  Beta  occ. eigenvalues --   -0.46156  -0.45983  -0.45775  -0.45195  -0.44630
  Beta  occ. eigenvalues --   -0.43626  -0.43021  -0.42745  -0.42263  -0.42085
  Beta  occ. eigenvalues --   -0.41112  -0.40822  -0.39950  -0.39687  -0.39254
  Beta  occ. eigenvalues --   -0.38946  -0.37740  -0.37641  -0.36937  -0.36593
  Beta  occ. eigenvalues --   -0.35952  -0.34712  -0.34435  -0.33990  -0.33034
  Beta  occ. eigenvalues --   -0.32801  -0.32339  -0.32180  -0.32012  -0.30442
  Beta  occ. eigenvalues --   -0.29028  -0.28859  -0.27890  -0.27296  -0.27094
  Beta virt. eigenvalues --   -0.12381  -0.05711  -0.03001  -0.00836  -0.00368
  Beta virt. eigenvalues --    0.00118   0.00520   0.00641   0.01047   0.01383
  Beta virt. eigenvalues --    0.01733   0.02095   0.02268   0.02424   0.03182

 Mulliken charges and spin densities:
               1          2
     1  C    0.216229  -0.000000
     2  C   -0.461813   0.000000
     3  C   -0.387983   0.000000
     4  C    0.029134  -0.000000
     5  C   -0.117795  -0.000000
     6  C    0.182021   0.000000
     7  C   -0.343865   0.000000
     8  C    0.853834  -0.000000
     9  C    1.077145  -0.000000
    10  C   -0.942703   0.000000
    11  O   -0.281261   0.000000
    12  O   -0.264294   0.000000
    13  H    0.203749   0.000000
    14  C   -0.601984   0.000000
    15  H    0.203762   0.000000
    16  C   -0.456455   0.000000
    17  C   -0.932788  -0.000000
    18  C   -0.272391   0.000000
    19  C   -0.015687   0.000000
    20  H    0.191507  -0.000000
    21  H    0.189598  -0.000000
    22  H    0.227767  -0.000000
    23  H    0.215310  -0.000000
    24  H    0.192596   0.000000
    25  H    0.140960   0.000000
    26  H    0.200514   0.000000
    27  H    0.145995  -0.000000
    28  H    0.191874   0.000000
    29  H    0.121263   0.000000
    30  H    0.131283   0.000000
    31  H    0.131108   0.000000
    32  H    0.128376   0.000000
    33  C    0.066420   0.000000
    34  C   -0.012397  -0.000000
    35  C   -0.238250  -0.000000
    36  C   -0.452157   0.000000
    37  C   -0.279233  -0.000000
    38  C   -0.691054   0.000000
    39  H    0.131999  -0.000000
    40  H    0.130253  -0.000000
    41  H    0.130358  -0.000000
    42  H    0.129890  -0.000000
    43  H    0.126563  -0.000000
    44  H    0.126558  -0.000000
    45  H    0.123164   0.000000
    46  H    0.123613  -0.000000
    47  H    0.130988   0.000000
    48  H    0.130939   0.000000
    49  H    0.139908  -0.000000
    50  H    0.147530  -0.000000
    51  H    0.139900  -0.000000
 Sum of Mulliken charges =  -0.00000   0.00000

 Dipole moment (field-independent basis, Debye):
    X=             -0.0764    Y=             -0.2266    Z=             -0.4218  Tot=              0.4848
 Quadrupole moment (field-independent basis, Debye-Ang):
   XX=           -144.6826   YY=           -143.0085   ZZ=           -135.4128
   XY=             -1.9213   XZ=            -13.5733   YZ=             15.5532

  Exact polarizability: 331.628 -83.686 338.215  -6.173  -4.487 380.766
 Approx polarizability: 345.314 -91.622 390.600  21.716 -34.657 438.991

                      1                      2                      3
                      A                      A                      A
 Frequencies --     12.4691                19.6028                26.0568
 Red. masses --      4.6527                 5.1008                 1.6150
 Frc consts  --      0.0004                 0.0012                 0.0006
 IR Inten    --      0.0668                 0.4720                 0.3072

                      4                      5                      6
                      A                      A                      A
 Frequencies --     32.8771                41.1809                55.7797
 Red. masses --      4.0488                 5.2417                 2.9963
 Frc consts  --      0.0026                 0.0052                 0.0055
 IR Inten    --      1.1735                 4.5437                 4.4469

                      7                      8                      9
                      A                      A                      A
 Frequencies --     76.5496                77.4413                87.5846
 Red. masses --      3.1419                 1.6364                 1.2363
 Frc consts  --      0.0108                 0.0058                 0.0056
 IR Inten    --      1.1599                 1.1457                 0.6382

                     10                     11                     12
                      A                      A                      A
 Frequencies --     96.3926               111.8132               121.7901
 Red. masses --      3.4140                 4.8211                 3.9769
 Frc consts  --      0.0187                 0.0355                 0.0348
 IR Inten    --      0.1059                 0.0258                 0.0606

                     13                     14                     15
                      A                      A                      A
 Frequencies --    125.5590               126.2482               160.9785
 Red. masses --      1.7660                 2.3882                 1.8577
 Frc consts  --      0.0164                 0.0224                 0.0284
 IR Inten    --      0.0146                 0.0354                 0.0266

                     16                     17                     18
                      A                      A                      A
 Frequencies --    163.8415               167.3093               196.6661
 Red. masses --      2.1506                 5.4835                 3.9674
 Frc consts  --      0.0340                 0.0904                 0.0904
 IR Inten    --      0.0189                 1.3963                 0.0359

                     19                     20                     21
                      A                      A                      A
 Frequencies --    243.6139               243.7907               253.0901
 Red. masses --      1.9842                 1.5255                 4.1671
 Frc consts  --      0.0694                 0.0534                 0.1573
 IR Inten    --      0.1734                 0.1442                 1.2934

                     22                     23                     24
                      A                      A                      A
 Frequencies --    309.4631               328.3004               347.3478
 Red. masses --      4.2593                 3.4859                 3.9615
 Frc consts  --      0.2403                 0.2214                 0.2816
 IR Inten    --      0.3360                 0.1971                 1.4773

                     25                     26                     27
                      A                      A                      A
 Frequencies --    363.1008               389.1639               394.2266
 Red. masses --      2.7349                 3.7090                 5.9653
 Frc consts  --      0.2124                 0.3310                 0.5462
 IR Inten    --      1.4307                 1.2683                12.7627

                     28                     29                     30
                      A                      A                      A
 Frequencies --    420.1567               426.0340               435.1930
 Red. masses --      6.6186                 3.3655                 4.9760
 Frc consts  --      0.6884                 0.3599                 0.5553
 IR Inten    --     17.9364                 1.4094                14.8877

                     31                     32                     33
                      A                      A                      A
 Frequencies --    454.5816               484.3719               493.2552
 Red. masses --      3.8744                 4.6938                 3.2487
 Frc consts  --      0.4717                 0.6488                 0.4657
 IR Inten    --      1.4713                 3.6685                 0.1410

                     34                     35                     36
                      A                      A                      A
 Frequencies --    521.9886               566.6508               643.0250
 Red. masses --      5.2603                 4.6962                 5.5395
 Frc consts  --      0.8445                 0.8884                 1.3495
 IR Inten    --      4.0595                 3.5499                 8.5313

                     37                     38                     39
                      A                      A                      A
 Frequencies --    675.7760               679.9638               703.9664
 Red. masses --      5.8577                 3.2228                 4.0424
 Frc consts  --      1.5761                 0.8779                 1.1803
 IR Inten    --      4.4345                 4.5622                17.6830

                     40                     41                     42
                      A                      A                      A
 Frequencies --    728.7259               730.0780               731.6950
 Red. masses --      1.0587                 1.1272                 2.2786
 Frc consts  --      0.3312                 0.3540                 0.7187
 IR Inten    --     15.8549                 7.5368                87.8278

                     43                     44                     45
                      A                      A                      A
 Frequencies --    737.5864               757.1386               789.7938
 Red. masses --      1.1372                 1.2137                 1.4724
 Frc consts  --      0.3645                 0.4099                 0.5411
 IR Inten    --      4.0129                 0.0723                 3.1859

                     46                     47                     48
                      A                      A                      A
 Frequencies --    798.9819               811.0884               819.5427
 Red. masses --      2.2182                 3.4240                 1.9853
 Frc consts  --      0.8343                 1.3271                 0.7856
 IR Inten    --     18.6927                 3.6530                 2.2276

                     49                     50                     51
                      A                      A                      A
 Frequencies --    857.1445               893.8273               900.2346
 Red. masses --      1.4092                 1.9642                 2.0872
 Frc consts  --      0.6100                 0.9246                 0.9966
 IR Inten    --      4.7491                 1.3115                39.1431

                     52                     53                     54
                      A                      A                      A
 Frequencies --    912.3768               929.1297               968.3785
 Red. masses --      1.3958                 1.7042                 3.5110
 Frc consts  --      0.6846                 0.8668                 1.9399
 IR Inten    --      0.0165                34.2457                17.2346

                     55                     56                     57
                      A                      A                      A
 Frequencies --    981.2708               990.1496               998.7186
 Red. masses --      3.7316                 1.4875                 1.4044
 Frc consts  --      2.1170                 0.8592                 0.8253
 IR Inten    --      4.8153                19.4571                 1.8123

                     58                     59                     60
                      A                      A                      A
 Frequencies --   1003.3500              1008.9345              1021.2875
 Red. masses --      3.7577                 3.5559                 1.3308
 Frc consts  --      2.2288                 2.1327                 0.8179
 IR Inten    --      4.8573                 5.9761                 0.0033

                     61                     62                     63
                      A                      A                      A
 Frequencies --   1035.9668              1038.7934              1044.2741
 Red. masses --      2.9125                 1.4891                 1.6755
 Frc consts  --      1.8416                 0.9467                 1.0765
 IR Inten    --      2.5530                24.1541                 1.1355

                     64                     65                     66
                      A                      A                      A
 Frequencies --   1050.8666              1056.7203              1063.2840
 Red. masses --      1.6108                 2.6028                 2.3417
 Frc consts  --      1.0481                 1.7124                 1.5598
 IR Inten    --      1.9743                 0.2932                 4.8257

                     67                     68                     69
                      A                      A                      A
 Frequencies --   1064.7326              1070.2338              1079.3809
 Red. masses --      2.1719                 1.7800                 2.4971
 Frc consts  --      1.4507                 1.2012                 1.7141
 IR Inten    --      0.1698                24.8232                 2.0136

                     70                     71                     72
                      A                      A                      A
 Frequencies --   1108.9524              1135.9406              1144.0355
 Red. masses --      2.1916                 2.6753                 2.0880
 Frc consts  --      1.5879                 2.0339                 1.6101
 IR Inten    --      1.1612                16.4473                27.4040

                     73                     74                     75
                      A                      A                      A
 Frequencies --   1164.6562              1181.6980              1201.6455
 Red. masses --      2.0884                 1.2413                 1.9735
 Frc consts  --      1.6690                 1.0213                 1.6789
 IR Inten    --     15.8131                 1.9554                10.0831

                     76                     77                     78
                      A                      A                      A
 Frequencies --   1210.3861              1228.7899              1239.6894
 Red. masses --      2.0564                 1.2495                 1.5047
 Frc consts  --      1.7751                 1.1116                 1.3625
 IR Inten    --      6.1671                 0.2944                 8.6652

                     79                     80                     81
                      A                      A                      A
 Frequencies --   1265.1185              1271.2727              1280.5328
 Red. masses --      1.3075                 1.5283                 1.6045
 Frc consts  --      1.2329                 1.4552                 1.5502
 IR Inten    --      3.7246                50.4458                50.2373

                     82                     83                     84
                      A                      A                      A
 Frequencies --   1295.7401              1300.5177              1305.9711
 Red. masses --      2.8600                 1.3210                 1.5526
 Frc consts  --      2.8291                 1.3164                 1.5602
 IR Inten    --    473.6972                 5.0160               123.0762

                     85                     86                     87
                      A                      A                      A
 Frequencies --   1321.9241              1324.8157              1329.1195
 Red. masses --      1.1854                 1.0629                 1.0588
 Frc consts  --      1.2204                 1.0991                 1.1021
 IR Inten    --     13.6112                 2.2806                 1.4485

                     88                     89                     90
                      A                      A                      A
 Frequencies --   1330.6627              1333.6054              1334.8005
 Red. masses --      1.4612                 1.1346                 1.0957
 Frc consts  --      1.5244                 1.1889                 1.1502
 IR Inten    --      3.7924                 3.1929                 1.5087

                     91                     92                     93
                      A                      A                      A
 Frequencies --   1347.0385              1358.8109              1360.7609
 Red. masses --      2.0860                 1.4731                 7.2644
 Frc consts  --      2.2301                 1.6025                 7.9252
 IR Inten    --     55.1666                15.6376                32.9167

                     94                     95                     96
                      A                      A                      A
 Frequencies --   1376.2598              1390.1790              1395.6519
 Red. masses --      1.4456                 1.5423                 1.5894
 Frc consts  --      1.6132                 1.7561                 1.8240
 IR Inten    --      3.8547                 0.1484                 0.9361

                     97                     98                     99
                      A                      A                      A
 Frequencies --   1396.8143              1403.5610              1407.3377
 Red. masses --      1.6339                 1.2645                 1.2907
 Frc consts  --      1.8782                 1.4677                 1.5062
 IR Inten    --      0.0520                 2.3748                43.2854

                    100                    101                    102
                      A                      A                      A
 Frequencies --   1461.3900              1464.7470              1470.6200
 Red. masses --      1.0909                 1.0511                 1.0697
 Frc consts  --      1.3727                 1.3287                 1.3631
 IR Inten    --      4.6858                13.4637                 0.2370

                    103                    104                    105
                      A                      A                      A
 Frequencies --   1471.5000              1474.2555              1478.8555
 Red. masses --      1.0707                 1.0726                 1.0830
 Frc consts  --      1.3659                 1.3736                 1.3956
 IR Inten    --      0.0557                 0.2601                 0.8832

                    106                    107                    108
                      A                      A                      A
 Frequencies --   1481.6513              1484.6113              1487.8201
 Red. masses --      2.2051                 1.1019                 1.0402
 Frc consts  --      2.8522                 1.4309                 1.3566
 IR Inten    --      0.0725                 0.0381                10.4537

                    109                    110                    111
                      A                      A                      A
 Frequencies --   1490.5082              1496.2597              1501.4402
 Red. masses --      1.0954                 1.1033                 1.1173
 Frc consts  --      1.4338                 1.4553                 1.4840
 IR Inten    --      2.9699                 0.4643                 5.3934

                    112                    113                    114
                      A                      A                      A
 Frequencies --   1505.4721              1507.3411              1508.5747
 Red. masses --      1.1925                 1.9231                 1.1620
 Frc consts  --      1.5925                 2.5744                 1.5580
 IR Inten    --      1.1828                 6.2386                39.3093

                    115                    116                    117
                      A                      A                      A
 Frequencies --   1613.3238              1620.4536              1654.6843
 Red. masses --      6.7922                 6.0263                 8.1005
 Frc consts  --     10.4161                 9.3234                13.0676
 IR Inten    --      5.1652               282.8299               107.5195

                    118                    119                    120
                      A                      A                      A
 Frequencies --   1684.1216              1687.4978              2987.9040
 Red. masses --     11.6889                11.5205                 1.0572
 Frc consts  --     19.5332                19.3290                 5.5609
 IR Inten    --    942.0486                13.4876                 1.9063

                    121                    122                    123
                      A                      A                      A
 Frequencies --   2988.9037              2991.3755              2993.0394
 Red. masses --      1.0573                 1.0578                 1.0580
 Frc consts  --      5.5652                 5.5770                 5.5844
 IR Inten    --      0.3879                 3.8851                 3.7342

                    124                    125                    126
                      A                      A                      A
 Frequencies --   2996.4887              3000.5966              3003.0054
 Red. masses --      1.0589                 1.0593                 1.0595
 Frc consts  --      5.6017                 5.6192                 5.6297
 IR Inten    --      9.3917               144.5521               276.9590

                    127                    128                    129
                      A                      A                      A
 Frequencies --   3003.9640              3007.3814              3013.0047
 Red. masses --      1.0981                 1.0994                 1.0989
 Frc consts  --      5.8383                 5.8585                 5.8779
 IR Inten    --      1.2708                 0.2378                 2.1305

                    130                    131                    132
                      A                      A                      A
 Frequencies --   3013.0757              3015.5931              3021.2736
 Red. masses --      1.0356                 1.0622                 1.1023
 Frc consts  --      5.5396                 5.6911                 5.9284
 IR Inten    --     56.5641                69.6243                 2.4553

                    133                    134                    135
                      A                      A                      A
 Frequencies --   3030.3211              3038.5218              3040.9376
 Red. masses --      1.1047                 1.1054                 1.0411
 Frc consts  --      5.9769                 6.0130                 5.6725
 IR Inten    --      4.1141                 2.9743                 9.9201

                    136                    137                    138
                      A                      A                      A
 Frequencies --   3044.6444              3053.9294              3058.8856
 Red. masses --      1.1055                 1.1030                 1.0608
 Frc consts  --      6.0377                 6.0610                 5.8479
 IR Inten    --    293.3552               160.0238                63.0205

                    139                    140                    141
                      A                      A                      A
 Frequencies --   3071.7015              3076.7072              3084.5668
 Red. masses --      1.1026                 1.1011                 1.0984
 Frc consts  --      6.1297                 6.1412                 6.1574
 IR Inten    --    118.4724                72.7578                11.7062

                    142                    143                    144
                      A                      A                      A
 Frequencies --   3099.4636              3154.5443              3177.7286
 Red. masses --      1.1041                 1.0973                 1.0874
 Frc consts  --      6.2494                 6.4333                 6.4696
 IR Inten    --     31.8323                20.0016                 3.4004

                    145                    146                    147
                      A                      A                      A
 Frequencies --   3190.0664              3202.3806              3205.4280
 Red. masses --      1.0914                 1.0925                 1.0955
 Frc consts  --      6.5437                 6.6014                 6.6318
 IR Inten    --     10.9073                 4.3166                17.4215

 - Thermochemistry -
 -------------------
 Temperature   298.150 Kelvin.  Pressure   1.00000 Atm.
 Atom     1 has atomic number  6 and mass  12.00000

 Molecular mass:   312.20893 amu.
 Principal axes and moments of inertia in atomic units:
                           1         2         3
     Eigenvalues --  2693.58913********************
           X            0.86336   0.27251   0.42468
           Y           -0.40671  -0.12233   0.90533
           Z           -0.29866   0.95434  -0.00522
 This molecule is an asymmetric top.
 Rotational symmetry number  1.
 Warning -- assumption of classical behavior for rotation
           may cause significant error
 Rotational temperatures (Kelvin)      0.03216     0.00278     0.00266
 Rotational constants (GHZ):           0.67001     0.05798     0.05551
 Zero-point vibrational energy    1159227.7 (Joules/Mol)
                                  277.06207 (Kcal/Mol)
 Warning -- explicit consideration of  35 degrees of freedom as
           vibrations may cause significant error
 Vibrational temperatures:     17.94    28.20    37.49    47.30    59.25
          (Kelvin)             80.25   110.14   111.42   126.01   138.69
                              160.87   175.23   180.65   181.64   231.61
                              235.73   240.72   282.96   350.51   350.76
                              364.14   445.25   472.35   499.76   522.42
                              559.92   567.20   604.51   612.97   626.15
                              654.04   696.90   709.68   751.03   815.28
                              925.17   972.29   978.32  1012.85  1048.47
                             1050.42  1052.75  1061.22  1089.35  1136.34
                             1149.56  1166.98  1179.14  1233.24  1286.02
                             1295.24  1312.71  1336.81  1393.28  1411.83
                             1424.60  1436.93  1443.60  1451.63  1469.40
                             1490.53  1494.59  1502.48  1511.96  1520.38
                             1529.83  1531.91  1539.83  1552.99  1595.54
                             1634.37  1646.01  1675.68  1700.20  1728.90
                             1741.48  1767.95  1783.64  1820.22  1829.08
                             1842.40  1864.28  1871.15  1879.00  1901.95
                             1906.11  1912.31  1914.53  1918.76  1920.48
                             1938.09  1955.03  1957.83  1980.13  2000.16
                             2008.03  2009.70  2019.41  2024.85  2102.61
                             2107.44  2115.89  2117.16  2121.12  2127.74
                             2131.77  2136.02  2140.64  2144.51  2152.78
                             2160.24  2166.04  2168.73  2170.50  2321.21
                             2331.47  2380.72  2423.08  2427.93  4298.93
                             4300.37  4303.92  4306.32  4311.28  4317.19
                             4320.65  4322.03  4326.95  4335.04  4335.14
                             4338.77  4346.94  4359.96  4371.76  4375.23
                             4380.56  4393.92  4401.05  4419.49  4426.70
                             4438.00  4459.44  4538.69  4572.04  4589.79
                             4607.51  4611.90

 Zero-point correction=                           0.441527 (Hartree/Particle)
 Thermal correction to Energy=                    0.466006
 Thermal correction to Enthalpy=                  0.466950
 Thermal correction to Gibbs Free Energy=         0.382831
 Sum of electronic and zero-point Energies=           -967.403719
 Sum of electronic and thermal Energies=              -967.379240
 Sum of electronic and thermal Enthalpies=            -967.378296
 Sum of electronic and thermal Free Energies=         -967.462415

                     E (Thermal)             CV                S
                      KCal/Mol        Cal/Mol-Kelvin    Cal/Mol-Kelvin
 Total                  292.423             90.137            177.044
 Electronic               0.000              0.000              0.000
 Translational            0.889              2.981             43.112
 Rotational               0.889              2.981             36.254
 Vibrational            290.646             84.176             97.679
 Vibration     1          0.593              1.987              7.573
 Vibration     2          0.593              1.986              6.674
 Vibration     3          0.593              1.985              6.109
 Vibration     4          0.594              1.983              5.648
 Vibration     5          0.594              1.981              5.201
 Vibration     6          0.596              1.975              4.601
 Vibration     7          0.599              1.965              3.977
 Vibration     8          0.599              1.964              3.955
 Vibration     9          0.601              1.958              3.713
 Vibration    10          0.603              1.952              3.526
 Vibration    11          0.607              1.940              3.237
 Vibration    12          0.609              1.931              3.072
 Vibration    13          0.611              1.928              3.013
 Vibration    14          0.611              1.927              3.002
 Vibration    15          0.622              1.890              2.538
 Vibration    16          0.623              1.887              2.505
 Vibration    17          0.624              1.883              2.465
 Vibration    18          0.636              1.845              2.164
 Vibration    19          0.659              1.773              1.776
 Vibration    20          0.659              1.773              1.775
 Vibration    21          0.664              1.758              1.709
 Vibration    22          0.699              1.656              1.365
 Vibration    23          0.712              1.619              1.268
 Vibration    24          0.725              1.581              1.178
 Vibration    25          0.737              1.548              1.109
 Vibration    26          0.757              1.493              1.003
 Vibration    27          0.761              1.483              0.984
 Vibration    28          0.783              1.426              0.891
 Vibration    29          0.788              1.414              0.872
 Vibration    30          0.796              1.394              0.842
 Vibration    31          0.813              1.351              0.782
 Vibration    32          0.840              1.285              0.698
 Vibration    33          0.849              1.265              0.675
 Vibration    34          0.877              1.201              0.605
 Vibration    35          0.923              1.103              0.511

                           ! Non-Optimized Parameters !
 Normal termination of Gaussian 16 at Sun Feb 11 09:59:16 2024.
