 Q-Chem 5.4, Q-Chem, Inc., Pleasanton, CA (2021)
 Q-Chem 5.4.0 for Intel X86 EM64T Linux

User input:
--------------------------------------------------------------
$molecule
0 1
C                 -0.6428320000      2.6817750000     -0.9633760000
C                 -1.7182140000      2.0635210000     -0.3700780000
C                 -1.5904180000      0.7568140000      0.1558030000
C                  0.6085660000      2.0196980000     -1.0567760000
C                  0.7382780000      0.6958960000     -0.5240370000
C                 -0.3903410000      0.0879930000      0.0809030000
C                  1.7361680000      2.6250320000     -1.6602980000
C                  2.9412990000      1.9588170000     -1.7378150000
C                  3.0732990000      0.6391470000     -1.2075990000
C                  1.9897780000      0.0345870000     -0.6177660000
C                  4.1001790000      2.6088460000     -2.3699520000
C                  5.3848510000      1.8410090000     -2.4277680000
C                  5.5066930000      0.5938990000     -1.9259440000
C                  4.3809230000     -0.0921870000     -1.2881370000
O                  4.0930220000      3.7346990000     -2.8543740000
O                  4.5025660000     -1.2228880000     -0.8365890000
O                  6.3906560000      2.4962660000     -3.0156740000
H                 -0.7373930000      3.6837560000     -1.3676360000
H                 -2.6706900000      2.5764120000     -0.3028180000
H                 -2.4470020000      0.2822100000      0.6206230000
H                 -0.2924800000     -0.9139300000      0.4841540000
H                  1.6607450000      3.6260930000     -2.0699840000
H                  2.1070620000     -0.9673690000     -0.2203560000
H                  6.4463330000      0.0574520000     -1.9790970000
H                  6.0312530000      3.3647230000     -3.2816700000
$end
$rem
MAX_SCF_CYCLES=200
BASIS  =  6-311++G(d,p)
GUI  =  2
JOB_TYPE  =  SP
METHOD  =  B3LYP
SOLVENT_METHOD = PCM
$end
$pcm
theory = CPCM
$end
$solvent
dielectric 37.219
opticaldielectric 1.43
$end

--------------------------------------------------------------

             Standard Nuclear Orientation (Angstroms)
    I     Atom           X                Y                Z
 ----------------------------------------------------------------
    1      C      -0.6428320000     2.6817750000    -0.9633760000
    2      C      -1.7182140000     2.0635210000    -0.3700780000
    3      C      -1.5904180000     0.7568140000     0.1558030000
    4      C       0.6085660000     2.0196980000    -1.0567760000
    5      C       0.7382780000     0.6958960000    -0.5240370000
    6      C      -0.3903410000     0.0879930000     0.0809030000
    7      C       1.7361680000     2.6250320000    -1.6602980000
    8      C       2.9412990000     1.9588170000    -1.7378150000
    9      C       3.0732990000     0.6391470000    -1.2075990000
   10      C       1.9897780000     0.0345870000    -0.6177660000
   11      C       4.1001790000     2.6088460000    -2.3699520000
   12      C       5.3848510000     1.8410090000    -2.4277680000
   13      C       5.5066930000     0.5938990000    -1.9259440000
   14      C       4.3809230000    -0.0921870000    -1.2881370000
   15      O       4.0930220000     3.7346990000    -2.8543740000
   16      O       4.5025660000    -1.2228880000    -0.8365890000
   17      O       6.3906560000     2.4962660000    -3.0156740000
   18      H      -0.7373930000     3.6837560000    -1.3676360000
   19      H      -2.6706900000     2.5764120000    -0.3028180000
   20      H      -2.4470020000     0.2822100000     0.6206230000
   21      H      -0.2924800000    -0.9139300000     0.4841540000
   22      H       1.6607450000     3.6260930000    -2.0699840000
   23      H       2.1070620000    -0.9673690000    -0.2203560000
   24      H       6.4463330000     0.0574520000    -1.9790970000
   25      H       6.0312530000     3.3647230000    -3.2816700000
 ----------------------------------------------------------------

    9    -764.2140867486      3.31e-06  Convergence criterion met
 Total energy in the final basis set =     -764.2140867486

                    Orbital Energies (a.u.)
 --------------------------------------------------------------

 Alpha MOs
 -- Occupied --
-19.1835 -19.1494 -19.1261 -10.2947 -10.2808 -10.2755 -10.2103 -10.2083
-10.2076 -10.2066 -10.2065 -10.2007 -10.1970 -10.1927 -10.1923 -10.1915
-10.1910  -1.1127  -1.0694  -1.0602  -0.9040  -0.8626  -0.8232  -0.8010
 -0.7684  -0.7521  -0.6983  -0.6733  -0.6434  -0.6220  -0.6096  -0.5698
 -0.5632  -0.5329  -0.5247  -0.4955  -0.4851  -0.4718  -0.4652  -0.4604
 -0.4547  -0.4487  -0.4373  -0.4288  -0.4270  -0.4149  -0.4048  -0.3986
 -0.3921  -0.3692  -0.3529  -0.3467  -0.3108  -0.3042  -0.2834  -0.2803
 -0.2648  -0.2441

          Ground-State Mulliken Net Atomic Charges

     Atom                 Charge (a.u.)
  ----------------------------------------
      1 C                    -0.164727
      2 C                    -0.345835
      3 C                    -0.344985
      4 C                     0.204321
      5 C                     0.199051
      6 C                    -0.152061
      7 C                     0.195579
      8 C                     0.382332
      9 C                     0.319288
     10 C                     0.186194
     11 C                    -0.751598
     12 C                    -0.427347
     13 C                     0.479126
     14 C                    -0.652020
     15 O                    -0.315352
     16 O                    -0.335218
     17 O                    -0.237117
     18 H                     0.198829
     19 H                     0.218604
     20 H                     0.218990
     21 H                     0.198834
     22 H                     0.179296
     23 H                     0.165983
     24 H                     0.257948
     25 H                     0.321885
  ----------------------------------------
  Sum of atomic charges =     0.000000

                    Cartesian Multipole Moments
 -----------------------------------------------------------------
    Charge (ESU x 10^10)
                -0.0000
    Dipole Moment (Debye)
         X      -5.4185      Y       2.3874      Z       0.6127
       Tot       5.9528
    Quadrupole Moments (Debye-Ang)
        XX    -112.3918     XY       3.7800     YY     -98.1305
        XZ       2.1365     YZ      -1.9328     ZZ     -99.7618

 Total job time:  40.48s(wall), 306.00s(cpu)
        *  Thank you very much for using Q-Chem.  Have a nice day.  *
