 Q-Chem 5.4, Q-Chem, Inc., Pleasanton, CA (2021)
 Q-Chem 5.4.0 for Intel X86 EM64T Linux

User input:
--------------------------------------------------------------
$molecule
-2 1
C                 -1.7577920000      1.4984150000      1.0612110000
C                 -2.9331680000      0.7105160000      0.8126270000
C                 -2.9794570000     -0.5362360000      0.1943620000
C                 -1.7731460000     -1.1890640000     -0.2812220000
C                 -0.5929590000     -0.4168720000     -0.0407610000
C                 -0.5756250000      0.8442500000      0.5879670000
O                 -1.7687310000     -2.3465400000     -0.8602660000
O                 -1.7979610000      2.6456450000      1.6395250000
I                  1.2102050000      1.9866790000      0.9358940000
I                  1.1821340000     -1.3979250000     -0.7484410000
H                 -3.8447850000      1.1844180000      1.1621310000
C                 -4.3213600000     -1.2744720000     -0.0095800000
C                 -5.5348170000     -0.4927080000      0.5314130000
C                 -4.2781060000     -2.6391500000      0.7212870000
C                 -4.5546780000     -1.5162880000     -1.5213550000
H                 -5.6469170000      0.4764830000      0.0355210000
H                 -5.4530830000     -0.3103900000      1.6074720000
H                 -6.4500780000     -1.0737010000      0.3534020000
H                 -4.1839330000     -2.4843370000      1.8024610000
H                 -3.4143430000     -3.2048350000      0.3659300000
H                 -5.2003360000     -3.2119660000      0.5353410000
H                 -4.6582570000     -0.5582920000     -2.0441160000
H                 -5.4744300000     -2.0992390000     -1.6870500000
H                 -3.6976410000     -2.0547720000     -1.9310730000
$end
$rem
MAX_SCF_CYCLES=200
BASIS  =  6-311++G(d,p)
GUI  =  2
JOB_TYPE  =  SP
METHOD  =  B3LYP
SOLVENT_METHOD = COSMO
$end
$solvent
dielectric 37.219
opticaldielectric 1.43
$end

--------------------------------------------------------------

             Standard Nuclear Orientation (Angstroms)
    I     Atom           X                Y                Z
 ----------------------------------------------------------------
    1      C      -0.2983217593    -2.0884234137    -0.0019378845
    2      C      -1.7087685108    -1.8150600706    -0.0017818022
    3      C      -2.3092874331    -0.5588117857    -0.0003320044
    4      C      -1.5167817935     0.6575289431     0.0005679899
    5      C      -0.1090186135     0.4022918486     0.0001357682
    6      C       0.4718682613    -0.8816851993    -0.0010656342
    7      O      -2.0315988110     1.8449737469     0.0012108675
    8      O       0.1797382282    -3.2815937975    -0.0025604428
    9      I       2.5901321125    -1.2399315206     0.0008930248
   10      I       1.0482176924     2.2119975423    -0.0006155780
   11      H      -2.3164012494    -2.7142618843    -0.0022912921
   12      C      -3.8473406936    -0.4115705308     0.0004250769
   13      C      -4.5884769373    -1.7632443957    -0.0006236007
   14      C      -4.2935426712     0.3696589195    -1.2601176099
   15      C      -4.2922829327     0.3668865064     1.2631233634
   16      H      -4.3436213078    -2.3608967032     0.8829282768
   17      H      -4.3444538786    -2.3591097284    -0.8856210715
   18      H      -5.6722643028    -1.5833891895     0.0001054102
   19      H      -4.0488379979    -0.2015382830    -2.1632378764
   20      H      -3.7670512641     1.3258410876    -1.2899017755
   21      H      -5.3810834691     0.5437534980    -1.2479377725
   22      H      -4.0465842045    -0.2063635111     2.1646667960
   23      H      -5.3798510237     0.5409948402     1.2525224901
   24      H      -3.7657878009     1.3230061971     1.2944967637
 ----------------------------------------------------------------

   11  -14376.7019568022      4.41e-06  Convergence criterion met
 Total energy in the final basis set =   -14376.7019568022
    6  -14376.9696792891      4.99e-06  Convergence criterion met
 Total energy in the final basis set =   -14376.9696792891

                    Orbital Energies (a.u.)
 --------------------------------------------------------------

 Alpha MOs
 -- Occupied --
*****************-176.2731-176.2727-165.6766-165.6761-165.6749-165.6748
********-165.6743 -35.7696 -35.7692 -31.2621 -31.2616 -31.2573 -31.2569
-31.2569 -31.2565 -22.9128 -22.9123 -22.9117 -22.9115 -22.9113 -22.9110
-22.9081 -22.9081 -22.9076 -22.9076 -19.0307 -19.0233 -10.1890 -10.1876
-10.1815 -10.1807 -10.1670 -10.1456 -10.1405 -10.1334 -10.1334 -10.1321
 -6.3190  -6.3186  -4.7297  -4.7292  -4.7180  -4.7176  -4.7171  -4.7165
 -1.9957  -1.9952  -1.9922  -1.9920  -1.9915  -1.9910  -1.9814  -1.9813
 -1.9810  -1.9807  -0.9495  -0.9422  -0.8109  -0.7857  -0.7152  -0.6757
 -0.6667  -0.6623  -0.6267  -0.6159  -0.5582  -0.5309  -0.4996  -0.4568
 -0.4433  -0.4182  -0.4077  -0.4065  -0.3875  -0.3832  -0.3679  -0.3634
 -0.3567  -0.3479  -0.3342  -0.3242  -0.3241  -0.3116  -0.3068  -0.3022
 -0.2791  -0.2619  -0.2532  -0.2346  -0.2343  -0.2093  -0.2093  -0.1965
 -0.1327

          Ground-State Mulliken Net Atomic Charges

     Atom                 Charge (a.u.)
  ----------------------------------------
      1 C                    -0.964487
      2 C                    -0.439830
      3 C                     0.836732
      4 C                    -0.789140
      5 C                    -0.137147
      6 C                     0.671716
      7 O                    -0.580859
      8 O                    -0.655299
      9 I                    -0.114357
     10 I                    -0.107747
     11 H                     0.163701
     12 C                     0.708335
     13 C                    -0.519753
     14 C                    -0.703047
     15 C                    -0.702832
     16 H                     0.132772
     17 H                     0.132685
     18 H                     0.169608
     19 H                     0.127421
     20 H                     0.179117
     21 H                     0.143034
     22 H                     0.127374
     23 H                     0.142991
     24 H                     0.179012
  ----------------------------------------
  Sum of atomic charges =    -2.000000

                    Cartesian Multipole Moments
 -----------------------------------------------------------------
    Charge (ESU x 10^10)
                -9.6064
    Dipole Moment (Debye)
         X       2.8292      Y       4.9368      Z       0.0069
       Tot       5.6900
    Quadrupole Moments (Debye-Ang)
        XX    -163.9396     XY      16.0510     YY    -198.1656
        XZ       0.0062     YZ      -0.0380     ZZ    -141.1509

 Total job time:  65.34s(wall), 502.45s(cpu)
        *  Thank you very much for using Q-Chem.  Have a nice day.  *
