 Gaussian 16, Revision A.03,
 Gaussian 16:  ES64L-G16RevA.03 25-Dec-2016

 ----------------------------------------------------------------------
 #P UB3LYP/6-311++G(d,p) nosym opt freq SCRF=(PCM,Solvent=n,n-DiMethylF
 ormamide)
 ----------------------------------------------------------------------

 -------
 Radical
 -------
 Symbolic Z-matrix:
 Charge = -1 Multiplicity = 2

 SCF Done:  E(UB3LYP) =  -803.641736746     A.U. after   19 cycles
 SCF Done:  E(UB3LYP) =  -803.642121628     A.U. after   14 cycles
 SCF Done:  E(UB3LYP) =  -803.642203488     A.U. after   15 cycles
 SCF Done:  E(UB3LYP) =  -803.642224626     A.U. after   13 cycles
 SCF Done:  E(UB3LYP) =  -803.642228079     A.U. after   10 cycles
 SCF Done:  E(UB3LYP) =  -803.642228985     A.U. after   10 cycles
 SCF Done:  E(UB3LYP) =  -803.642230239     A.U. after   10 cycles
 SCF Done:  E(UB3LYP) =  -803.642225797     A.U. after   13 cycles
 SCF Done:  E(UB3LYP) =  -803.642232811     A.U. after   12 cycles
 SCF Done:  E(UB3LYP) =  -803.642232140     A.U. after   10 cycles
 SCF Done:  E(UB3LYP) =  -803.642229413     A.U. after   12 cycles
 SCF Done:  E(UB3LYP) =  -803.642234268     A.U. after   12 cycles
 SCF Done:  E(UB3LYP) =  -803.642231118     A.U. after   12 cycles
 SCF Done:  E(UB3LYP) =  -803.642234337     A.U. after   12 cycles
 SCF Done:  E(UB3LYP) =  -803.642233508     A.U. after   11 cycles
 SCF Done:  E(UB3LYP) =  -803.642234676     A.U. after   11 cycles
 SCF Done:  E(UB3LYP) =  -803.642234699     A.U. after    9 cycles
 Optimization completed.
    -- Stationary point found.
 Normal termination of Gaussian 16 at Sat Feb 10 17:19:19 2024.

 ----------------------------------------------------------------------
 #P Geom=AllCheck Guess=TCheck SCRF=Check GenChk UB3LYP/6-311++G(d,p) F
 req
 ----------------------------------------------------------------------

 Structure from the checkpoint file:  "137-rad.chk"
 -------
 Radical
 -------
 Charge = -1 Multiplicity = 2

                          Input orientation:
 ---------------------------------------------------------------------
 Center     Atomic      Atomic             Coordinates (Angstroms)
 Number     Number       Type             X           Y           Z
 ---------------------------------------------------------------------
      1          6           0        3.738843    2.220145   -0.492028
      2          8           0        2.376148    1.813135   -0.383871
      3          6           0        2.091276    0.491025   -0.230798
      4          6           0        3.100280   -0.463246   -0.172899
      5          6           0        2.787498   -1.826132   -0.026260
      6          6           0        1.476442   -2.231642    0.055077
      7          6           0        0.422815   -1.290783   -0.000785
      8          6           0       -0.941100   -1.811343    0.083426
      9          8           0       -1.169348   -3.051327    0.203162
     10          6           0       -2.025215   -0.843731    0.019179
     11          6           0       -3.368703   -1.283316    0.080246
     12          6           0       -4.416725   -0.387467    0.021811
     13          6           0       -4.152835    0.993562   -0.099632
     14          6           0       -2.847742    1.442636   -0.158476
     15          6           0       -1.757253    0.545537   -0.102529
     16          6           0       -0.388851    1.084372   -0.170328
     17          8           0       -0.222946    2.330112   -0.248084
     18          6           0        0.706995    0.110662   -0.136878
     19          1           0        4.223546    1.772635   -1.365254
     20          1           0        4.306166    1.968171    0.409265
     21          1           0        3.710901    3.302128   -0.609631
     22          1           0        4.137127   -0.167980   -0.242244
     23          1           0        3.592713   -2.551685    0.018017
     24          1           0        1.217261   -3.276537    0.162698
     25          1           0       -3.551324   -2.346894    0.173824
     26          1           0       -5.440951   -0.741772    0.068846
     27          1           0       -4.974451    1.700228   -0.146521
     28          1           0       -2.630569    2.499506   -0.250848
 ---------------------------------------------------------------------

 SCF Done:  E(UB3LYP) =  -803.642234699     A.U. after    1 cycles

 Alpha  occ. eigenvalues --  -19.15137 -19.07148 -19.07010 -10.23890 -10.22626
 Alpha  occ. eigenvalues --  -10.21969 -10.21820 -10.17780 -10.17396 -10.17238
 Alpha  occ. eigenvalues --  -10.17181 -10.17127 -10.17113 -10.17045 -10.16883
 Alpha  occ. eigenvalues --  -10.16831 -10.16675 -10.16081  -1.06758  -0.99697
 Alpha  occ. eigenvalues --   -0.99383  -0.85877  -0.84811  -0.78396  -0.75771
 Alpha  occ. eigenvalues --   -0.74822  -0.73949  -0.69831  -0.66578  -0.63317
 Alpha  occ. eigenvalues --   -0.61801  -0.58147  -0.55713  -0.53784  -0.53006
 Alpha  occ. eigenvalues --   -0.48911  -0.48012  -0.46872  -0.46733  -0.45872
 Alpha  occ. eigenvalues --   -0.45120  -0.42701  -0.42259  -0.41939  -0.40943
 Alpha  occ. eigenvalues --   -0.40903  -0.39574  -0.37995  -0.37851  -0.37232
 Alpha  occ. eigenvalues --   -0.35923  -0.34812  -0.34376  -0.33458  -0.33302
 Alpha  occ. eigenvalues --   -0.31991  -0.26624  -0.25494  -0.24887  -0.24100
 Alpha  occ. eigenvalues --   -0.22999  -0.22921  -0.13961
 Alpha virt. eigenvalues --   -0.04894  -0.02157  -0.00358   0.00277   0.00294
 Alpha virt. eigenvalues --    0.01022   0.01934   0.02102   0.03484   0.03521
 Alpha virt. eigenvalues --    0.03940   0.04283   0.05023   0.05331   0.05549

  Beta  occ. eigenvalues --  -19.15138 -19.06578 -19.06465 -10.23900 -10.22490
  Beta  occ. eigenvalues --  -10.21819 -10.21767 -10.17712 -10.17308 -10.17192
  Beta  occ. eigenvalues --  -10.17155 -10.17054 -10.17038 -10.16987 -10.16864
  Beta  occ. eigenvalues --  -10.16846 -10.16593 -10.16062  -1.06751  -0.98747
  Beta  occ. eigenvalues --   -0.98372  -0.85612  -0.84689  -0.77999  -0.75625
  Beta  occ. eigenvalues --   -0.74638  -0.73754  -0.69721  -0.65845  -0.63148
  Beta  occ. eigenvalues --   -0.61553  -0.58076  -0.55539  -0.53557  -0.52875
  Beta  occ. eigenvalues --   -0.48719  -0.47908  -0.46827  -0.46544  -0.45731
  Beta  occ. eigenvalues --   -0.45029  -0.42581  -0.42223  -0.40810  -0.40770
  Beta  occ. eigenvalues --   -0.40358  -0.39369  -0.37832  -0.37151  -0.35845
  Beta  occ. eigenvalues --   -0.35456  -0.34702  -0.33447  -0.33321  -0.33207
  Beta  occ. eigenvalues --   -0.31360  -0.24872  -0.24473  -0.24344  -0.23579
  Beta  occ. eigenvalues --   -0.22439  -0.22276
  Beta virt. eigenvalues --   -0.08117  -0.03938  -0.01120  -0.00346   0.00295
  Beta virt. eigenvalues --    0.00552   0.01027   0.01948   0.02102   0.03519
  Beta virt. eigenvalues --    0.03534   0.03945   0.04285   0.05166   0.05571

 Mulliken charges and spin densities:
               1          2
     1  C   -0.280572  -0.000380
     2  O   -0.147737  -0.000379
     3  C   -0.103513   0.008534
     4  C   -0.014424   0.068368
     5  C   -0.424612   0.037849
     6  C   -0.024293   0.040527
     7  C    0.501049   0.040605
     8  C   -0.519165   0.118813
     9  O   -0.471537   0.212498
    10  C   -0.054353   0.002869
    11  C    0.061201   0.041197
    12  C   -0.490175   0.016690
    13  C   -0.480620   0.050836
    14  C    0.091293   0.014715
    15  C    0.294271   0.055322
    16  C   -0.385132   0.068552
    17  O   -0.466695   0.204721
    18  C    0.185658   0.036526
    19  H    0.157791   0.000306
    20  H    0.159482   0.000361
    21  H    0.194122  -0.000160
    22  H    0.187498  -0.004376
    23  H    0.191140  -0.002914
    24  H    0.155056  -0.002588
    25  H    0.164804  -0.002377
    26  H    0.179062  -0.001756
    27  H    0.180374  -0.003823
    28  H    0.160029  -0.000536
 Sum of Mulliken charges =  -1.00000   1.00000

 Dipole moment (field-independent basis, Debye):
    X=              5.3757    Y=              2.4253    Z=             -0.0625  Tot=              5.8978
 Quadrupole moment (field-independent basis, Debye-Ang):
   XX=            -94.6740   YY=           -140.5917   ZZ=           -111.6125
   XY=             -3.7943   XZ=             -0.8767   YZ=              1.9674

  Exact polarizability: 476.332  -8.103 369.821  -8.387 -19.542 144.826
 Approx polarizability: 481.538  -6.230 439.738  -7.867 -23.670 165.256

                      1                      2                      3
                      A                      A                      A
 Frequencies --     37.5890                56.5271               107.4563
 Red. masses --      5.6915                 5.3661                 3.8621
 Frc consts  --      0.0047                 0.0101                 0.0263
 IR Inten    --     14.6320                 5.8272                 1.8607

                      4                      5                      6
                      A                      A                      A
 Frequencies --    123.3721               160.7014               174.7567
 Red. masses --      4.6118                 5.8713                 4.3989
 Frc consts  --      0.0414                 0.0893                 0.0792
 IR Inten    --      0.1622                 4.6254                13.7625

                      7                      8                      9
                      A                      A                      A
 Frequencies --    197.6082               259.4380               276.3605
 Red. masses --      3.1390                 1.7254                 4.8992
 Frc consts  --      0.0722                 0.0684                 0.2205
 IR Inten    --      0.1943                 0.0372                 1.7643

                     10                     11                     12
                      A                      A                      A
 Frequencies --    294.9931               328.6006               338.8385
 Red. masses --      2.3434                 4.3288                 7.2608
 Frc consts  --      0.1201                 0.2754                 0.4912
 IR Inten    --      0.1851                 3.3393                 2.0476

                     13                     14                     15
                      A                      A                      A
 Frequencies --    379.1871               393.4005               418.8651
 Red. masses --      7.6830                12.0555                 6.1152
 Frc consts  --      0.6509                 1.0993                 0.6321
 IR Inten    --      5.3575                18.3774                 0.1030

                     16                     17                     18
                      A                      A                      A
 Frequencies --    436.2128               481.1060               488.5775
 Red. masses --      3.3055                 7.0787                11.3997
 Frc consts  --      0.3706                 0.9654                 1.6033
 IR Inten    --      1.2775                 0.2214                 1.1941

                     19                     20                     21
                      A                      A                      A
 Frequencies --    499.3453               569.0776               590.3878
 Red. masses --      3.9959                 4.4499                 6.7094
 Frc consts  --      0.5870                 0.8491                 1.3779
 IR Inten    --      0.7824                 7.8708                26.5426

                     22                     23                     24
                      A                      A                      A
 Frequencies --    621.2407               651.2484               667.7770
 Red. masses --      5.4709                 4.2172                 6.2148
 Frc consts  --      1.2440                 1.0538                 1.6328
 IR Inten    --     17.1322                 7.8392                 9.8992

                     25                     26                     27
                      A                      A                      A
 Frequencies --    694.7226               706.9847               738.7033
 Red. masses --      6.6972                 2.4059                 2.3459
 Frc consts  --      1.9044                 0.7085                 0.7542
 IR Inten    --      1.8055               129.4333                 3.0643

                     28                     29                     30
                      A                      A                      A
 Frequencies --    772.5393               787.9997               793.6722
 Red. masses --      1.9113                 6.1777                 1.9489
 Frc consts  --      0.6721                 2.2601                 0.7233
 IR Inten    --     19.0574                18.6485                70.3063

                     31                     32                     33
                      A                      A                      A
 Frequencies --    822.0154               855.7743               876.5018
 Red. masses --      4.4714                 6.7588                 1.4557
 Frc consts  --      1.7801                 2.9163                 0.6589
 IR Inten    --     20.3601                43.9985                 0.0129

                     34                     35                     36
                      A                      A                      A
 Frequencies --    884.9748               926.1813               973.6149
 Red. masses --      1.4973                 6.7421                 6.5873
 Frc consts  --      0.6909                 3.4075                 3.6790
 IR Inten    --      0.2271                15.1647                82.2485

                     37                     38                     39
                      A                      A                      A
 Frequencies --    982.2733               989.1806              1000.5868
 Red. masses --      1.2883                 1.3664                 1.2844
 Frc consts  --      0.7324                 0.7877                 0.7576
 IR Inten    --      0.7701                 3.0114                 0.0111

                     40                     41                     42
                      A                      A                      A
 Frequencies --   1037.7270              1082.6752              1101.6200
 Red. masses --      2.0595                 4.5502                 2.2636
 Frc consts  --      1.3067                 3.1425                 1.6185
 IR Inten    --     16.6173               259.2662                86.4751

                     43                     44                     45
                      A                      A                      A
 Frequencies --   1111.9243              1144.3131              1162.6304
 Red. masses --      2.1646                 1.4586                 1.2763
 Frc consts  --      1.5768                 1.1253                 1.0165
 IR Inten    --     45.9957                45.5489                 1.2891

                     46                     47                     48
                      A                      A                      A
 Frequencies --   1168.9130              1181.8632              1198.0161
 Red. masses --      1.8971                 1.5236                 1.8335
 Frc consts  --      1.5272                 1.2538                 1.5505
 IR Inten    --     10.2637                 2.7850                 8.3988

                     49                     50                     51
                      A                      A                      A
 Frequencies --   1205.3391              1231.3925              1247.7221
 Red. masses --      1.5971                 2.2710                 2.1521
 Frc consts  --      1.3671                 2.0289                 1.9740
 IR Inten    --     11.3065                43.6391               195.3756

                     52                     53                     54
                      A                      A                      A
 Frequencies --   1264.8654              1327.2050              1362.8059
 Red. masses --      4.0915                 5.3641                 3.7442
 Frc consts  --      3.8568                 5.5670                 4.0971
 IR Inten    --    298.6346                57.8127                15.3711

                     55                     56                     57
                      A                      A                      A
 Frequencies --   1364.3992              1404.2907              1432.4585
 Red. masses --      8.6720                 3.8147                 2.6324
 Frc consts  --      9.5116                 4.4323                 3.1824
 IR Inten    --     17.3919              1025.2499               253.1855

                     58                     59                     60
                      A                      A                      A
 Frequencies --   1467.6655              1476.8005              1484.4435
 Red. masses --      1.4344                 2.7543                 1.0487
 Frc consts  --      1.8205                 3.5392                 1.3615
 IR Inten    --    256.3147                40.1944                12.4987

                     61                     62                     63
                      A                      A                      A
 Frequencies --   1485.3230              1495.4423              1508.8689
 Red. masses --      2.2789                 1.1701                 2.8982
 Frc consts  --      2.9622                 1.5417                 3.8877
 IR Inten    --     26.9370               245.3049               994.2325

                     64                     65                     66
                      A                      A                      A
 Frequencies --   1523.8523              1561.6648              1607.3924
 Red. masses --      6.0235                 5.1640                 7.7006
 Frc consts  --      8.2411                 7.4201                11.7225
 IR Inten    --    152.3998               236.5005                49.0322

                     67                     68                     69
                      A                      A                      A
 Frequencies --   1614.5082              1628.1373              3010.8535
 Red. masses --      5.4596                 6.0860                 1.0335
 Frc consts  --      8.3848                 9.5053                 5.5200
 IR Inten    --     45.3431                 7.3578               105.3885

                     70                     71                     72
                      A                      A                      A
 Frequencies --   3072.7321              3132.9631              3158.0115
 Red. masses --      1.1065                 1.1003                 1.0861
 Frc consts  --      6.1550                 6.3629                 6.3819
 IR Inten    --     54.7784                32.6010                15.1070

                     73                     74                     75
                      A                      A                      A
 Frequencies --   3164.6533              3172.6153              3192.0387
 Red. masses --      1.0884                 1.0910                 1.0914
 Frc consts  --      6.4225                 6.4698                 6.5521
 IR Inten    --     27.7316                27.4092                15.4854

                     76                     77                     78
                      A                      A                      A
 Frequencies --   3195.0274              3200.2549              3217.4102
 Red. masses --      1.0935                 1.0920                 1.0907
 Frc consts  --      6.5767                 6.5891                 6.6521
 IR Inten    --     45.5936                17.7948                14.2099

 - Thermochemistry -
 -------------------
 Temperature   298.150 Kelvin.  Pressure   1.00000 Atm.
 Atom     1 has atomic number  6 and mass  12.00000

 Molecular mass:   238.06299 amu.
 Principal axes and moments of inertia in atomic units:
                           1         2         3
     Eigenvalues --  2278.716975414.114437679.88223
           X            0.99045  -0.13432   0.03098
           Y            0.13102   0.98717   0.09129
           Z           -0.04284  -0.08636   0.99534
 This molecule is an asymmetric top.
 Rotational symmetry number  1.
 Warning -- assumption of classical behavior for rotation
           may cause significant error
 Rotational temperatures (Kelvin)      0.03801     0.01600     0.01128
 Rotational constants (GHZ):           0.79200     0.33334     0.23500
 Zero-point vibrational energy     548842.0 (Joules/Mol)
                                  131.17638 (Kcal/Mol)
 Warning -- explicit consideration of  21 degrees of freedom as
           vibrations may cause significant error
 Vibrational temperatures:     54.08    81.33   154.61   177.50   231.21
          (Kelvin)            251.44   284.31   373.27   397.62   424.43
                              472.78   487.51   545.57   566.02   602.65
                              627.61   692.20   702.95   718.45   818.78
                              849.44   893.83   937.00   960.78   999.55
                             1017.19  1062.83  1111.51  1133.76  1141.92
                             1182.70  1231.27  1261.09  1273.28  1332.57
                             1400.81  1413.27  1423.21  1439.62  1493.06
                             1557.73  1584.99  1599.81  1646.41  1672.77
                             1681.81  1700.44  1723.68  1734.21  1771.70
                             1795.19  1819.86  1909.55  1960.77  1963.07
                             2020.46  2060.99  2111.64  2124.79  2135.78
                             2137.05  2151.61  2170.93  2192.48  2246.89
                             2312.68  2322.92  2342.53  4331.95  4420.98
                             4507.64  4543.67  4553.23  4564.69  4592.63
                             4596.93  4604.45  4629.14

 Zero-point correction=                           0.209043 (Hartree/Particle)
 Thermal correction to Energy=                    0.222908
 Thermal correction to Enthalpy=                  0.223852
 Thermal correction to Gibbs Free Energy=         0.167481
 Sum of electronic and zero-point Energies=           -803.433192
 Sum of electronic and thermal Energies=              -803.419327
 Sum of electronic and thermal Enthalpies=            -803.418383
 Sum of electronic and thermal Free Energies=         -803.474754

                     E (Thermal)             CV                S
                      KCal/Mol        Cal/Mol-Kelvin    Cal/Mol-Kelvin
 Total                  139.877             55.421            118.642
 Electronic               0.000              0.000              1.377
 Translational            0.889              2.981             42.303
 Rotational               0.889              2.981             32.916
 Vibrational            138.099             49.460             42.045
 Vibration     1          0.594              1.982              5.382
 Vibration     2          0.596              1.975              4.575
 Vibration     3          0.606              1.943              3.314
 Vibration     4          0.610              1.930              3.047
 Vibration     5          0.622              1.891              2.542
 Vibration     6          0.627              1.874              2.384
 Vibration     7          0.637              1.843              2.155
 Vibration     8          0.668              1.747              1.666
 Vibration     9          0.678              1.717              1.556
 Vibration    10          0.689              1.683              1.445
 Vibration    11          0.712              1.618              1.267
 Vibration    12          0.719              1.598              1.218
 Vibration    13          0.749              1.515              1.042
 Vibration    14          0.761              1.484              0.987
 Vibration    15          0.782              1.429              0.896
 Vibration    16          0.797              1.391              0.839
 Vibration    17          0.837              1.292              0.707
 Vibration    18          0.844              1.275              0.687
 Vibration    19          0.855              1.251              0.660
 Vibration    20          0.925              1.098              0.506
 Vibration    21          0.948              1.052              0.466

 Optimization completed.
    -- Stationary point found.
 Normal termination of Gaussian 16 at Sat Feb 10 18:12:09 2024.
