 Q-Chem 5.4, Q-Chem, Inc., Pleasanton, CA (2021)
 Q-Chem 5.4.0 for Intel X86 EM64T Linux

User input:
--------------------------------------------------------------
$molecule
-1 2
C                 -4.3943220000     -0.3390470000      0.2155570000
C                 -2.9145220000     -0.6248850000      0.2442970000
C                 -2.4390300000     -1.9379030000      0.4073310000
C                 -1.0890080000     -2.2157380000      0.4654000000
C                 -0.1402930000     -1.1824390000      0.3439860000
C                  1.2796140000     -1.5461000000      0.3994430000
O                  1.6535350000     -2.7329460000      0.5724950000
C                  2.2373160000     -0.4553740000      0.2378070000
C                  3.6218350000     -0.7311190000      0.2795080000
C                  4.5556210000      0.2731380000      0.1223810000
C                  4.1279080000      1.6038160000     -0.0854120000
C                  2.7793530000      1.8953980000     -0.1303810000
C                  1.8052910000      0.8837500000      0.0297620000
C                  0.3898040000      1.2441180000     -0.0227450000
O                  0.0556970000      2.4537070000     -0.2322850000
C                 -0.5781100000      0.1678970000      0.1618160000
C                 -1.9925520000      0.4277790000      0.1321870000
N                 -2.4530830000      1.7327160000      0.0394460000
H                 -4.7205490000      0.0966590000     -0.7406500000
H                 -4.6871370000      0.3700110000      1.0008970000
H                 -4.9682280000     -1.2575540000      0.3615100000
H                 -3.1614460000     -2.7458510000      0.4975680000
H                 -0.7191820000     -3.2242830000      0.6002990000
H                  3.9180470000     -1.7616750000      0.4384560000
H                  5.6165590000      0.0431160000      0.1575930000
H                  4.8606690000      2.3960320000     -0.2088500000
H                  2.4249470000      2.9071350000     -0.2881470000
H                 -3.3575690000      1.8646690000     -0.3846740000
H                 -1.7111640000      2.3949740000     -0.2031650000
$end

$rem
BASIS  =  6-311++G(d,p)
GUI  =  2
JOB_TYPE  =  SP
METHOD  =  B3LYP
SCF_CONVERGENCE  = 8
SOLVENT_METHOD = sm12
$end

$smx
solvent dimethylformamide
charges CM5
$end

--------------------------------------------------------------

             Standard Nuclear Orientation (Angstroms)
    I     Atom           X                Y                Z
 ----------------------------------------------------------------
    1      C      -4.3943220000    -0.3390470000     0.2155570000
    2      C      -2.9145220000    -0.6248850000     0.2442970000
    3      C      -2.4390300000    -1.9379030000     0.4073310000
    4      C      -1.0890080000    -2.2157380000     0.4654000000
    5      C      -0.1402930000    -1.1824390000     0.3439860000
    6      C       1.2796140000    -1.5461000000     0.3994430000
    7      O       1.6535350000    -2.7329460000     0.5724950000
    8      C       2.2373160000    -0.4553740000     0.2378070000
    9      C       3.6218350000    -0.7311190000     0.2795080000
   10      C       4.5556210000     0.2731380000     0.1223810000
   11      C       4.1279080000     1.6038160000    -0.0854120000
   12      C       2.7793530000     1.8953980000    -0.1303810000
   13      C       1.8052910000     0.8837500000     0.0297620000
   14      C       0.3898040000     1.2441180000    -0.0227450000
   15      O       0.0556970000     2.4537070000    -0.2322850000
   16      C      -0.5781100000     0.1678970000     0.1618160000
   17      C      -1.9925520000     0.4277790000     0.1321870000
   18      N      -2.4530830000     1.7327160000     0.0394460000
   19      H      -4.7205490000     0.0966590000    -0.7406500000
   20      H      -4.6871370000     0.3700110000     1.0008970000
   21      H      -4.9682280000    -1.2575540000     0.3615100000
   22      H      -3.1614460000    -2.7458510000     0.4975680000
   23      H      -0.7191820000    -3.2242830000     0.6002990000
   24      H       3.9180470000    -1.7616750000     0.4384560000
   25      H       5.6165590000     0.0431160000     0.1575930000
   26      H       4.8606690000     2.3960320000    -0.2088500000
   27      H       2.4249470000     2.9071350000    -0.2881470000
   28      H      -3.3575690000     1.8646690000    -0.3846740000
   29      H      -1.7111640000     2.3949740000    -0.2031650000
 ----------------------------------------------------------------

   18    -783.7207044233      5.06e-09  Convergence criterion met
 Total energy in the final basis set =     -783.8112495132

                    Orbital Energies (a.u.)
 --------------------------------------------------------------

 Alpha MOs
 -- Occupied --
-19.0814 -19.0751 -14.3108 -10.2313 -10.2246 -10.2198 -10.1818 -10.1812
-10.1795 -10.1790 -10.1783 -10.1781 -10.1779 -10.1775 -10.1766 -10.1760
-10.1734 -10.1645  -1.0069  -1.0010  -0.9193  -0.8641  -0.8436  -0.7971
 -0.7621  -0.7573  -0.7363  -0.7005  -0.6647  -0.6374  -0.6193  -0.5883
 -0.5650  -0.5508  -0.5248  -0.5054  -0.4825  -0.4759  -0.4584  -0.4491
 -0.4441  -0.4339  -0.4312  -0.4224  -0.4188  -0.4095  -0.4008  -0.3859
 -0.3833  -0.3773  -0.3719  -0.3589  -0.3509  -0.3446  -0.3407  -0.3138
 -0.2710  -0.2633  -0.2519  -0.2493  -0.2385  -0.2159  -0.1426

 Beta MOs
 -- Occupied --
-19.0760 -19.0695 -14.3106 -10.2295 -10.2232 -10.2198 -10.1812 -10.1807
-10.1794 -10.1783 -10.1781 -10.1778 -10.1773 -10.1766 -10.1763 -10.1752
-10.1735 -10.1641  -0.9976  -0.9912  -0.9184  -0.8618  -0.8422  -0.7937
 -0.7601  -0.7553  -0.7345  -0.6982  -0.6587  -0.6356  -0.6173  -0.5874
 -0.5628  -0.5491  -0.5232  -0.5044  -0.4808  -0.4731  -0.4577  -0.4479
 -0.4430  -0.4308  -0.4292  -0.4210  -0.4101  -0.4040  -0.3987  -0.3851
 -0.3762  -0.3716  -0.3600  -0.3579  -0.3496  -0.3403  -0.3328  -0.3077
 -0.2565  -0.2511  -0.2463  -0.2444  -0.2333  -0.2081

          Ground-State Mulliken Net Atomic Charges

     Atom                 Charge (a.u.)    Spin (a.u.)
  --------------------------------------------------------
      1 C                     1.942290      -0.001259
      2 C                     1.698159       0.067663
      3 C                    -0.736116       0.019637
      4 C                    -0.672254       0.053841
      5 C                    -0.746392       0.042747
      6 C                    -2.486317       0.073466
      7 O                    -0.300174       0.213343
      8 C                    -1.150343       0.044309
      9 C                    -0.006708       0.028307
     10 C                     0.975560       0.040666
     11 C                     0.942907       0.041681
     12 C                     0.236361       0.028135
     13 C                    -0.853137       0.034064
     14 C                    -1.609009       0.092373
     15 O                    -0.272739       0.199445
     16 C                    -0.873238       0.007313
     17 C                     0.222003       0.015868
     18 N                    -0.207498       0.009939
     19 H                     0.266481       0.003364
     20 H                     0.247860       0.003273
     21 H                     0.323386       0.000169
     22 H                     0.196899      -0.002466
     23 H                     0.147278      -0.003824
     24 H                     0.158467      -0.001585
     25 H                     0.359079      -0.003082
     26 H                     0.362803      -0.003355
     27 H                     0.179625      -0.000821
     28 H                     0.345248      -0.000854
     29 H                     0.309520      -0.002358
  --------------------------------------------------------
  Sum of atomic charges =    -1.000000

                    Cartesian Multipole Moments
 -----------------------------------------------------------------
    Charge (ESU x 10^10)
                -4.8032
    Dipole Moment (Debye)
         X      -5.1224      Y       2.0503      Z      -1.7920
       Tot       5.8012
    Quadrupole Moments (Debye-Ang)
        XX    -112.5250     XY       6.8611     YY    -135.8264
        XZ       0.6915     YZ       1.9950     ZZ    -114.5682

 Total job time:  877.07s(wall), 6538.30s(cpu)
        *  Thank you very much for using Q-Chem.  Have a nice day.  *
