 Q-Chem 5.4, Q-Chem, Inc., Pleasanton, CA (2021)
 Q-Chem 5.4.0 for Intel X86 EM64T Linux

User input:
--------------------------------------------------------------
$molecule
-2 1
C                  1.3350070000      1.0093560000     -2.7794220000
C                 -0.0613510000      1.3655750000     -2.9252910000
C                 -1.0596340000      0.9642850000     -2.0679510000
C                 -0.7891010000      0.1035750000     -0.9151040000
C                  0.5591110000     -0.2843460000     -0.7854230000
O                  2.2152360000      1.5314470000     -3.5404450000
O                 -1.7544120000     -0.2530930000     -0.1293010000
H                 -0.2880100000      2.0309090000     -3.7591710000
C                  1.6073800000      0.0824230000     -1.6839990000
C                  2.9362730000     -0.4290630000     -1.4059890000
C                  3.9989360000     -0.5399400000     -2.4840130000
C                  5.3470740000     -0.4768200000     -2.1018010000
C                  3.7120460000     -0.8701240000     -3.8164360000
C                  6.3748040000     -0.7135670000     -3.0160200000
C                  6.0749000000     -1.0517450000     -4.3353820000
C                  4.7322960000     -1.1356270000     -4.7253540000
O                  3.2788450000     -0.8873110000     -0.2891790000
H                  5.5675470000     -0.2549640000     -1.0637530000
H                  2.6770940000     -0.9109200000     -4.1295240000
H                  7.4130610000     -0.6492770000     -2.6951790000
H                  6.8718030000     -1.2562130000     -5.0472600000
H                  4.4825500000     -1.3980770000     -5.7503500000
C                 -2.4878280000      1.3951810000     -2.2770680000
H                  0.8168850000     -0.9409450000      0.0392810000
H                 -2.5894940000      2.0242310000     -3.1697070000
H                 -2.8603400000      1.9439900000     -1.4028610000
H                 -3.1450260000      0.5213290000     -2.3708090000
$end
$rem
MAX_SCF_CYCLES=200
BASIS  =  6-311++G(d,p)
GUI  =  2
JOB_TYPE  =  SP
METHOD  =  B3LYP
SOLVENT_METHOD = COSMO
$end
$solvent
dielectric 37.219
opticaldielectric 1.43
$end

--------------------------------------------------------------

             Standard Nuclear Orientation (Angstroms)
    I     Atom           X                Y                Z
 ----------------------------------------------------------------
    1      C      -0.7697450600    -0.9265964813    -0.5398429925
    2      C      -2.1231653143    -1.4249279904    -0.4060344441
    3      C      -3.2015907224    -0.6557364189    -0.0345812798
    4      C      -3.0638142370     0.7664141814     0.2841212834
    5      C      -1.7448874300     1.2542786110     0.1981222299
    6      O       0.1469634541    -1.6739200353    -1.0170128963
    7      O      -4.1020368718     1.4588938784     0.6292145659
    8      H      -2.2610398395    -2.4750758364    -0.6659952198
    9      C      -0.6013790882     0.4690423382    -0.1433728531
   10      C       0.6869655148     1.1359147149    -0.1610790892
   11      C       1.9913256735     0.3729989067    -0.0186496293
   12      C       3.1495687049     0.9175179715    -0.5926864597
   13      C       2.1359352614    -0.7586338636     0.7969322104
   14      C       4.4051056446     0.3459970730    -0.3804004954
   15      C       4.5357509364    -0.7728366223     0.4418925339
   16      C       3.3891154176    -1.3155432714     1.0355223273
   17      O       0.8170659939     2.3828868192    -0.2134796354
   18      H       3.0415132253     1.8121984894    -1.1953827871
   19      H       1.2502449752    -1.1974683436     1.2371492793
   20      H       5.2869446002     0.7834166745    -0.8452379917
   21      H       5.5144793769    -1.2107057590     0.6262647120
   22      H       3.4747628723    -2.1876075282     1.6789804165
   23      C      -4.5843793694    -1.2454032373     0.0620002153
   24      H      -1.5771516402     2.2978459824     0.4441673793
   25      H      -4.5815630877    -2.3145345063    -0.1825292526
   26      H      -5.2778416586    -0.7222945446    -0.6085680040
   27      H      -4.9951250246    -1.1035753947     1.0697138521
 ----------------------------------------------------------------

   38    -765.3710637646      8.99e-06  Convergence criterion met
 Total energy in the final basis set =     -765.3710637646
    6    -765.6542040107      4.98e-06  Convergence criterion met
 Total energy in the final basis set =     -765.6542040107

                    Orbital Energies (a.u.)
 --------------------------------------------------------------

 Alpha MOs
 -- Occupied --
-19.0755 -19.0365 -19.0238 -10.2282 -10.1961 -10.1760 -10.1709 -10.1696
-10.1675 -10.1664 -10.1657 -10.1651 -10.1523 -10.1448 -10.1361 -10.1318
-10.1209  -1.0002  -0.9581  -0.9377  -0.8488  -0.7938  -0.7537  -0.7394
 -0.7363  -0.6750  -0.6586  -0.6114  -0.5968  -0.5670  -0.5508  -0.5241
 -0.4879  -0.4569  -0.4510  -0.4394  -0.4283  -0.4157  -0.4126  -0.4072
 -0.4004  -0.3899  -0.3802  -0.3701  -0.3661  -0.3604  -0.3500  -0.3412
 -0.3367  -0.3291  -0.3211  -0.3199  -0.2550  -0.2522  -0.2357  -0.2331
 -0.2202  -0.2068  -0.2022  -0.1322

          Ground-State Mulliken Net Atomic Charges

     Atom                 Charge (a.u.)
  ----------------------------------------
      1 C                    -1.057539
      2 C                    -0.587679
      3 C                     0.760827
      4 C                    -0.461307
      5 C                    -0.067242
      6 O                    -0.580716
      7 O                    -0.751396
      8 H                     0.150304
      9 C                     1.312671
     10 C                    -0.923038
     11 C                     1.246741
     12 C                     0.195529
     13 C                    -0.869392
     14 C                    -0.407183
     15 C                    -0.386659
     16 C                    -0.325724
     17 O                    -0.443216
     18 H                     0.215552
     19 H                     0.182977
     20 H                     0.204073
     21 H                     0.192817
     22 H                     0.209688
     23 C                    -0.434988
     24 H                     0.158362
     25 H                     0.143379
     26 H                     0.162785
     27 H                     0.160372
  ----------------------------------------
  Sum of atomic charges =    -2.000000

                    Cartesian Multipole Moments
 -----------------------------------------------------------------
    Charge (ESU x 10^10)
                -9.6064
    Dipole Moment (Debye)
         X      13.7964      Y      -6.8099      Z       1.3657
       Tot      15.4461
    Quadrupole Moments (Debye-Ang)
        XX    -169.9414     XY      21.2092     YY    -139.4430
        XZ      10.2077     YZ     -12.2159     ZZ    -112.8068

 Total job time:  134.25s(wall), 1046.64s(cpu)
        *  Thank you very much for using Q-Chem.  Have a nice day.  *
