 Q-Chem 5.4, Q-Chem, Inc., Pleasanton, CA (2021)
 Q-Chem 5.4.0 for Intel X86 EM64T Linux

User input:
--------------------------------------------------------------
$molecule
0 1
C                 -1.6215830000     -1.4055470000     -0.1355960000
C                 -0.3198500000     -0.6560130000     -0.0929520000
C                 -0.2514980000      0.6778720000      0.1360370000
C                 -1.4715330000      1.5243050000      0.3665490000
C                  1.0723840000      1.3731980000      0.1682030000
O                  1.1588650000      2.5743850000      0.3735070000
C                  2.2989730000      0.5705160000     -0.0562430000
C                  2.2316150000     -0.7444910000     -0.2821330000
C                  0.9275850000     -1.4500260000     -0.3172420000
O                  0.8908760000     -2.6531770000     -0.5262370000
H                 -1.4474190000     -2.4622540000     -0.3307880000
H                 -2.2764890000     -1.0078780000     -0.9174810000
H                 -2.1605860000     -1.3077090000      0.8121100000
H                 -2.0328380000      1.1725490000      1.2380840000
H                 -2.1498620000      1.4744360000     -0.4911360000
H                 -1.1903060000      2.5633560000      0.5291030000
H                  3.2343720000      1.1180310000     -0.0239180000
H                  3.1072940000     -1.3615530000     -0.4498670000
$end

$rem
BASIS  =  6-311++G(d,p)
GUI  =  2
JOB_TYPE  =  SP
METHOD  =  B3LYP
SCF_CONVERGENCE  = 8
SOLVENT_METHOD = sm12
$end

$smx
solvent dimethylformamide
charges CM5
$end

--------------------------------------------------------------

             Standard Nuclear Orientation (Angstroms)
    I     Atom           X                Y                Z
 ----------------------------------------------------------------
    1      C      -1.6215830000    -1.4055470000    -0.1355960000
    2      C      -0.3198500000    -0.6560130000    -0.0929520000
    3      C      -0.2514980000     0.6778720000     0.1360370000
    4      C      -1.4715330000     1.5243050000     0.3665490000
    5      C       1.0723840000     1.3731980000     0.1682030000
    6      O       1.1588650000     2.5743850000     0.3735070000
    7      C       2.2989730000     0.5705160000    -0.0562430000
    8      C       2.2316150000    -0.7444910000    -0.2821330000
    9      C       0.9275850000    -1.4500260000    -0.3172420000
   10      O       0.8908760000    -2.6531770000    -0.5262370000
   11      H      -1.4474190000    -2.4622540000    -0.3307880000
   12      H      -2.2764890000    -1.0078780000    -0.9174810000
   13      H      -2.1605860000    -1.3077090000     0.8121100000
   14      H      -2.0328380000     1.1725490000     1.2380840000
   15      H      -2.1498620000     1.4744360000    -0.4911360000
   16      H      -1.1903060000     2.5633560000     0.5291030000
   17      H       3.2343720000     1.1180310000    -0.0239180000
   18      H       3.1072940000    -1.3615530000    -0.4498670000
 ----------------------------------------------------------------

   13    -460.2213332234      9.87e-09  Convergence criterion met
 Total energy in the final basis set =     -460.2351316190

                    Orbital Energies (a.u.)
 --------------------------------------------------------------

 Alpha MOs
 -- Occupied --
-19.1357 -19.1357 -10.2802 -10.2801 -10.2106 -10.2098 -10.2071 -10.2062
-10.1707 -10.1707  -1.0671  -1.0652  -0.8649  -0.8121  -0.7477  -0.6924
 -0.6878  -0.6016  -0.5870  -0.5297  -0.4992  -0.4702  -0.4619  -0.4449
 -0.4332  -0.4233  -0.4208  -0.4175  -0.4085  -0.3971  -0.3815  -0.3742
 -0.3073  -0.2881  -0.2762  -0.2732

          Ground-State Mulliken Net Atomic Charges

     Atom                 Charge (a.u.)
  ----------------------------------------
      1 C                    -0.237192
      2 C                     0.466941
      3 C                     0.465840
      4 C                    -0.237888
      5 C                    -1.165210
      6 O                    -0.332469
      7 C                     0.379357
      8 C                     0.376416
      9 C                    -1.165487
     10 O                    -0.332768
     11 H                     0.156896
     12 H                     0.212479
     13 H                     0.212438
     14 H                     0.212544
     15 H                     0.212403
     16 H                     0.157103
     17 H                     0.309444
     18 H                     0.309154
  ----------------------------------------
  Sum of atomic charges =     0.000000

                    Cartesian Multipole Moments
 -----------------------------------------------------------------
    Charge (ESU x 10^10)
                -0.0000
    Dipole Moment (Debye)
         X      -1.0682      Y       0.0425      Z       0.0800
       Tot       1.0720
    Quadrupole Moments (Debye-Ang)
        XX     -49.7125     XY      -1.2779     YY     -76.7922
        XZ      -0.8180     YZ      -3.1317     ZZ     -58.9693

 Total job time:  160.00s(wall), 1032.40s(cpu)
        *  Thank you very much for using Q-Chem.  Have a nice day.  *
