 Q-Chem 5.4, Q-Chem, Inc., Pleasanton, CA (2021)
 Q-Chem 5.4.0 for Intel X86 EM64T Linux

User input:
--------------------------------------------------------------
$molecule
-2 1
O                 -0.1802510000     -2.5566180000     -0.0677100000
C                 -0.1029380000     -1.2877360000     -0.1695800000
C                 -1.3009190000     -0.4655310000     -0.0176480000
C                 -2.5154350000     -1.0890800000      0.3940980000
C                 -3.6859880000     -0.3685690000      0.5832290000
C                 -3.7077860000      1.0223240000      0.4204470000
C                 -2.5135250000      1.6720150000      0.0628540000
C                 -1.3510570000      0.9467960000     -0.1738900000
S                  0.0497090000      1.8302400000     -0.8358350000
C                  1.4137840000      0.7583830000     -0.4221090000
C                  2.6866280000      1.3177320000     -0.4038750000
C                  3.8268990000      0.5090190000     -0.2556430000
C                  3.6473580000     -0.8681140000     -0.0744950000
C                  2.3756920000     -1.4222510000     -0.0443780000
C                  1.2025820000     -0.6361250000     -0.2423080000
H                 -2.4802930000     -2.1623190000      0.5393820000
H                 -4.6002470000     -0.8887110000      0.8655030000
H                 -4.6238560000      1.5906800000      0.5616600000
H                 -2.5018570000      2.7521440000     -0.0618220000
H                  2.7984570000      2.3910360000     -0.5375920000
H                  4.8214970000      0.9471940000     -0.2859410000
H                  4.5187610000     -1.5098680000      0.0476010000
H                  2.2227820000     -2.4826410000      0.1180540000
$end
$rem
MAX_SCF_CYCLES=200
BASIS  =  6-311++G(d,p)
GUI  =  2
JOB_TYPE  =  SP
METHOD  =  B3LYP
SOLVENT_METHOD = PCM
$end
$pcm
theory = CPCM
$end
$solvent
dielectric 37.219
opticaldielectric 1.43
$end

--------------------------------------------------------------

             Standard Nuclear Orientation (Angstroms)
    I     Atom           X                Y                Z
 ----------------------------------------------------------------
    1      O      -0.1802510000    -2.5566180000    -0.0677100000
    2      C      -0.1029380000    -1.2877360000    -0.1695800000
    3      C      -1.3009190000    -0.4655310000    -0.0176480000
    4      C      -2.5154350000    -1.0890800000     0.3940980000
    5      C      -3.6859880000    -0.3685690000     0.5832290000
    6      C      -3.7077860000     1.0223240000     0.4204470000
    7      C      -2.5135250000     1.6720150000     0.0628540000
    8      C      -1.3510570000     0.9467960000    -0.1738900000
    9      S       0.0497090000     1.8302400000    -0.8358350000
   10      C       1.4137840000     0.7583830000    -0.4221090000
   11      C       2.6866280000     1.3177320000    -0.4038750000
   12      C       3.8268990000     0.5090190000    -0.2556430000
   13      C       3.6473580000    -0.8681140000    -0.0744950000
   14      C       2.3756920000    -1.4222510000    -0.0443780000
   15      C       1.2025820000    -0.6361250000    -0.2423080000
   16      H      -2.4802930000    -2.1623190000     0.5393820000
   17      H      -4.6002470000    -0.8887110000     0.8655030000
   18      H      -4.6238560000     1.5906800000     0.5616600000
   19      H      -2.5018570000     2.7521440000    -0.0618220000
   20      H       2.7984570000     2.3910360000    -0.5375920000
   21      H       4.8214970000     0.9471940000    -0.2859410000
   22      H       4.5187610000    -1.5098680000     0.0476010000
   23      H       2.2227820000    -2.4826410000     0.1180540000
 ----------------------------------------------------------------

   10    -973.9767446549      3.70e-06  Convergence criterion met
 Total energy in the final basis set =     -973.9767446549

                    Orbital Energies (a.u.)
 --------------------------------------------------------------

 Alpha MOs
 -- Occupied --
-88.8324 -19.0068 -10.1723 -10.1723 -10.1511 -10.1452 -10.1452 -10.1445
-10.1445 -10.1381 -10.1381 -10.1307 -10.1306 -10.1263 -10.1262  -7.9189
 -5.8823  -5.8790  -5.8734  -0.9313  -0.8388  -0.8199  -0.7681  -0.7227
 -0.7183  -0.7078  -0.6670  -0.6080  -0.5789  -0.5617  -0.5470  -0.5086
 -0.4914  -0.4486  -0.4294  -0.4274  -0.4231  -0.3993  -0.3921  -0.3761
 -0.3760  -0.3612  -0.3535  -0.3397  -0.3297  -0.3209  -0.3067  -0.3016
 -0.2937  -0.2764  -0.2343  -0.2201  -0.2161  -0.1911  -0.1883  -0.0742

          Ground-State Mulliken Net Atomic Charges

     Atom                 Charge (a.u.)
  ----------------------------------------
      1 O                    -0.728111
      2 C                    -0.915977
      3 C                     1.540459
      4 C                    -0.145932
      5 C                    -0.523807
      6 C                    -0.392158
      7 C                    -0.342561
      8 C                    -0.472141
      9 S                    -0.916251
     10 C                    -0.476270
     11 C                    -0.330487
     12 C                    -0.389999
     13 C                    -0.527465
     14 C                    -0.129556
     15 C                     1.521819
     16 H                     0.133135
     17 H                     0.164748
     18 H                     0.152260
     19 H                     0.164013
     20 H                     0.164012
     21 H                     0.152193
     22 H                     0.164555
     23 H                     0.133523
  ----------------------------------------
  Sum of atomic charges =    -2.000000

                    Cartesian Multipole Moments
 -----------------------------------------------------------------
    Charge (ESU x 10^10)
                -9.6064
    Dipole Moment (Debye)
         X       0.6757      Y       8.0721      Z       1.4217
       Tot       8.2241
    Quadrupole Moments (Debye-Ang)
        XX    -137.6970     XY       0.1653     YY    -135.2771
        XZ       2.1749     YZ      -0.1733     ZZ    -113.5030

 Total job time:  58.37s(wall), 274.76s(cpu)
        *  Thank you very much for using Q-Chem.  Have a nice day.  *
