 Q-Chem 5.4, Q-Chem, Inc., Pleasanton, CA (2021)
 Q-Chem 5.4.0 for Intel X86 EM64T Linux

User input:
--------------------------------------------------------------
$molecule
0 1
C                  4.9040900000     -1.2250550000     -0.0226950000
C                  3.5337900000     -1.0406420000     -0.6000080000
O                  3.2534540000     -0.6938800000     -1.7112030000
O                  2.5746560000     -1.3467540000      0.3505380000
C                  1.2523370000     -1.0581010000      0.0758220000
C                  0.4226530000     -2.1454920000     -0.1779180000
C                 -0.9295120000     -1.9515980000     -0.3929180000
C                 -1.4657690000     -0.6686250000     -0.3538240000
O                 -2.8098370000     -0.5563930000     -0.6511240000
C                 -3.6958050000     -0.2686000000      0.3730960000
C                 -5.0525300000      0.0255550000     -0.1906900000
O                 -3.3741290000     -0.2779200000      1.5264050000
C                 -0.6524990000      0.4461160000     -0.0993340000
C                 -1.2217680000      1.8309910000     -0.0759580000
O                 -2.4024060000      2.0749570000     -0.2691220000
C                 -0.2966400000      2.9507160000      0.2014450000
C                  1.0031770000      2.7600100000      0.4426410000
C                  1.6237950000      1.4181430000      0.4146910000
O                  2.8221950000      1.3176620000      0.6256920000
C                  0.7383820000      0.2467720000      0.1209590000
H                  5.6408110000     -1.2157570000     -0.8232470000
H                  5.0939720000     -0.3954520000      0.6628680000
H                  4.9643710000     -2.1534230000      0.5471700000
H                  0.8580420000     -3.1366170000     -0.2005220000
H                 -1.5906060000     -2.7847480000     -0.5959380000
H                 -5.3156370000     -0.6942480000     -0.9671510000
H                 -5.0181960000      1.0175700000     -0.6478940000
H                 -5.7893990000      0.0155960000      0.6097170000
H                 -0.7548880000      3.9334170000      0.2081750000
H                  1.6838970000      3.5758000000      0.6590690000
$end
$rem
MAX_SCF_CYCLES=200
BASIS  =  6-311++G(d,p)
GUI  =  2
JOB_TYPE  =  SP
METHOD  =  B3LYP
SOLVENT_METHOD = PCM
$end
$pcm
theory = CPCM
$end
$solvent
dielectric 37.219
opticaldielectric 1.43
$end

--------------------------------------------------------------

             Standard Nuclear Orientation (Angstroms)
    I     Atom           X                Y                Z
 ----------------------------------------------------------------
    1      C       4.9040900000    -1.2250550000    -0.0226950000
    2      C       3.5337900000    -1.0406420000    -0.6000080000
    3      O       3.2534540000    -0.6938800000    -1.7112030000
    4      O       2.5746560000    -1.3467540000     0.3505380000
    5      C       1.2523370000    -1.0581010000     0.0758220000
    6      C       0.4226530000    -2.1454920000    -0.1779180000
    7      C      -0.9295120000    -1.9515980000    -0.3929180000
    8      C      -1.4657690000    -0.6686250000    -0.3538240000
    9      O      -2.8098370000    -0.5563930000    -0.6511240000
   10      C      -3.6958050000    -0.2686000000     0.3730960000
   11      C      -5.0525300000     0.0255550000    -0.1906900000
   12      O      -3.3741290000    -0.2779200000     1.5264050000
   13      C      -0.6524990000     0.4461160000    -0.0993340000
   14      C      -1.2217680000     1.8309910000    -0.0759580000
   15      O      -2.4024060000     2.0749570000    -0.2691220000
   16      C      -0.2966400000     2.9507160000     0.2014450000
   17      C       1.0031770000     2.7600100000     0.4426410000
   18      C       1.6237950000     1.4181430000     0.4146910000
   19      O       2.8221950000     1.3176620000     0.6256920000
   20      C       0.7383820000     0.2467720000     0.1209590000
   21      H       5.6408110000    -1.2157570000    -0.8232470000
   22      H       5.0939720000    -0.3954520000     0.6628680000
   23      H       4.9643710000    -2.1534230000     0.5471700000
   24      H       0.8580420000    -3.1366170000    -0.2005220000
   25      H      -1.5906060000    -2.7847480000    -0.5959380000
   26      H      -5.3156370000    -0.6942480000    -0.9671510000
   27      H      -5.0181960000     1.0175700000    -0.6478940000
   28      H      -5.7893990000     0.0155960000     0.6097170000
   29      H      -0.7548880000     3.9334170000     0.2081750000
   30      H       1.6838970000     3.5758000000     0.6590690000
 ----------------------------------------------------------------

    9    -991.1574105203      4.79e-06  Convergence criterion met
 Total energy in the final basis set =     -991.1574105203

                    Orbital Energies (a.u.)
 --------------------------------------------------------------

 Alpha MOs
 -- Occupied --
-19.1914 -19.1914 -19.1427 -19.1427 -19.1374 -19.1374 -10.3278 -10.3278
-10.2946 -10.2946 -10.2734 -10.2734 -10.2287 -10.2282 -10.2137 -10.2129
-10.2099 -10.2093 -10.1815 -10.1815  -1.1362  -1.1357  -1.0773  -1.0756
 -1.0560  -1.0555  -0.9031  -0.8490  -0.8087  -0.7928  -0.7714  -0.7477
 -0.7122  -0.6781  -0.6666  -0.6415  -0.6194  -0.5594  -0.5518  -0.5466
 -0.5212  -0.5134  -0.5075  -0.5059  -0.5033  -0.4956  -0.4881  -0.4654
 -0.4651  -0.4597  -0.4588  -0.4367  -0.4351  -0.4298  -0.4277  -0.4203
 -0.4119  -0.4086  -0.3994  -0.3928  -0.3925  -0.3793  -0.3476  -0.3445
 -0.3134  -0.3092  -0.3081  -0.2943  -0.2941  -0.2808  -0.2745

          Ground-State Mulliken Net Atomic Charges

     Atom                 Charge (a.u.)
  ----------------------------------------
      1 C                    -0.517636
      2 C                     0.050854
      3 O                    -0.264767
      4 O                    -0.001341
      5 C                    -0.322705
      6 C                     0.059626
      7 C                     0.059250
      8 C                    -0.322927
      9 O                    -0.001343
     10 C                     0.052159
     11 C                    -0.518545
     12 O                    -0.264991
     13 C                     0.427798
     14 C                    -0.180508
     15 O                    -0.279228
     16 C                    -0.074554
     17 C                    -0.075696
     18 C                    -0.179312
     19 O                    -0.278555
     20 C                     0.423638
     21 H                     0.183668
     22 H                     0.210085
     23 H                     0.195534
     24 H                     0.258281
     25 H                     0.258548
     26 H                     0.195483
     27 H                     0.210172
     28 H                     0.183592
     29 H                     0.256724
     30 H                     0.256695
  ----------------------------------------
  Sum of atomic charges =     0.000000

                    Cartesian Multipole Moments
 -----------------------------------------------------------------
    Charge (ESU x 10^10)
                -0.0000
    Dipole Moment (Debye)
         X      -0.2404      Y      -1.9547      Z      -0.2426
       Tot       1.9843
    Quadrupole Moments (Debye-Ang)
        XX    -104.5384     XY      -0.2434     YY     -94.1724
        XZ      12.5338     YZ       2.6149     ZZ    -126.9360

 Total job time:  67.14s(wall), 442.25s(cpu)
        *  Thank you very much for using Q-Chem.  Have a nice day.  *
