 Q-Chem 5.4, Q-Chem, Inc., Pleasanton, CA (2021)
 Q-Chem 5.4.0 for Intel X86 EM64T Linux

User input:
--------------------------------------------------------------
$molecule
0 1
C                 -0.5325920000      2.9616560000      0.7127610000
C                 -1.6667400000      2.6000720000     -0.0075270000
C                 -1.6377870000      1.4779850000     -0.8375920000
C                  0.6309070000      2.1962570000      0.6026220000
C                  0.6630300000      1.0678920000     -0.2317270000
C                 -0.4768590000      0.7155810000     -0.9524090000
C                  1.8352030000      2.5590860000      1.3690810000
C                  3.0356520000      1.6835730000      1.2619470000
C                  3.0690720000      0.5592330000      0.4940280000
C                  1.9133780000      0.2460090000     -0.3881690000
O                  1.9064260000      3.5272650000      2.1192620000
O                  1.9633340000     -0.6351950000     -1.2258810000
O                  4.0708070000      2.0866360000      2.0062080000
H                 -0.5296330000      3.8287730000      1.3617280000
H                 -2.5715470000      3.1909010000      0.0755880000
H                 -2.5217830000      1.1986100000     -1.3995120000
H                 -0.4351610000     -0.1531140000     -1.5974840000
H                  3.7696360000      2.8922740000      2.4697720000
S                  4.5644820000     -0.3877740000      0.4018320000
C                  3.9753550000     -2.0860150000      0.4612500000
C                  4.3295140000     -2.9662330000     -0.5606790000
C                  3.2571810000     -2.5586540000      1.5608840000
C                  3.9650010000     -4.3073290000     -0.4787440000
C                  2.8784140000     -3.8968920000      1.6194580000
C                  3.2309910000     -4.7961410000      0.6069910000
C                  2.8547100000     -6.2549230000      0.6971050000
H                  4.8683880000     -2.5985070000     -1.4252990000
H                  2.9967010000     -1.8847630000      2.3687770000
H                  4.2421420000     -4.9805910000     -1.2836980000
H                  2.3099730000     -4.2492810000      2.4744330000
H                  1.9341880000     -6.3949850000      1.2683820000
H                  3.6410170000     -6.8324780000      1.1957380000
H                  2.7088630000     -6.6904680000     -0.2941270000
$end
$rem
MAX_SCF_CYCLES=200
BASIS  =  6-311++G(d,p)
GUI  =  2
JOB_TYPE  =  SP
METHOD  =  B3LYP
SOLVENT_METHOD = COSMO
$end
$solvent
dielectric 37.219
opticaldielectric 1.43
$end

--------------------------------------------------------------

             Standard Nuclear Orientation (Angstroms)
    I     Atom           X                Y                Z
 ----------------------------------------------------------------
    1      C       4.1917690739     0.9037225165     0.5725902875
    2      C       4.3479959691     2.2687535747     0.3531982972
    3      C       3.3114508014     3.0061235210    -0.2219408977
    4      C       2.9944108317     0.2778098378     0.2172556424
    5      C       1.9507626494     1.0166561769    -0.3617799981
    6      C       2.1178289805     2.3829517511    -0.5812743331
    7      C       2.8095393781    -1.1638863246     0.4555157071
    8      C       1.4970322317    -1.7781038435     0.1103485898
    9      C       0.4575601304    -1.0672491949    -0.4084387865
   10      C       0.6639712255     0.3582749447    -0.7789584618
   11      O       3.6625941499    -1.8933983036     0.9508182948
   12      O      -0.1650329130     0.9854307439    -1.4115762203
   13      O       1.4216444514    -3.0860625692     0.3777261255
   14      H       4.9818783469     0.3098850504     1.0154708753
   15      H       5.2751386403     2.7582098330     0.6279741262
   16      H       3.4354224501     4.0692943357    -0.3938485888
   17      H       1.3069213855     2.9386405281    -1.0352901228
   18      H       2.2857145068    -3.3308893704     0.7625519526
   19      S      -1.0474709813    -1.9051022476    -0.8261193387
   20      C      -2.3185227474    -0.7618697210    -0.2674867105
   21      C      -3.2821884840    -0.3189465238    -1.1728698312
   22      C      -2.4127401779    -0.3935710579     1.0755827676
   23      C      -4.3291977771     0.4864123994    -0.7332221340
   24      C      -3.4513640452     0.4314579758     1.4979142184
   25      C      -4.4313111998     0.8796490247     0.6052344948
   26      C      -5.5789861039     1.7384196418     1.0775777907
   27      H      -3.2003796657    -0.5854297927    -2.2195165376
   28      H      -1.6791751102    -0.7512945331     1.7887350769
   29      H      -5.0694013703     0.8288532610    -1.4493734403
   30      H      -3.5066572674     0.7202207447     2.5428276843
   31      H      -5.2946473428     2.3450349553     1.9404247398
   32      H      -6.4327962962     1.1209927918     1.3780367484
   33      H      -5.9241924999     2.4107309970     0.2886914504
 ----------------------------------------------------------------

    9   -1279.1615014878      6.66e-06  Convergence criterion met
 Total energy in the final basis set =    -1279.1615014878
    5   -1279.1799791419      3.98e-06  Convergence criterion met
 Total energy in the final basis set =    -1279.1799791419

                    Orbital Energies (a.u.)
 --------------------------------------------------------------

 Alpha MOs
 -- Occupied --
-88.8715 -19.1846 -19.1523 -19.1344 -10.2974 -10.2906 -10.2778 -10.2328
-10.2130 -10.2130 -10.2125 -10.2018 -10.1996 -10.1985 -10.1978 -10.1910
-10.1850 -10.1840 -10.1790 -10.1784 -10.1653  -7.9573  -5.9212  -5.9174
 -5.9113  -1.1153  -1.0714  -1.0712  -0.8953  -0.8774  -0.8508  -0.8077
 -0.7825  -0.7793  -0.7569  -0.7396  -0.7004  -0.6768  -0.6572  -0.6318
 -0.6189  -0.6086  -0.5850  -0.5771  -0.5491  -0.5241  -0.5053  -0.4979
 -0.4815  -0.4756  -0.4742  -0.4716  -0.4602  -0.4536  -0.4499  -0.4322
 -0.4301  -0.4294  -0.4219  -0.4152  -0.4102  -0.3904  -0.3887  -0.3816
 -0.3772  -0.3725  -0.3632  -0.3500  -0.3437  -0.3092  -0.3033  -0.2901
 -0.2862  -0.2813  -0.2664  -0.2598  -0.2308

          Ground-State Mulliken Net Atomic Charges

     Atom                 Charge (a.u.)
  ----------------------------------------
      1 C                    -0.050703
      2 C                    -0.499493
      3 C                    -0.451605
      4 C                     0.644053
      5 C                     0.362701
      6 C                     0.080896
      7 C                    -0.559723
      8 C                    -0.647014
      9 C                     1.320694
     10 C                    -0.801152
     11 O                    -0.323688
     12 O                    -0.232123
     13 O                    -0.184712
     14 H                     0.216314
     15 H                     0.230503
     16 H                     0.229360
     17 H                     0.222581
     18 H                     0.321238
     19 S                    -0.184539
     20 C                     0.920487
     21 C                    -0.440069
     22 C                    -0.402989
     23 C                    -0.439700
     24 C                    -0.530943
     25 C                     0.467568
     26 C                    -0.671604
     27 H                     0.229862
     28 H                     0.229637
     29 H                     0.214353
     30 H                     0.218419
     31 H                     0.163789
     32 H                     0.185843
     33 H                     0.161758
  ----------------------------------------
  Sum of atomic charges =     0.000000

                    Cartesian Multipole Moments
 -----------------------------------------------------------------
    Charge (ESU x 10^10)
                -0.0000
    Dipole Moment (Debye)
         X       1.7316      Y       4.3301      Z       2.2036
       Tot       5.1579
    Quadrupole Moments (Debye-Ang)
        XX    -104.3992     XY       5.9801     YY    -124.6428
        XZ      -2.3600     YZ       2.3049     ZZ    -127.9974

 Total job time:  85.70s(wall), 638.64s(cpu)
        *  Thank you very much for using Q-Chem.  Have a nice day.  *
