 Q-Chem 5.4, Q-Chem, Inc., Pleasanton, CA (2021)
 Q-Chem 5.4.0 for Intel X86 EM64T Linux

User input:
--------------------------------------------------------------
$molecule
0 1
C                 -1.2775970000      2.8579960000      0.2260640000
C                 -2.6091920000      2.4264950000      0.1863820000
C                 -2.9171070000      1.0944790000     -0.0199490000
C                 -0.2353800000      1.9261160000      0.0304250000
C                 -0.5718930000      0.5671870000     -0.1923610000
C                 -1.9063220000      0.1462520000     -0.1920500000
C                  1.1989330000      2.3388320000      0.0774380000
C                  2.2221110000      1.2777170000     -0.1108080000
C                  1.9077170000      0.0051310000     -0.3727860000
C                  0.5043760000     -0.4267690000     -0.5114320000
O                  1.5692190000      3.4839650000      0.2697460000
O                  0.2416270000     -1.5510060000     -0.9055500000
O                 -0.9850730000      4.1589000000      0.4416310000
H                 -3.9532170000      0.7784180000     -0.0465200000
H                  2.6556470000     -0.7625530000     -0.5376460000
C                 -2.3442760000     -1.2817730000     -0.3773390000
O                 -2.9939540000     -1.6638950000     -1.3186950000
O                 -2.0357290000     -2.0330310000      0.6920020000
C                 -2.3521230000     -3.4349580000      0.5845570000
H                 -3.4055400000      3.1520570000      0.3238480000
H                  3.2482710000      1.6208140000     -0.0366370000
H                 -1.8034780000      4.6576110000      0.5483290000
H                 -2.0609630000     -3.8706830000      1.5375360000
H                 -1.7818750000     -3.8788280000     -0.2324520000
H                 -3.4186320000     -3.5746140000      0.4048580000
$end
$rem
MAX_SCF_CYCLES=200
BASIS  =  6-311++G(d,p)
GUI  =  2
JOB_TYPE  =  SP
METHOD  =  B3LYP
SOLVENT_METHOD = COSMO
$end
$solvent
dielectric 37.219
opticaldielectric 1.43
$end

--------------------------------------------------------------

             Standard Nuclear Orientation (Angstroms)
    I     Atom           X                Y                Z
 ----------------------------------------------------------------
    1      C       1.8730204981     1.5127739191     0.0668144318
    2      C       0.8825412094     2.4994680994    -0.0125479738
    3      C      -0.4525704874     2.1568755284    -0.1209815502
    4      C       1.5074400455     0.1503086462     0.0126799646
    5      C       0.1345712677    -0.1804231968    -0.1114586481
    6      C      -0.8457749585     0.8171515359    -0.1521164469
    7      C       2.5282214121    -0.9354759499     0.1068909688
    8      C       2.0394110430    -2.3383329040     0.0701267339
    9      C       0.7514099643    -2.6535354450    -0.0991415931
   10      C      -0.2770034765    -1.6121895036    -0.2810501157
   11      O       3.7247072895    -0.7334607686     0.2210622785
   12      O      -1.4162710090    -1.9187046018    -0.5915220970
   13      O       3.1739352577     1.8559263326     0.1862206648
   14      H      -1.2055281958     2.9338432929    -0.1801447841
   15      H       0.3998146792    -3.6778932767    -0.1538098328
   16      C      -2.3242733042     0.5489997897    -0.2388828165
   17      O      -3.0067566325     0.8699547510    -1.1798686105
   18      O      -2.7983960696     0.0343726569     0.9071741305
   19      C      -4.1945483983    -0.3231001680     0.9026178935
   20      H       1.1732980058     3.5454938858     0.0156972668
   21      H       2.8143056334    -3.0900147117     0.1737320807
   22      H       3.2513308127     2.8169890308     0.2021042084
   23      H      -4.4017705402    -0.6912204216     1.9047884670
   24      H      -4.3717394820    -1.1032151610     0.1611794388
   25      H      -4.8121304920     0.5461882922     0.6742171351
 ----------------------------------------------------------------

    9    -838.4312962886      7.07e-06  Convergence criterion met
 Total energy in the final basis set =     -838.4312962886
    5    -838.4602399605      4.58e-06  Convergence criterion met
 Total energy in the final basis set =     -838.4602399605

                    Orbital Energies (a.u.)
 --------------------------------------------------------------

 Alpha MOs
 -- Occupied --
-19.1813 -19.1778 -19.1431 -19.1361 -19.1329 -10.3255 -10.2913 -10.2887
-10.2759 -10.2254 -10.2229 -10.2183 -10.2174 -10.2119 -10.2107 -10.2104
-10.2039  -1.1263  -1.0960  -1.0770  -1.0693  -1.0423  -0.8996  -0.8457
 -0.7981  -0.7873  -0.7381  -0.7060  -0.6717  -0.6569  -0.6209  -0.5942
 -0.5658  -0.5490  -0.5326  -0.5191  -0.5021  -0.4991  -0.4958  -0.4833
 -0.4667  -0.4645  -0.4535  -0.4384  -0.4352  -0.4333  -0.4195  -0.4171
 -0.4096  -0.3986  -0.3878  -0.3712  -0.3687  -0.3239  -0.3126  -0.3070
 -0.2928  -0.2900  -0.2782  -0.2594

          Ground-State Mulliken Net Atomic Charges

     Atom                 Charge (a.u.)
  ----------------------------------------
      1 C                     0.174368
      2 C                     0.000713
      3 C                    -0.323837
      4 C                    -0.023774
      5 C                     0.707851
      6 C                     0.684391
      7 C                    -0.331641
      8 C                    -0.185677
      9 C                    -0.183748
     10 C                    -0.593853
     11 O                    -0.312136
     12 O                    -0.252525
     13 O                    -0.224113
     14 H                     0.237920
     15 H                     0.257826
     16 C                    -0.469110
     17 O                    -0.262363
     18 O                    -0.003320
     19 C                    -0.272741
     20 H                     0.223946
     21 H                     0.253357
     22 H                     0.331584
     23 H                     0.187200
     24 H                     0.196127
     25 H                     0.183553
  ----------------------------------------
  Sum of atomic charges =     0.000000

                    Cartesian Multipole Moments
 -----------------------------------------------------------------
    Charge (ESU x 10^10)
                 0.0000
    Dipole Moment (Debye)
         X       0.0345      Y       2.9873      Z       2.7263
       Tot       4.0444
    Quadrupole Moments (Debye-Ang)
        XX    -110.8552     XY       6.7459     YY     -70.1226
        XZ     -12.1638     YZ       0.7049     ZZ    -101.9927

 Total job time:  102.64s(wall), 328.77s(cpu)
        *  Thank you very much for using Q-Chem.  Have a nice day.  *
