 Gaussian 16, Revision A.03,
 Gaussian 16:  ES64L-G16RevA.03 25-Dec-2016

 ----------------------------------------------------------------------
 #P UB3LYP/6-311++G(d,p) nosym opt freq SCRF=(PCM,Solvent=n,n-DiMethylF
 ormamide)
 ----------------------------------------------------------------------

 -------
 Radical
 -------
 Symbolic Z-matrix:
 Charge = -1 Multiplicity = 2

 SCF Done:  E(UB3LYP) =  -610.828136461     A.U. after   16 cycles
 SCF Done:  E(UB3LYP) =  -610.828660832     A.U. after   15 cycles
 SCF Done:  E(UB3LYP) =  -610.828964368     A.U. after   13 cycles
 SCF Done:  E(UB3LYP) =  -610.829035151     A.U. after   14 cycles
 SCF Done:  E(UB3LYP) =  -610.829053327     A.U. after   13 cycles
 SCF Done:  E(UB3LYP) =  -610.829055356     A.U. after   13 cycles
 SCF Done:  E(UB3LYP) =  -610.829059126     A.U. after   11 cycles
 Optimization completed.
    -- Stationary point found.
 Normal termination of Gaussian 16 at Sat Feb 10 11:24:42 2024.

 ----------------------------------------------------------------------
 #P Geom=AllCheck Guess=TCheck SCRF=Check GenChk UB3LYP/6-311++G(d,p) F
 req
 ----------------------------------------------------------------------

 Structure from the checkpoint file:  "084-rad.chk"
 -------
 Radical
 -------
 Charge = -1 Multiplicity = 2

                          Input orientation:
 ---------------------------------------------------------------------
 Center     Atomic      Atomic             Coordinates (Angstroms)
 Number     Number       Type             X           Y           Z
 ---------------------------------------------------------------------
      1          6           0        2.807559   -0.351468    0.362330
      2          8           0        1.614996    0.278005    0.856707
      3          6           0        0.437546   -0.300904    0.442683
      4          6           0       -0.369860    0.372916   -0.448045
      5          8           0        0.077431    1.547178   -1.008882
      6          6           0       -0.603739    2.730242   -0.562704
      7          6           0       -1.657834   -0.163730   -0.875282
      8          8           0       -2.385512    0.441233   -1.720643
      9          6           0       -2.035038   -1.428047   -0.293461
     10          6           0       -1.232398   -2.097891    0.590724
     11          6           0        0.042553   -1.580452    1.022126
     12          8           0        0.772887   -2.183782    1.866382
     13          1           0        2.855017   -0.273495   -0.728899
     14          1           0        3.645977    0.190072    0.800415
     15          1           0        2.846455   -1.399459    0.665046
     16          1           0       -0.178982    3.561299   -1.125802
     17          1           0       -0.429829    2.889235    0.506715
     18          1           0       -1.674644    2.659090   -0.761367
     19          1           0       -2.991696   -1.840025   -0.599493
     20          1           0       -1.540889   -3.050018    1.011451
 ---------------------------------------------------------------------

 SCF Done:  E(UB3LYP) =  -610.829059126     A.U. after    1 cycles

 Alpha  occ. eigenvalues --  -19.13596 -19.13588 -19.07864 -19.07863 -10.22222
 Alpha  occ. eigenvalues --  -10.22219 -10.21726 -10.21666 -10.20896 -10.20896
 Alpha  occ. eigenvalues --  -10.16429 -10.16365  -1.05989  -1.04047  -0.99508
 Alpha  occ. eigenvalues --   -0.99268  -0.82131  -0.75137  -0.70955  -0.67203
 Alpha  occ. eigenvalues --   -0.67076  -0.58932  -0.57266  -0.51034  -0.49514
 Alpha  occ. eigenvalues --   -0.48821  -0.46838  -0.44817  -0.44543  -0.44130
 Alpha  occ. eigenvalues --   -0.42812  -0.41126  -0.39808  -0.38435  -0.38422
 Alpha  occ. eigenvalues --   -0.37111  -0.35080  -0.35065  -0.28658  -0.28399
 Alpha  occ. eigenvalues --   -0.28016  -0.24210  -0.23935  -0.23780  -0.16390
 Alpha virt. eigenvalues --   -0.00753   0.00190   0.00897   0.01239   0.02226
 Alpha virt. eigenvalues --    0.03007   0.03115   0.03387   0.03792   0.05021
 Alpha virt. eigenvalues --    0.05684   0.06501   0.07500   0.07570   0.07819

  Beta  occ. eigenvalues --  -19.13584 -19.13577 -19.07166 -19.07165 -10.22070
  Beta  occ. eigenvalues --  -10.22068 -10.21644 -10.21584 -10.20890 -10.20890
  Beta  occ. eigenvalues --  -10.16304 -10.16238  -1.05898  -1.03941  -0.98314
  Beta  occ. eigenvalues --   -0.98069  -0.81529  -0.74930  -0.70682  -0.67069
  Beta  occ. eigenvalues --   -0.66173  -0.58581  -0.56936  -0.50928  -0.49338
  Beta  occ. eigenvalues --   -0.48463  -0.46535  -0.44593  -0.44391  -0.44039
  Beta  occ. eigenvalues --   -0.42669  -0.40437  -0.38340  -0.37995  -0.37920
  Beta  occ. eigenvalues --   -0.35188  -0.34646  -0.34153  -0.28417  -0.28253
  Beta  occ. eigenvalues --   -0.24912  -0.23580  -0.23368  -0.22964
  Beta virt. eigenvalues --   -0.09116  -0.00338   0.00865   0.01034   0.01561
  Beta virt. eigenvalues --    0.02366   0.03171   0.03391   0.03836   0.04827
  Beta virt. eigenvalues --    0.05043   0.05877   0.06735   0.07559   0.07632

 Mulliken charges and spin densities:
               1          2
     1  C   -0.279497   0.001381
     2  O   -0.196789  -0.001137
     3  C    0.039675   0.077693
     4  C    0.048772   0.077720
     5  O   -0.197240  -0.001122
     6  C   -0.279904   0.001384
     7  C   -0.308151   0.079129
     8  O   -0.504880   0.250171
     9  C    0.084535   0.100196
    10  C    0.083399   0.100253
    11  C   -0.309674   0.078944
    12  O   -0.504703   0.250212
    13  H    0.151514   0.000594
    14  H    0.155305   0.000505
    15  H    0.166381  -0.000596
    16  H    0.155502   0.000524
    17  H    0.151598   0.000579
    18  H    0.166405  -0.000598
    19  H    0.188876  -0.007920
    20  H    0.188875  -0.007911
 Sum of Mulliken charges =  -1.00000   1.00000

 Dipole moment (field-independent basis, Debye):
    X=              3.0818    Y=              3.3363    Z=             -0.2830  Tot=              4.5507
 Quadrupole moment (field-independent basis, Debye-Ang):
   XX=            -83.7856   YY=            -80.5991   ZZ=            -94.8361
   XY=              4.7439   XZ=            -15.5187   YZ=             12.8978

  Exact polarizability: 191.078 -15.284 179.249  56.471 -52.781 164.336
 Approx polarizability: 205.085 -23.116 190.392  66.874 -60.694 189.255

                      1                      2                      3
                      A                      A                      A
 Frequencies --     75.6694                80.0706                93.1394
 Red. masses --      2.9946                 2.9337                 4.7941
 Frc consts  --      0.0101                 0.0111                 0.0245
 IR Inten    --     21.4905                 4.4385                 2.6563

                      4                      5                      6
                      A                      A                      A
 Frequencies --    126.5149               156.1149               160.2305
 Red. masses --      5.3937                 1.1248                 1.1260
 Frc consts  --      0.0509                 0.0162                 0.0170
 IR Inten    --     23.8796                 1.1973                 0.9358

                      7                      8                      9
                      A                      A                      A
 Frequencies --    179.8175               260.6512               325.2842
 Red. masses --      2.9881                 4.3553                 9.0412
 Frc consts  --      0.0569                 0.1743                 0.5636
 IR Inten    --      3.1080                15.1699                 2.5435

                     10                     11                     12
                      A                      A                      A
 Frequencies --    331.5741               345.7732               380.0281
 Red. masses --      7.0532                 5.2921                10.1465
 Frc consts  --      0.4569                 0.3728                 0.8634
 IR Inten    --      4.7520                 0.2568                 8.7047

                     13                     14                     15
                      A                      A                      A
 Frequencies --    406.6975               475.3613               483.5415
 Red. masses --      5.9475                11.5507                 5.1771
 Frc consts  --      0.5796                 1.5378                 0.7132
 IR Inten    --      3.5306                 1.5206                 4.7456

                     16                     17                     18
                      A                      A                      A
 Frequencies --    593.0672               632.5489               661.6942
 Red. masses --      6.2585                 3.8044                 6.3572
 Frc consts  --      1.2970                 0.8969                 1.6400
 IR Inten    --      5.9036                 1.8729                23.4597

                     19                     20                     21
                      A                      A                      A
 Frequencies --    662.1655               762.6648               787.3455
 Red. masses --      2.6475                 7.0668                 9.1660
 Frc consts  --      0.6839                 2.4218                 3.3478
 IR Inten    --     13.3898                52.1765                 2.6915

                     22                     23                     24
                      A                      A                      A
 Frequencies --    823.6383               935.6334               942.3349
 Red. masses --      2.2038                 7.4773                 1.2686
 Frc consts  --      0.8808                 3.8566                 0.6637
 IR Inten    --     77.1724                79.9255                 0.1825

                     25                     26                     27
                      A                      A                      A
 Frequencies --    978.5237              1049.9728              1076.5852
 Red. masses --      6.4105                 6.5219                 2.5366
 Frc consts  --      3.6164                 4.2362                 1.7322
 IR Inten    --      2.4722               206.1210               168.2307

                     28                     29                     30
                      A                      A                      A
 Frequencies --   1154.9138              1158.8778              1166.2415
 Red. masses --      1.4282                 1.3042                 1.7008
 Frc consts  --      1.1224                 1.0320                 1.3629
 IR Inten    --    153.0796                24.4285                95.7081

                     31                     32                     33
                      A                      A                      A
 Frequencies --   1171.1252              1215.5306              1221.8289
 Red. masses --      1.9579                 1.6843                 1.8320
 Frc consts  --      1.5822                 1.4662                 1.6114
 IR Inten    --    186.3740                21.4719               144.9909

                     34                     35                     36
                      A                      A                      A
 Frequencies --   1240.8066              1339.5758              1418.2764
 Red. masses --      4.1441                 2.3062                 4.0773
 Frc consts  --      3.7592                 2.4383                 4.8323
 IR Inten    --    165.5495                23.2089               291.4207

                     37                     38                     39
                      A                      A                      A
 Frequencies --   1449.8328              1461.5662              1474.2363
 Red. masses --      1.3477                 1.3117                 1.5721
 Frc consts  --      1.6691                 1.6509                 2.0131
 IR Inten    --      1.4660               271.0911                 0.6834

                     40                     41                     42
                      A                      A                      A
 Frequencies --   1477.6708              1478.3338              1497.1825
 Red. masses --      1.0800                 1.9479                 1.0518
 Frc consts  --      1.3895                 2.5082                 1.3891
 IR Inten    --      0.8198                18.7447                 8.1576

                     43                     44                     45
                      A                      A                      A
 Frequencies --   1497.8045              1511.1791              1533.5808
 Red. masses --      1.0517                 4.4738                 6.7039
 Frc consts  --      1.3901                 6.0195                 9.2895
 IR Inten    --     10.3441              1023.1765                48.3016

                     46                     47                     48
                      A                      A                      A
 Frequencies --   1632.9222              3012.9568              3013.7713
 Red. masses --      7.7450                 1.0353                 1.0357
 Frc consts  --     12.1676                 5.5371                 5.5423
 IR Inten    --     28.8358               147.1642                53.8325

                     49                     50                     51
                      A                      A                      A
 Frequencies --   3088.7101              3089.4180              3124.3153
 Red. masses --      1.0990                 1.0985                 1.1052
 Frc consts  --      6.1775                 6.1776                 6.3562
 IR Inten    --     55.6844                38.6926                33.9709

                     52                     53                     54
                      A                      A                      A
 Frequencies --   3124.7088              3149.8188              3168.3221
 Red. masses --      1.1052                 1.0859                 1.0953
 Frc consts  --      6.3578                 6.3479                 6.4779
 IR Inten    --     43.5911                28.7114                26.6739

 - Thermochemistry -
 -------------------
 Temperature   298.150 Kelvin.  Pressure   1.00000 Atm.
 Atom     1 has atomic number  6 and mass  12.00000

 Molecular mass:   168.04226 amu.
 Principal axes and moments of inertia in atomic units:
                           1         2         3
     Eigenvalues --  1430.079001970.989003150.71444
           X            0.64242   0.67841  -0.35644
           Y           -0.55046   0.73210   0.40127
           Z            0.53318  -0.06158   0.84376
 This molecule is an asymmetric top.
 Rotational symmetry number  1.
 Warning -- assumption of classical behavior for rotation
           may cause significant error
 Rotational temperatures (Kelvin)      0.06057     0.04394     0.02749
 Rotational constants (GHZ):           1.26199     0.91565     0.57280
 Zero-point vibrational energy     386753.6 (Joules/Mol)
                                   92.43632 (Kcal/Mol)
 Warning -- explicit consideration of  16 degrees of freedom as
           vibrations may cause significant error
 Vibrational temperatures:    108.87   115.20   134.01   182.03   224.61
          (Kelvin)            230.54   258.72   375.02   468.01   477.06
                              497.49   546.78   585.15   683.94   695.71
                              853.29   910.10   952.03   952.71  1097.30
                             1132.81  1185.03  1346.17  1355.81  1407.88
                             1510.68  1548.97  1661.66  1667.37  1677.96
                             1684.99  1748.88  1757.94  1785.24  1927.35
                             2040.58  2085.99  2102.87  2121.10  2126.04
                             2126.99  2154.11  2155.01  2174.25  2206.48
                             2349.41  4334.97  4336.14  4443.96  4444.98
                             4495.19  4495.76  4531.89  4558.51

 Zero-point correction=                           0.147307 (Hartree/Particle)
 Thermal correction to Energy=                    0.158889
 Thermal correction to Enthalpy=                  0.159833
 Thermal correction to Gibbs Free Energy=         0.108945
 Sum of electronic and zero-point Energies=           -610.681752
 Sum of electronic and thermal Energies=              -610.670170
 Sum of electronic and thermal Enthalpies=            -610.669226
 Sum of electronic and thermal Free Energies=         -610.720114

                     E (Thermal)             CV                S
                      KCal/Mol        Cal/Mol-Kelvin    Cal/Mol-Kelvin
 Total                   99.704             41.765            107.104
 Electronic               0.000              0.000              1.377
 Translational            0.889              2.981             41.265
 Rotational               0.889              2.981             30.563
 Vibrational             97.927             35.803             33.898
 Vibration     1          0.599              1.965              4.000
 Vibration     2          0.600              1.963              3.889
 Vibration     3          0.602              1.954              3.593
 Vibration     4          0.611              1.927              2.998
 Vibration     5          0.620              1.896              2.596
 Vibration     6          0.622              1.891              2.547
 Vibration     7          0.629              1.867              2.330
 Vibration     8          0.669              1.745              1.657
 Vibration     9          0.709              1.625              1.283
 Vibration    10          0.714              1.612              1.252
 Vibration    11          0.724              1.584              1.185
 Vibration    12          0.750              1.513              1.039
 Vibration    13          0.771              1.456              0.938
 Vibration    14          0.832              1.305              0.723
 Vibration    15          0.840              1.287              0.701
 Vibration    16          0.951              1.047              0.462

                           ! Non-Optimized Parameters !
 Normal termination of Gaussian 16 at Sat Feb 10 11:47:42 2024.
