 Q-Chem 5.4, Q-Chem, Inc., Pleasanton, CA (2021)
 Q-Chem 5.4.0 for Intel X86 EM64T Linux

User input:
--------------------------------------------------------------
$molecule
0 1
C                  4.9907540000     -2.6335900000      0.0698850000
C                  5.7052320000     -1.6995910000     -0.6653780000
C                  5.0685610000     -0.6749410000     -1.3677000000
C                  3.5981980000     -2.5332190000      0.1244280000
C                  2.9424430000     -1.5009570000     -0.5683670000
C                  3.6844640000     -0.5793110000     -1.3133100000
C                  2.8382390000     -3.5396560000      0.9245320000
C                  1.3502850000     -3.4132090000      0.9480940000
C                  0.6912460000     -2.3822230000      0.2565070000
C                  1.4548680000     -1.3670120000     -0.5299910000
C                  0.6095530000     -4.3486750000      1.6750610000
C                 -0.7038380000     -2.2971490000      0.2945150000
C                 -1.4427020000     -3.2238430000      1.0178020000
O                  3.4086930000     -4.4229950000      1.5375910000
O                  0.8861270000     -0.4650270000     -1.1184520000
H                  5.4859540000     -3.4437250000      0.5901150000
H                 -2.5243240000     -3.1808640000      1.0406750000
H                  3.1579320000      0.2016440000     -1.8473330000
H                  1.1241470000     -5.1512380000      2.1881560000
H                 -1.1912450000     -1.5008720000     -0.2538310000
C                 -0.7723060000     -4.2353320000      1.7077230000
S                  7.5057010000     -1.8213810000     -0.7324010000
S                 -1.7328770000     -5.4381670000      2.6518890000
O                 -0.9518770000     -6.6679870000      2.7131530000
O                 -3.0995460000     -5.3925000000      2.1414820000
N                 -1.7559150000     -4.7691720000      4.2016570000
H                 -1.2694670000     -5.3689150000      4.8603150000
H                 -2.7081370000     -4.5730760000      4.4927370000
O                  7.8563980000     -3.2195810000     -0.5128090000
O                  7.9440390000     -1.0695860000     -1.9041690000
N                  7.9930790000     -0.9515720000      0.6299200000
H                  5.6541270000      0.0206830000     -1.9554890000
H                  8.5673280000     -0.1589480000      0.3617580000
H                  8.4625960000     -1.5574430000      1.2952350000
$end
$rem
MAX_SCF_CYCLES=200
BASIS  =  6-311++G(d,p)
GUI  =  2
JOB_TYPE  =  SP
METHOD  =  B3LYP
SOLVENT_METHOD = PCM
$end
$pcm
theory = CPCM
$end
$solvent
dielectric 37.219
opticaldielectric 1.43
$end

--------------------------------------------------------------

             Standard Nuclear Orientation (Angstroms)
    I     Atom           X                Y                Z
 ----------------------------------------------------------------
    1      C       4.9907540000    -2.6335900000     0.0698850000
    2      C       5.7052320000    -1.6995910000    -0.6653780000
    3      C       5.0685610000    -0.6749410000    -1.3677000000
    4      C       3.5981980000    -2.5332190000     0.1244280000
    5      C       2.9424430000    -1.5009570000    -0.5683670000
    6      C       3.6844640000    -0.5793110000    -1.3133100000
    7      C       2.8382390000    -3.5396560000     0.9245320000
    8      C       1.3502850000    -3.4132090000     0.9480940000
    9      C       0.6912460000    -2.3822230000     0.2565070000
   10      C       1.4548680000    -1.3670120000    -0.5299910000
   11      C       0.6095530000    -4.3486750000     1.6750610000
   12      C      -0.7038380000    -2.2971490000     0.2945150000
   13      C      -1.4427020000    -3.2238430000     1.0178020000
   14      O       3.4086930000    -4.4229950000     1.5375910000
   15      O       0.8861270000    -0.4650270000    -1.1184520000
   16      H       5.4859540000    -3.4437250000     0.5901150000
   17      H      -2.5243240000    -3.1808640000     1.0406750000
   18      H       3.1579320000     0.2016440000    -1.8473330000
   19      H       1.1241470000    -5.1512380000     2.1881560000
   20      H      -1.1912450000    -1.5008720000    -0.2538310000
   21      C      -0.7723060000    -4.2353320000     1.7077230000
   22      S       7.5057010000    -1.8213810000    -0.7324010000
   23      S      -1.7328770000    -5.4381670000     2.6518890000
   24      O      -0.9518770000    -6.6679870000     2.7131530000
   25      O      -3.0995460000    -5.3925000000     2.1414820000
   26      N      -1.7559150000    -4.7691720000     4.2016570000
   27      H      -1.2694670000    -5.3689150000     4.8603150000
   28      H      -2.7081370000    -4.5730760000     4.4927370000
   29      O       7.8563980000    -3.2195810000    -0.5128090000
   30      O       7.9440390000    -1.0695860000    -1.9041690000
   31      N       7.9930790000    -0.9515720000     0.6299200000
   32      H       5.6541270000     0.0206830000    -1.9554890000
   33      H       8.5673280000    -0.1589480000     0.3617580000
   34      H       8.4625960000    -1.5574430000     1.2952350000
 ----------------------------------------------------------------

    9   -1897.0181092978      4.65e-06  Convergence criterion met
 Total energy in the final basis set =    -1897.0181092978

                    Orbital Energies (a.u.)
 --------------------------------------------------------------

 Alpha MOs
 -- Occupied --
-89.0903 -89.0902 -19.1449 -19.1439 -19.1438 -19.1438 -19.1435 -19.1435
-14.3506 -14.3506 -10.2967 -10.2966 -10.2412 -10.2411 -10.2255 -10.2255
-10.2250 -10.2250 -10.2198 -10.2198 -10.2187 -10.2187 -10.2120 -10.2120
 -8.1517  -8.1516  -6.1145  -6.1144  -6.1144  -6.1143  -6.1125  -6.1125
 -1.1483  -1.1483  -1.0807  -1.0789  -1.0413  -1.0412  -0.9220  -0.9216
 -0.9131  -0.9040  -0.8384  -0.8050  -0.7995  -0.7938  -0.7263  -0.7002
 -0.7002  -0.6540  -0.6488  -0.6283  -0.6031  -0.5797  -0.5761  -0.5422
 -0.5417  -0.5388  -0.5382  -0.5285  -0.5230  -0.5195  -0.5038  -0.4797
 -0.4795  -0.4731  -0.4701  -0.4686  -0.4659  -0.4652  -0.4650  -0.4378
 -0.4321  -0.4228  -0.4131  -0.3951  -0.3915  -0.3881  -0.3832  -0.3825
 -0.3545  -0.3543  -0.3433  -0.3420  -0.3399  -0.3397  -0.3242  -0.3239
 -0.3010  -0.2989  -0.2949  -0.2905  -0.2888  -0.2880

          Ground-State Mulliken Net Atomic Charges

     Atom                 Charge (a.u.)
  ----------------------------------------
      1 C                    -0.182684
      2 C                    -0.469435
      3 C                    -0.556119
      4 C                     0.290548
      5 C                     0.661869
      6 C                    -0.004885
      7 C                    -0.875821
      8 C                     0.299948
      9 C                     0.681759
     10 C                    -0.152427
     11 C                    -0.185622
     12 C                     0.005340
     13 C                    -0.547188
     14 O                    -0.243285
     15 O                    -0.245077
     16 H                     0.258181
     17 H                     0.286378
     18 H                     0.208742
     19 H                     0.259547
     20 H                     0.208365
     21 C                    -0.501720
     22 S                     0.555010
     23 S                     0.542533
     24 O                    -0.278944
     25 O                    -0.274688
     26 N                    -0.438981
     27 H                     0.349091
     28 H                     0.355984
     29 O                    -0.279569
     30 O                    -0.276271
     31 N                    -0.441242
     32 H                     0.285781
     33 H                     0.356009
     34 H                     0.348828
  ----------------------------------------
  Sum of atomic charges =    -0.000044

                    Cartesian Multipole Moments
 -----------------------------------------------------------------
    Charge (ESU x 10^10)
                -0.0002
    Dipole Moment (Debye)
         X      -0.6546      Y       6.3963      Z       5.0561
       Tot       8.1796
    Quadrupole Moments (Debye-Ang)
        XX    -160.0237     XY      24.0005     YY    -207.5889
        XZ      16.3919     YZ      -9.2474     ZZ    -136.3803

 Total job time:  93.53s(wall), 623.56s(cpu)
        *  Thank you very much for using Q-Chem.  Have a nice day.  *
