 Q-Chem 5.4, Q-Chem, Inc., Pleasanton, CA (2021)
 Q-Chem 5.4.0 for Intel X86 EM64T Linux

User input:
--------------------------------------------------------------
$molecule
0 1
C                  3.7413550000      0.0288080000     -0.2368300000
C                  2.8022320000      0.1296760000      0.9808400000
C                  1.3535630000      0.3024080000      0.6006840000
C                  0.5803420000     -0.9453300000      0.3436990000
O                  1.1404850000     -2.0262030000      0.4654170000
C                 -0.8460740000     -0.8243080000     -0.0516220000
C                 -1.6428190000     -1.9444910000     -0.3034330000
O                 -1.1782390000     -3.2069440000     -0.2078410000
C                 -2.9970730000     -1.7649530000     -0.6759380000
O                 -3.7188380000     -2.8970060000     -0.9078060000
C                 -3.5518800000     -0.5086010000     -0.7963310000
O                 -4.8613640000     -0.4132330000     -1.1583250000
C                 -2.7668530000      0.6270480000     -0.5469010000
C                 -1.4238250000      0.4726070000     -0.1776420000
C                 -0.6456510000      1.6801000000      0.0726300000
C                  0.7766340000      1.5203970000      0.4602550000
O                  1.4006950000      2.7033820000      0.6506230000
O                 -1.1381100000      2.8125180000     -0.0321550000
O                 -3.3900410000      1.8125080000     -0.6872710000
H                  3.4724280000     -0.8328980000     -0.8501810000
H                  3.6892920000      0.9227140000     -0.8649590000
H                  4.7770750000     -0.0974860000      0.0890630000
H                  2.8881060000     -0.7856180000      1.5687990000
H                  3.1279550000      0.9474300000      1.6372500000
H                 -1.9011400000     -3.8130430000     -0.4233560000
H                  2.3129410000      2.5478190000      0.9221140000
H                 -2.7122010000      2.5100100000     -0.4785050000
H                 -4.6234550000     -2.6601290000     -1.1521770000
H                 -5.1013720000      0.5236760000     -1.1992290000
$end

$rem
BASIS  =  6-311++G(d,p)
GUI  =  2
JOB_TYPE  =  SP
METHOD  =  B3LYP
SCF_CONVERGENCE  = 8
SOLVENT_METHOD = sm12
$end

$smx
solvent dimethylformamide
charges CM5
$end

--------------------------------------------------------------

             Standard Nuclear Orientation (Angstroms)
    I     Atom           X                Y                Z
 ----------------------------------------------------------------
    1      C       3.7413550000     0.0288080000    -0.2368300000
    2      C       2.8022320000     0.1296760000     0.9808400000
    3      C       1.3535630000     0.3024080000     0.6006840000
    4      C       0.5803420000    -0.9453300000     0.3436990000
    5      O       1.1404850000    -2.0262030000     0.4654170000
    6      C      -0.8460740000    -0.8243080000    -0.0516220000
    7      C      -1.6428190000    -1.9444910000    -0.3034330000
    8      O      -1.1782390000    -3.2069440000    -0.2078410000
    9      C      -2.9970730000    -1.7649530000    -0.6759380000
   10      O      -3.7188380000    -2.8970060000    -0.9078060000
   11      C      -3.5518800000    -0.5086010000    -0.7963310000
   12      O      -4.8613640000    -0.4132330000    -1.1583250000
   13      C      -2.7668530000     0.6270480000    -0.5469010000
   14      C      -1.4238250000     0.4726070000    -0.1776420000
   15      C      -0.6456510000     1.6801000000     0.0726300000
   16      C       0.7766340000     1.5203970000     0.4602550000
   17      O       1.4006950000     2.7033820000     0.6506230000
   18      O      -1.1381100000     2.8125180000    -0.0321550000
   19      O      -3.3900410000     1.8125080000    -0.6872710000
   20      H       3.4724280000    -0.8328980000    -0.8501810000
   21      H       3.6892920000     0.9227140000    -0.8649590000
   22      H       4.7770750000    -0.0974860000     0.0890630000
   23      H       2.8881060000    -0.7856180000     1.5687990000
   24      H       3.1279550000     0.9474300000     1.6372500000
   25      H      -1.9011400000    -3.8130430000    -0.4233560000
   26      H       2.3129410000     2.5478190000     0.9221140000
   27      H      -2.7122010000     2.5100100000    -0.4785050000
   28      H      -4.6234550000    -2.6601290000    -1.1521770000
   29      H      -5.1013720000     0.5236760000    -1.1992290000
 ----------------------------------------------------------------

   15    -990.1596928343      8.27e-09  Convergence criterion met
 Total energy in the final basis set =     -990.1923261631

                    Orbital Energies (a.u.)
 --------------------------------------------------------------

 Alpha MOs
 -- Occupied --
-19.1931 -19.1889 -19.1797 -19.1751 -19.1749 -19.1412 -19.1149 -10.2903
-10.2741 -10.2728 -10.2715 -10.2706 -10.2670 -10.2668 -10.2116 -10.2091
-10.2042 -10.1863 -10.1653  -1.1222  -1.1073  -1.0998  -1.0883  -1.0789
 -1.0591  -1.0500  -0.8910  -0.8419  -0.7975  -0.7753  -0.7568  -0.7075
 -0.6821  -0.6769  -0.6424  -0.6175  -0.6093  -0.5847  -0.5766  -0.5523
 -0.5421  -0.5179  -0.5054  -0.4973  -0.4901  -0.4711  -0.4643  -0.4499
 -0.4447  -0.4381  -0.4325  -0.4271  -0.4183  -0.4151  -0.4109  -0.4101
 -0.3978  -0.3952  -0.3906  -0.3888  -0.3799  -0.3641  -0.3527  -0.3290
 -0.2954  -0.2688  -0.2661  -0.2479  -0.2364

          Ground-State Mulliken Net Atomic Charges

     Atom                 Charge (a.u.)
  ----------------------------------------
      1 C                    -0.476056
      2 C                     0.668744
      3 C                     1.357333
      4 C                    -0.988455
      5 O                    -0.319698
      6 C                     0.120974
      7 C                    -0.376673
      8 O                    -0.241243
      9 C                     0.199931
     10 O                    -0.255943
     11 C                     0.355843
     12 O                    -0.256413
     13 C                     0.047948
     14 C                     0.419488
     15 C                    -1.085912
     16 C                    -0.786573
     17 O                    -0.169300
     18 O                    -0.359691
     19 O                    -0.390665
     20 H                     0.123791
     21 H                     0.160449
     22 H                     0.196351
     23 H                     0.176645
     24 H                     0.236724
     25 H                     0.312930
     26 H                     0.315411
     27 H                     0.345407
     28 H                     0.342282
     29 H                     0.326374
  ----------------------------------------
  Sum of atomic charges =     0.000000

                    Cartesian Multipole Moments
 -----------------------------------------------------------------
    Charge (ESU x 10^10)
                 0.0000
    Dipole Moment (Debye)
         X      -1.4577      Y      -0.0701      Z      -0.5163
       Tot       1.5480
    Quadrupole Moments (Debye-Ang)
        XX     -82.7202     XY      14.7012     YY    -121.1387
        XZ       7.2396     YZ       3.9131     ZZ    -107.7749

 Total job time:  664.58s(wall), 5210.60s(cpu)
        *  Thank you very much for using Q-Chem.  Have a nice day.  *
