 Q-Chem 5.4, Q-Chem, Inc., Pleasanton, CA (2021)
 Q-Chem 5.4.0 for Intel X86 EM64T Linux

User input:
--------------------------------------------------------------
$molecule
0 1
C                 -0.2269580000      1.0002560000      0.1305530000
C                 -1.4150690000      0.2049460000     -0.2602820000
C                 -1.3484960000     -1.1246070000     -0.3770770000
C                 -0.0836980000     -1.8523140000     -0.1236040000
C                  1.1447600000     -1.0646710000      0.2437410000
C                  1.0566850000      0.2798670000      0.3743530000
O                 -0.3071500000      2.2156150000      0.2281700000
O                 -0.0408030000     -3.0673540000     -0.2142460000
C                  2.2649830000      1.1307490000      0.7307730000
C                  2.1935240000      1.9484820000      1.9963720000
O                  3.2437490000      1.1100790000      0.0175540000
H                 -2.3215270000      0.7714050000     -0.4425550000
H                 -2.1981180000     -1.7367770000     -0.6582270000
H                  1.9093390000      1.3145180000      2.8426760000
H                  1.4221240000      2.7147020000      1.8896090000
H                  3.1610390000      2.4129620000      2.1840840000
C                  2.3868310000     -1.8789240000      0.4448860000
H                  2.7090780000     -2.3009510000     -0.5121400000
H                  2.1748640000     -2.7285270000      1.0977360000
H                  3.2082310000     -1.2912150000      0.8467040000
$end
$rem
MAX_SCF_CYCLES=200
BASIS  =  6-311++G(d,p)
GUI  =  2
JOB_TYPE  =  SP
METHOD  =  B3LYP
SOLVENT_METHOD = PCM
$end
$pcm
theory = CPCM
$end
$solvent
dielectric 37.219
opticaldielectric 1.43
$end

--------------------------------------------------------------

             Standard Nuclear Orientation (Angstroms)
    I     Atom           X                Y                Z
 ----------------------------------------------------------------
    1      C      -0.2269580000     1.0002560000     0.1305530000
    2      C      -1.4150690000     0.2049460000    -0.2602820000
    3      C      -1.3484960000    -1.1246070000    -0.3770770000
    4      C      -0.0836980000    -1.8523140000    -0.1236040000
    5      C       1.1447600000    -1.0646710000     0.2437410000
    6      C       1.0566850000     0.2798670000     0.3743530000
    7      O      -0.3071500000     2.2156150000     0.2281700000
    8      O      -0.0408030000    -3.0673540000    -0.2142460000
    9      C       2.2649830000     1.1307490000     0.7307730000
   10      C       2.1935240000     1.9484820000     1.9963720000
   11      O       3.2437490000     1.1100790000     0.0175540000
   12      H      -2.3215270000     0.7714050000    -0.4425550000
   13      H      -2.1981180000    -1.7367770000    -0.6582270000
   14      H       1.9093390000     1.3145180000     2.8426760000
   15      H       1.4221240000     2.7147020000     1.8896090000
   16      H       3.1610390000     2.4129620000     2.1840840000
   17      C       2.3868310000    -1.8789240000     0.4448860000
   18      H       2.7090780000    -2.3009510000    -0.5121400000
   19      H       2.1748640000    -2.7285270000     1.0977360000
   20      H       3.2082310000    -1.2912150000     0.8467040000
 ----------------------------------------------------------------

    9    -573.5904852069      2.35e-06  Convergence criterion met
 Total energy in the final basis set =     -573.5904852069

                    Orbital Energies (a.u.)
 --------------------------------------------------------------

 Alpha MOs
 -- Occupied --
-19.1492 -19.1477 -19.1400 -10.2955 -10.2925 -10.2898 -10.2323 -10.2204
-10.2145 -10.2135 -10.1776 -10.1751  -1.0818  -1.0796  -1.0738  -0.8739
 -0.8173  -0.7673  -0.7310  -0.6976  -0.6497  -0.6041  -0.5616  -0.5385
 -0.5083  -0.4941  -0.4732  -0.4725  -0.4569  -0.4530  -0.4429  -0.4383
 -0.4332  -0.4113  -0.4097  -0.4037  -0.3958  -0.3764  -0.3166  -0.3017
 -0.2990  -0.2932  -0.2702

          Ground-State Mulliken Net Atomic Charges

     Atom                 Charge (a.u.)
  ----------------------------------------
      1 C                    -0.539808
      2 C                    -0.050552
      3 C                     0.135577
      4 C                    -0.497792
      5 C                     0.231253
      6 C                     1.093118
      7 O                    -0.288478
      8 O                    -0.276922
      9 C                    -0.062728
     10 C                    -0.646985
     11 O                    -0.299714
     12 H                     0.264528
     13 H                     0.262466
     14 H                     0.180023
     15 H                     0.216539
     16 H                     0.189077
     17 C                    -0.499935
     18 H                     0.219327
     19 H                     0.190841
     20 H                     0.180164
  ----------------------------------------
  Sum of atomic charges =     0.000000

                    Cartesian Multipole Moments
 -----------------------------------------------------------------
    Charge (ESU x 10^10)
                 0.0000
    Dipole Moment (Debye)
         X      -2.4044      Y      -0.7547      Z       2.3417
       Tot       3.4401
    Quadrupole Moments (Debye-Ang)
        XX     -72.8772     XY      -3.2336     YY     -85.9231
        XZ       7.8098     YZ       1.7732     ZZ     -64.4325

 Total job time:  18.33s(wall), 135.72s(cpu)
        *  Thank you very much for using Q-Chem.  Have a nice day.  *
