 Gaussian 16, Revision A.03,
 Gaussian 16:  ES64L-G16RevA.03 25-Dec-2016

 ----------------------------------------------------------------------
 #P UB3LYP/genecp nosym opt freq SCRF=(PCM,Solvent=n,n-DiMethylFormamid
 e)
 ----------------------------------------------------------------------

 --------
 Oxidized
 --------
 Symbolic Z-matrix:
 Charge =  0 Multiplicity = 1

 SCF Done:  E(UB3LYP) =  -975.959118296     A.U. after   15 cycles
 SCF Done:  E(UB3LYP) =  -975.959162453     A.U. after   10 cycles
 SCF Done:  E(UB3LYP) =  -975.959168960     A.U. after   10 cycles
 Optimization completed.
    -- Stationary point found.
 Normal termination of Gaussian 16 at Sat Feb 10 10:17:39 2024.

 ------------------------------------------------------------------
 #P Geom=AllCheck Guess=TCheck SCRF=Check GenChk UB3LYP/GenECP Freq
 ------------------------------------------------------------------

 Structure from the checkpoint file:  "013.chk"
 --------
 Oxidized
 --------
 Charge =  0 Multiplicity = 1

                          Input orientation:
 ---------------------------------------------------------------------
 Center     Atomic      Atomic             Coordinates (Angstroms)
 Number     Number       Type             X           Y           Z
 ---------------------------------------------------------------------
      1         53           0       -2.809268   -2.070214    0.004525
      2          6           0       -1.186162   -0.743524    0.000386
      3          6           0       -1.359460    0.585007   -0.016422
      4          6           0       -0.201044    1.506962   -0.018759
      5          8           0       -0.362710    2.719086   -0.034334
      6          6           0        1.158296    0.920916   -0.002214
      7          6           0        1.339318   -0.406548    0.014336
      8         53           0        3.254448   -1.258776    0.037353
      9          6           0        0.181755   -1.363792    0.017441
     10          8           0        0.341978   -2.564557    0.031360
     11          1           0       -2.337329    1.049715   -0.028984
     12          1           0        1.980177    1.625727   -0.004688
 ---------------------------------------------------------------------

 SCF Done:  E(UB3LYP) =  -975.959168960     A.U. after    1 cycles

 Alpha  occ. eigenvalues --  -19.16362 -19.15390 -10.31612 -10.30109 -10.26430
 Alpha  occ. eigenvalues --  -10.26429 -10.22699 -10.22695  -6.86506  -6.86506
 Alpha  occ. eigenvalues --   -4.89002  -4.89001  -4.87796  -4.87796  -4.87692
 Alpha  occ. eigenvalues --   -4.87691  -1.93812  -1.93812  -1.93423  -1.93423
 Alpha  occ. eigenvalues --   -1.93346  -1.93345  -1.92304  -1.92304  -1.92302
 Alpha  occ. eigenvalues --   -1.92302  -1.09836  -1.08238  -0.88682  -0.82595
 Alpha  occ. eigenvalues --   -0.74650  -0.72107  -0.70546  -0.62825  -0.61325
 Alpha  occ. eigenvalues --   -0.54691  -0.52518  -0.48327  -0.47108  -0.45978
 Alpha  occ. eigenvalues --   -0.45825  -0.43696  -0.41441  -0.39189  -0.35059
 Alpha  occ. eigenvalues --   -0.34337  -0.31286  -0.29847  -0.28560  -0.27922
 Alpha  occ. eigenvalues --   -0.27596  -0.26799
 Alpha virt. eigenvalues --   -0.15181  -0.06658  -0.05150  -0.03911  -0.01926
 Alpha virt. eigenvalues --   -0.00270   0.01475   0.02428   0.04851   0.05393
 Alpha virt. eigenvalues --    0.05504   0.06069   0.07039   0.08947   0.09036

  Beta  occ. eigenvalues --  -19.16362 -19.15390 -10.31612 -10.30109 -10.26430
  Beta  occ. eigenvalues --  -10.26429 -10.22699 -10.22695  -6.86506  -6.86506
  Beta  occ. eigenvalues --   -4.89002  -4.89001  -4.87796  -4.87796  -4.87692
  Beta  occ. eigenvalues --   -4.87691  -1.93812  -1.93812  -1.93423  -1.93423
  Beta  occ. eigenvalues --   -1.93346  -1.93345  -1.92304  -1.92304  -1.92302
  Beta  occ. eigenvalues --   -1.92302  -1.09836  -1.08238  -0.88682  -0.82595
  Beta  occ. eigenvalues --   -0.74650  -0.72107  -0.70546  -0.62825  -0.61325
  Beta  occ. eigenvalues --   -0.54691  -0.52518  -0.48327  -0.47108  -0.45978
  Beta  occ. eigenvalues --   -0.45825  -0.43696  -0.41441  -0.39189  -0.35059
  Beta  occ. eigenvalues --   -0.34337  -0.31286  -0.29847  -0.28560  -0.27922
  Beta  occ. eigenvalues --   -0.27596  -0.26799
  Beta virt. eigenvalues --   -0.15181  -0.06658  -0.05150  -0.03911  -0.01926
  Beta virt. eigenvalues --   -0.00270   0.01475   0.02428   0.04851   0.05393
  Beta virt. eigenvalues --    0.05504   0.06069   0.07039   0.08947   0.09036

 Mulliken charges and spin densities:
               1          2
     1  I   -0.012681   0.000000
     2  C    1.461189  -0.000000
     3  C   -0.369235   0.000000
     4  C   -0.045072  -0.000000
     5  O   -0.286528  -0.000000
     6  C   -0.369645   0.000000
     7  C    1.463136  -0.000000
     8  I   -0.012805   0.000000
     9  C   -2.139614   0.000000
    10  O   -0.144369  -0.000000
    11  H    0.227870   0.000000
    12  H    0.227755   0.000000
 Sum of Mulliken charges =   0.00000  -0.00000

 Dipole moment (field-independent basis, Debye):
    X=             -0.0257    Y=              0.2013    Z=             -0.0006  Tot=              0.2029
 Quadrupole moment (field-independent basis, Debye-Ang):
   XX=            -87.6093   YY=           -115.5065   ZZ=            -98.1936
   XY=              3.7925   XZ=              0.0299   YZ=              0.2252

  Exact polarizability: 245.062  -4.398 277.664   0.930  -1.870 118.656
 Approx polarizability: 257.538 -16.472 379.066   1.006  -2.872 140.131

                      1                      2                      3
                      A                      A                      A
 Frequencies --     43.7858                94.1414               115.8170
 Red. masses --     16.7409                37.5204                 9.9063
 Frc consts  --      0.0189                 0.1959                 0.0783
 IR Inten    --      3.8834                 0.2272                12.1657

                      4                      5                      6
                      A                      A                      A
 Frequencies --    150.1111               197.4751               214.0732
 Red. masses --      4.7321                13.0484                19.1072
 Frc consts  --      0.0628                 0.2998                 0.5159
 IR Inten    --      0.0002                 0.3397                 0.3378

                      7                      8                      9
                      A                      A                      A
 Frequencies --    242.2558               280.9484               416.7357
 Red. masses --     14.8703                 5.9380                 5.4769
 Frc consts  --      0.5142                 0.2761                 0.5604
 IR Inten    --      0.2666                 2.4212                 0.0032

                     10                     11                     12
                      A                      A                      A
 Frequencies --    435.7206               466.6787               605.9074
 Red. masses --      8.8378                12.8762                 6.6285
 Frc consts  --      0.9886                 1.6522                 1.4338
 IR Inten    --     75.5778                 0.0368                22.2646

                     13                     14                     15
                      A                      A                      A
 Frequencies --    651.7761               666.9709               779.5659
 Red. masses --      3.7677                 9.8948                10.7849
 Frc consts  --      0.9430                 2.5934                 3.8617
 IR Inten    --      4.5003               106.3183                 5.3854

                     16                     17                     18
                      A                      A                      A
 Frequencies --    780.7686               844.3626               883.8033
 Red. masses --      6.8970                 6.1794                 1.3179
 Frc consts  --      2.4772                 2.5957                 0.6065
 IR Inten    --      0.0755                 2.6620                 0.0052

                     19                     20                     21
                      A                      A                      A
 Frequencies --    926.4102               971.8806              1124.3746
 Red. masses --      1.5294                 4.6655                 3.2023
 Frc consts  --      0.7733                 2.5964                 2.3852
 IR Inten    --     64.8713               305.1602                11.3043

                     22                     23                     24
                      A                      A                      A
 Frequencies --   1262.0573              1297.6160              1312.1374
 Red. masses --      8.5794                 1.3929                 1.6647
 Frc consts  --      8.0513                 1.3819                 1.6886
 IR Inten    --    568.7517                49.6557                 0.8458

                     25                     26                     27
                      A                      A                      A
 Frequencies --   1607.3697              1645.7239              1684.3858
 Red. masses --      8.9233                 8.4528                11.3208
 Frc consts  --     13.5833                13.4885                18.9239
 IR Inten    --    294.6517                74.1800               946.9788

                     28                     29                     30
                      A                      A                      A
 Frequencies --   1725.0992              3203.6465              3204.8822
 Red. masses --     13.2451                 1.0935                 1.0940
 Frc consts  --     23.2238                 6.6123                 6.6203
 IR Inten    --    307.2210                 0.9164                 0.2089

 - Thermochemistry -
 -------------------
 Temperature   298.150 Kelvin.  Pressure   1.00000 Atm.
 Atom     1 has atomic number 53 and mass 126.90040

 Molecular mass:   359.80628 amu.
 Principal axes and moments of inertia in atomic units:
                           1         2         3
     Eigenvalues --  1931.049338792.13567**********
           X            0.99115  -0.13260  -0.00697
           Y            0.13267   0.99109   0.01160
           Z            0.00537  -0.01242   0.99991
 This molecule is an asymmetric top.
 Rotational symmetry number  1.
 Warning -- assumption of classical behavior for rotation
           may cause significant error
 Rotational temperatures (Kelvin)      0.04485     0.00985     0.00808
 Rotational constants (GHZ):           0.93459     0.20527     0.16830
 Zero-point vibrational energy     166499.1 (Joules/Mol)
                                   39.79425 (Kcal/Mol)
 Warning -- explicit consideration of  12 degrees of freedom as
           vibrations may cause significant error
 Vibrational temperatures:     63.00   135.45   166.63   215.98   284.12
          (Kelvin)            308.00   348.55   404.22   599.59   626.90
                              671.45   871.77   937.76   959.62  1121.62
                             1123.35  1214.85  1271.60  1332.90  1398.32
                             1617.72  1815.82  1866.98  1887.87  2312.65
                             2367.83  2423.46  2482.03  4609.33  4611.11

 Zero-point correction=                           0.063416 (Hartree/Particle)
 Thermal correction to Energy=                    0.072923
 Thermal correction to Enthalpy=                  0.073867
 Thermal correction to Gibbs Free Energy=         0.024508
 Sum of electronic and zero-point Energies=           -975.895753
 Sum of electronic and thermal Energies=              -975.886246
 Sum of electronic and thermal Enthalpies=            -975.885302
 Sum of electronic and thermal Free Energies=         -975.934660

                     E (Thermal)             CV                S
                      KCal/Mol        Cal/Mol-Kelvin    Cal/Mol-Kelvin
 Total                   45.760             32.100            103.884
 Electronic               0.000              0.000              0.000
 Translational            0.889              2.981             43.535
 Rotational               0.889              2.981             33.565
 Vibrational             43.982             26.139             26.785
 Vibration     1          0.595              1.980              5.080
 Vibration     2          0.603              1.953              3.572
 Vibration     3          0.608              1.936              3.169
 Vibration     4          0.618              1.903              2.671
 Vibration     5          0.637              1.843              2.156
 Vibration     6          0.644              1.820              2.009
 Vibration     7          0.658              1.776              1.786
 Vibration     8          0.681              1.709              1.528
 Vibration     9          0.780              1.434              0.903
 Vibration    10          0.796              1.392              0.840
 Vibration    11          0.824              1.324              0.747
 Vibration    12          0.965              1.019              0.440

 Optimization completed.
    -- Stationary point found.
 Normal termination of Gaussian 16 at Sat Feb 10 10:23:33 2024.
