 Gaussian 16, Revision A.03,
 Gaussian 16:  ES64L-G16RevA.03 25-Dec-2016

 --------------------------------------
 #P UB3LYP/6-311++G(d,p) nosym opt freq
 --------------------------------------

 --------
 Oxidized
 --------
 Symbolic Z-matrix:
 Charge =  0 Multiplicity = 1

 SCF Done:  E(UB3LYP) =  -460.203769623     A.U. after   15 cycles
 SCF Done:  E(UB3LYP) =  -460.220029939     A.U. after   14 cycles
 SCF Done:  E(UB3LYP) =  -460.221902487     A.U. after   14 cycles
 SCF Done:  E(UB3LYP) =  -460.222031842     A.U. after   13 cycles
 SCF Done:  E(UB3LYP) =  -460.222060301     A.U. after   12 cycles
 SCF Done:  E(UB3LYP) =  -460.222083577     A.U. after   11 cycles
 SCF Done:  E(UB3LYP) =  -460.222087930     A.U. after   11 cycles
 SCF Done:  E(UB3LYP) =  -460.222096525     A.U. after   11 cycles
 SCF Done:  E(UB3LYP) =  -460.222123170     A.U. after   12 cycles
 SCF Done:  E(UB3LYP) =  -460.222083013     A.U. after   12 cycles
 SCF Done:  E(UB3LYP) =  -460.222150714     A.U. after   11 cycles
 SCF Done:  E(UB3LYP) =  -460.222169929     A.U. after   12 cycles
 SCF Done:  E(UB3LYP) =  -460.222156738     A.U. after   10 cycles
 SCF Done:  E(UB3LYP) =  -460.222157368     A.U. after    9 cycles
 SCF Done:  E(UB3LYP) =  -460.222157784     A.U. after   10 cycles
 SCF Done:  E(UB3LYP) =  -460.222158058     A.U. after    9 cycles
 SCF Done:  E(UB3LYP) =  -460.222158127     A.U. after    8 cycles
 SCF Done:  E(UB3LYP) =  -460.222158304     A.U. after    8 cycles
 SCF Done:  E(UB3LYP) =  -460.222158275     A.U. after    8 cycles
 Optimization completed.
    -- Stationary point found.
 Normal termination of Gaussian 16 at Sun Dec 17 21:10:09 2023.

 ----------------------------------------------------------------------
 #P Geom=AllCheck Guess=TCheck SCRF=Check GenChk UB3LYP/6-311++G(d,p) F
 req
 ----------------------------------------------------------------------

 Structure from the checkpoint file:  "037.chk"
 --------
 Oxidized
 --------
 Charge =  0 Multiplicity = 1

                          Input orientation:
 ---------------------------------------------------------------------
 Center     Atomic      Atomic             Coordinates (Angstroms)
 Number     Number       Type             X           Y           Z
 ---------------------------------------------------------------------
      1          6           0       -1.621583   -1.405547   -0.135596
      2          6           0       -0.319850   -0.656013   -0.092952
      3          6           0       -0.251498    0.677872    0.136037
      4          6           0       -1.471533    1.524305    0.366549
      5          6           0        1.072384    1.373198    0.168203
      6          8           0        1.158865    2.574385    0.373507
      7          6           0        2.298973    0.570516   -0.056243
      8          6           0        2.231615   -0.744491   -0.282133
      9          6           0        0.927585   -1.450026   -0.317242
     10          8           0        0.890876   -2.653177   -0.526237
     11          1           0       -1.447419   -2.462254   -0.330788
     12          1           0       -2.276489   -1.007878   -0.917481
     13          1           0       -2.160586   -1.307709    0.812110
     14          1           0       -2.032838    1.172549    1.238084
     15          1           0       -2.149862    1.474436   -0.491136
     16          1           0       -1.190306    2.563356    0.529103
     17          1           0        3.234372    1.118031   -0.023918
     18          1           0        3.107294   -1.361553   -0.449867
 ---------------------------------------------------------------------

 SCF Done:  E(UB3LYP) =  -460.222158275     A.U. after    1 cycles

 Alpha  occ. eigenvalues --  -19.13965 -19.13964 -10.28481 -10.28480 -10.21815
 Alpha  occ. eigenvalues --  -10.21743 -10.21607 -10.21523 -10.18266 -10.18265
 Alpha  occ. eigenvalues --   -1.07079  -1.06883  -0.87240  -0.82079  -0.75731
 Alpha  occ. eigenvalues --   -0.70273  -0.69521  -0.61033  -0.59465  -0.53633
 Alpha  occ. eigenvalues --   -0.50673  -0.47624  -0.47017  -0.45300  -0.44082
 Alpha  occ. eigenvalues --   -0.43060  -0.43010  -0.42648  -0.41784  -0.40667
 Alpha  occ. eigenvalues --   -0.39050  -0.38415  -0.31377  -0.29080  -0.28469
 Alpha  occ. eigenvalues --   -0.27703
 Alpha virt. eigenvalues --   -0.13438  -0.03387  -0.01515  -0.00133  -0.00123
 Alpha virt. eigenvalues --    0.01440   0.02079   0.02943   0.03255   0.04003
 Alpha virt. eigenvalues --    0.05693   0.05745   0.06453   0.07114   0.07751

  Beta  occ. eigenvalues --  -19.13965 -19.13964 -10.28481 -10.28480 -10.21815
  Beta  occ. eigenvalues --  -10.21743 -10.21607 -10.21523 -10.18266 -10.18265
  Beta  occ. eigenvalues --   -1.07079  -1.06883  -0.87240  -0.82079  -0.75731
  Beta  occ. eigenvalues --   -0.70273  -0.69521  -0.61033  -0.59465  -0.53633
  Beta  occ. eigenvalues --   -0.50673  -0.47624  -0.47017  -0.45300  -0.44082
  Beta  occ. eigenvalues --   -0.43060  -0.43010  -0.42648  -0.41784  -0.40667
  Beta  occ. eigenvalues --   -0.39050  -0.38415  -0.31377  -0.29080  -0.28469
  Beta  occ. eigenvalues --   -0.27703
  Beta virt. eigenvalues --   -0.13438  -0.03387  -0.01515  -0.00133  -0.00123
  Beta virt. eigenvalues --    0.01440   0.02079   0.02943   0.03255   0.04003
  Beta virt. eigenvalues --    0.05693   0.05745   0.06453   0.07114   0.07751

 Mulliken charges and spin densities:
               1          2
     1  C   -0.487524   0.000000
     2  C    0.591655  -0.000000
     3  C    0.591397   0.000000
     4  C   -0.487617  -0.000000
     5  C   -0.698304   0.000000
     6  O   -0.236093  -0.000000
     7  C    0.088371   0.000000
     8  C    0.088285   0.000000
     9  C   -0.698388   0.000000
    10  O   -0.236109  -0.000000
    11  H    0.208532  -0.000000
    12  H    0.157410   0.000000
    13  H    0.157157   0.000000
    14  H    0.157311   0.000000
    15  H    0.157268   0.000000
    16  H    0.208540  -0.000000
    17  H    0.219052  -0.000000
    18  H    0.219058  -0.000000
 Sum of Mulliken charges =  -0.00000   0.00000

 Dipole moment (field-independent basis, Debye):
    X=             -0.9500    Y=              0.0370    Z=              0.0703  Tot=              0.9534
 Quadrupole moment (field-independent basis, Debye-Ang):
   XX=            -51.1432   YY=            -75.4727   ZZ=            -59.0117
   XY=             -1.1547   XZ=             -0.7063   YZ=             -2.8962

  Exact polarizability: 100.539   2.445 137.592  -2.440  13.747  60.870
 Approx polarizability: 128.169   8.083 276.156  -1.171  32.119  95.737

                      1                      2                      3
                      A                      A                      A
 Frequencies --     33.6946                74.1750                84.9034
 Red. masses --      1.0281                 1.4969                 2.3627
 Frc consts  --      0.0007                 0.0049                 0.0100
 IR Inten    --      0.0006                 7.6088                 5.8030

                      4                      5                      6
                      A                      A                      A
 Frequencies --    107.4024               247.2821               260.0572
 Red. masses --      3.6337                 3.2198                 4.2895
 Frc consts  --      0.0247                 0.1160                 0.1709
 IR Inten    --      0.0000                 0.2385                 0.0000

                      7                      8                      9
                      A                      A                      A
 Frequencies --    305.3449               331.5337               412.9726
 Red. masses --      2.5597                 3.8441                 9.0364
 Frc consts  --      0.1406                 0.2489                 0.9080
 IR Inten    --      0.2162                 0.8790                23.2481

                     10                     11                     12
                      A                      A                      A
 Frequencies --    444.2140               467.2456               492.1080
 Red. masses --      5.1865                10.8963                 3.6071
 Frc consts  --      0.6030                 1.4016                 0.5147
 IR Inten    --      0.0014                 1.4324                 0.0001

                     13                     14                     15
                      A                      A                      A
 Frequencies --    598.3212               599.1629               623.4673
 Red. masses --      3.9919                 2.1584                 5.7881
 Frc consts  --      0.8420                 0.4565                 1.3256
 IR Inten    --      0.0693                 0.2124                 5.6202

                     16                     17                     18
                      A                      A                      A
 Frequencies --    761.5844               786.1015               817.2989
 Red. masses --      6.9185                 6.9655                 2.3247
 Frc consts  --      2.3643                 2.5361                 0.9149
 IR Inten    --      8.0358                 0.0000                 2.7417

                     19                     20                     21
                      A                      A                      A
 Frequencies --    849.4296               968.7954              1008.7891
 Red. masses --      1.8493                 1.9738                 1.2443
 Frc consts  --      0.7862                 1.0915                 0.7460
 IR Inten    --     50.3184                 0.0600                 0.0000

                     22                     23                     24
                      A                      A                      A
 Frequencies --   1022.6984              1055.8770              1064.0284
 Red. masses --      1.4569                 1.5354                 1.9735
 Frc consts  --      0.8978                 1.0086                 1.3164
 IR Inten    --      0.1507                 0.0009                73.8318

                     25                     26                     27
                      A                      A                      A
 Frequencies --   1123.8769              1144.4134              1149.0869
 Red. masses --      2.0762                 3.7912                 1.4413
 Frc consts  --      1.5451                 2.9254                 1.1213
 IR Inten    --      0.0172                16.1867                 2.7881

                     28                     29                     30
                      A                      A                      A
 Frequencies --   1308.4229              1312.6088              1387.6332
 Red. masses --      3.9632                 3.0181                 1.7739
 Frc consts  --      3.9975                 3.0637                 2.0125
 IR Inten    --    105.3907                37.7334                 0.4162

                     31                     32                     33
                      A                      A                      A
 Frequencies --   1403.9385              1408.7402              1479.2973
 Red. masses --      1.3751                 1.2062                 1.0653
 Frc consts  --      1.5969                 1.4103                 1.3736
 IR Inten    --     13.6000                19.5798                 0.0068

                     34                     35                     36
                      A                      A                      A
 Frequencies --   1482.1030              1487.4929              1500.8332
 Red. masses --      1.1088                 1.0446                 1.0448
 Frc consts  --      1.4350                 1.3618                 1.3866
 IR Inten    --     39.8527                 0.0004                23.7012

                     37                     38                     39
                      A                      A                      A
 Frequencies --   1643.7900              1682.6313              1712.0236
 Red. masses --      8.6913                 9.3652                11.6458
 Frc consts  --     13.8365                15.6224                20.1113
 IR Inten    --     34.6159                 0.6865               466.9570

                     40                     41                     42
                      A                      A                      A
 Frequencies --   1715.5666              3023.4958              3026.6530
 Red. masses --      9.3219                 1.0396                 1.0406
 Frc consts  --     16.1648                 5.5991                 5.6163
 IR Inten    --      2.4535                25.9846                 0.4326

                     43                     44                     45
                      A                      A                      A
 Frequencies --   3065.8121              3073.1519              3137.8482
 Red. masses --      1.0992                 1.0994                 1.0970
 Frc consts  --      6.0874                 6.1175                 6.3636
 IR Inten    --     23.4175                 0.0020                 1.9428

                     46                     47                     48
                      A                      A                      A
 Frequencies --   3138.4436              3176.0434              3194.4739
 Red. masses --      1.0973                 1.0871                 1.0998
 Frc consts  --      6.3683                 6.4608                 6.6126
 IR Inten    --      4.7334                 1.2224                 3.6813

 - Thermochemistry -
 -------------------
 Temperature   298.150 Kelvin.  Pressure   1.00000 Atm.
 Atom     1 has atomic number  6 and mass  12.00000

 Molecular mass:   136.05243 amu.
 Principal axes and moments of inertia in atomic units:
                           1         2         3
     Eigenvalues --   925.136711341.631972244.49117
           X            0.05049   0.99649   0.06676
           Y            0.98428  -0.03832  -0.17239
           Z            0.16923  -0.07442   0.98276
 This molecule is an asymmetric top.
 Rotational symmetry number  1.
 Warning -- assumption of classical behavior for rotation
           may cause significant error
 Rotational temperatures (Kelvin)      0.09362     0.06456     0.03859
 Rotational constants (GHZ):           1.95078     1.34518     0.80408
 Zero-point vibrational energy     366026.6 (Joules/Mol)
                                   87.48246 (Kcal/Mol)
 Warning -- explicit consideration of  14 degrees of freedom as
           vibrations may cause significant error
 Vibrational temperatures:     48.48   106.72   122.16   154.53   355.78
          (Kelvin)            374.16   439.32   477.00   594.18   639.12
                              672.26   708.03   860.85   862.06   897.03
                             1095.75  1131.02  1175.91  1222.14  1393.88
                             1451.42  1471.43  1519.17  1530.90  1617.01
                             1646.56  1653.28  1882.53  1888.55  1996.49
                             2019.95  2026.86  2128.38  2132.42  2140.17
                             2159.36  2365.05  2420.93  2463.22  2468.32
                             4350.14  4354.68  4411.02  4421.58  4514.66
                             4515.52  4569.62  4596.14

 Zero-point correction=                           0.139412 (Hartree/Particle)
 Thermal correction to Energy=                    0.149275
 Thermal correction to Enthalpy=                  0.150219
 Thermal correction to Gibbs Free Energy=         0.103236
 Sum of electronic and zero-point Energies=           -460.082746
 Sum of electronic and thermal Energies=              -460.072883
 Sum of electronic and thermal Enthalpies=            -460.071939
 Sum of electronic and thermal Free Energies=         -460.118922

                     E (Thermal)             CV                S
                      KCal/Mol        Cal/Mol-Kelvin    Cal/Mol-Kelvin
 Total                   93.671             35.227             98.884
 Electronic               0.000              0.000              0.000
 Translational            0.889              2.981             40.636
 Rotational               0.889              2.981             29.412
 Vibrational             91.894             29.265             28.836
 Vibration     1          0.594              1.983              5.599
 Vibration     2          0.599              1.966              4.039
 Vibration     3          0.601              1.960              3.774
 Vibration     4          0.606              1.943              3.315
 Vibration     5          0.661              1.767              1.750
 Vibration     6          0.668              1.746              1.661
 Vibration     7          0.696              1.664              1.387
 Vibration     8          0.714              1.613              1.253
 Vibration     9          0.777              1.442              0.916
 Vibration    10          0.804              1.374              0.813
 Vibration    11          0.825              1.323              0.745
 Vibration    12          0.848              1.268              0.678
 Vibration    13          0.956              1.035              0.453
 Vibration    14          0.957              1.034              0.451

                           ! Non-Optimized Parameters !
 Normal termination of Gaussian 16 at Sun Dec 17 21:15:47 2023.
