 Q-Chem 5.4, Q-Chem, Inc., Pleasanton, CA (2021)
 Q-Chem 5.4.0 for Intel X86 EM64T Linux

User input:
--------------------------------------------------------------
$molecule
-1 2
C                 -0.2700010000      3.8131090000     -0.1798550000
C                 -1.4822090000      3.2161300000     -0.4722980000
C                 -1.5242070000      1.8680380000     -0.8821750000
C                  0.9372760000      3.0888630000     -0.2854930000
C                  0.8969250000      1.7264980000     -0.6999650000
C                 -0.3484570000      1.1432000000     -0.9915360000
C                  2.2060020000      3.7146330000      0.0211430000
C                  3.3860930000      2.8926940000     -0.1169900000
C                  3.3824630000      1.5703650000     -0.5079180000
C                  2.1299230000      0.9207270000     -0.8293780000
O                  2.3566060000      4.9229110000      0.3994750000
O                  2.0814490000     -0.2808010000     -1.2018190000
H                 -0.2120760000      4.8482490000      0.1374190000
H                 -2.4033110000      3.7855180000     -0.3866290000
H                 -2.4768100000      1.3998370000     -1.1117080000
H                 -0.3509240000      0.1054210000     -1.3053280000
O                  4.5438700000      3.5496540000      0.1852820000
C                  4.6594890000      0.7797950000     -0.6294760000
C                  5.2400530000      0.7781540000     -2.0569080000
C                  6.5192970000     -0.0559760000     -2.1852020000
C                  7.1088890000     -0.0671100000     -3.6003530000
C                  8.3874800000     -0.9029330000     -3.7325120000
H                  4.2115400000      4.4421420000      0.4286720000
H                  4.4488040000     -0.2553120000     -0.3418320000
H                  5.4075020000      1.1834300000      0.0607100000
H                  5.4447170000      1.8117800000     -2.3609290000
H                  4.4777300000      0.3889690000     -2.7402030000
H                  6.3079990000     -1.0879400000     -1.8745540000
H                  7.2739370000      0.3255070000     -1.4835110000
H                  7.3183890000      0.9647660000     -3.9120220000
H                  6.3543380000     -0.4476890000     -4.3010540000
H                  8.1776500000     -1.9348310000     -3.4209930000
H                  9.1419170000     -0.5226050000     -3.0308440000
C                  8.9764820000     -0.9142190000     -5.1476980000
H                  9.1870230000      0.1172630000     -5.4603390000
H                  8.2228700000     -1.2945290000     -5.8500330000
C                 10.2545130000     -1.7503530000     -5.2806440000
C                 10.8346310000     -1.7549170000     -6.6985400000
H                 10.0444620000     -2.7812250000     -4.9695260000
H                 11.0081990000     -1.3703970000     -4.5797180000
H                 10.1161160000     -2.1619030000     -7.4175600000
H                 11.7447450000     -2.3596270000     -6.7598080000
H                 11.0868220000     -0.7406560000     -7.0250710000
$end

$rem
BASIS  =  6-311++G(d,p)
GUI  =  2
JOB_TYPE  =  SP
METHOD  =  B3LYP
SCF_CONVERGENCE  = 8
SOLVENT_METHOD = sm12
$end

$smx
solvent dimethylformamide
charges CM5
$end

--------------------------------------------------------------

             Standard Nuclear Orientation (Angstroms)
    I     Atom           X                Y                Z
 ----------------------------------------------------------------
    1      C      -0.2700010000     3.8131090000    -0.1798550000
    2      C      -1.4822090000     3.2161300000    -0.4722980000
    3      C      -1.5242070000     1.8680380000    -0.8821750000
    4      C       0.9372760000     3.0888630000    -0.2854930000
    5      C       0.8969250000     1.7264980000    -0.6999650000
    6      C      -0.3484570000     1.1432000000    -0.9915360000
    7      C       2.2060020000     3.7146330000     0.0211430000
    8      C       3.3860930000     2.8926940000    -0.1169900000
    9      C       3.3824630000     1.5703650000    -0.5079180000
   10      C       2.1299230000     0.9207270000    -0.8293780000
   11      O       2.3566060000     4.9229110000     0.3994750000
   12      O       2.0814490000    -0.2808010000    -1.2018190000
   13      H      -0.2120760000     4.8482490000     0.1374190000
   14      H      -2.4033110000     3.7855180000    -0.3866290000
   15      H      -2.4768100000     1.3998370000    -1.1117080000
   16      H      -0.3509240000     0.1054210000    -1.3053280000
   17      O       4.5438700000     3.5496540000     0.1852820000
   18      C       4.6594890000     0.7797950000    -0.6294760000
   19      C       5.2400530000     0.7781540000    -2.0569080000
   20      C       6.5192970000    -0.0559760000    -2.1852020000
   21      C       7.1088890000    -0.0671100000    -3.6003530000
   22      C       8.3874800000    -0.9029330000    -3.7325120000
   23      H       4.2115400000     4.4421420000     0.4286720000
   24      H       4.4488040000    -0.2553120000    -0.3418320000
   25      H       5.4075020000     1.1834300000     0.0607100000
   26      H       5.4447170000     1.8117800000    -2.3609290000
   27      H       4.4777300000     0.3889690000    -2.7402030000
   28      H       6.3079990000    -1.0879400000    -1.8745540000
   29      H       7.2739370000     0.3255070000    -1.4835110000
   30      H       7.3183890000     0.9647660000    -3.9120220000
   31      H       6.3543380000    -0.4476890000    -4.3010540000
   32      H       8.1776500000    -1.9348310000    -3.4209930000
   33      H       9.1419170000    -0.5226050000    -3.0308440000
   34      C       8.9764820000    -0.9142190000    -5.1476980000
   35      H       9.1870230000     0.1172630000    -5.4603390000
   36      H       8.2228700000    -1.2945290000    -5.8500330000
   37      C      10.2545130000    -1.7503530000    -5.2806440000
   38      C      10.8346310000    -1.7549170000    -6.6985400000
   39      H      10.0444620000    -2.7812250000    -4.9695260000
   40      H      11.0081990000    -1.3703970000    -4.5797180000
   41      H      10.1161160000    -2.1619030000    -7.4175600000
   42      H      11.7447450000    -2.3596270000    -6.7598080000
   43      H      11.0868220000    -0.7406560000    -7.0250710000
 ----------------------------------------------------------------

   18    -925.1906419375      5.97e-09  Convergence criterion met
 Total energy in the final basis set =     -925.2789307143

                    Orbital Energies (a.u.)
 --------------------------------------------------------------

 Alpha MOs
 -- Occupied --
-19.1442 -19.0859 -19.0731 -10.2239 -10.2236 -10.2214 -10.1816 -10.1803
-10.1802 -10.1787 -10.1780 -10.1773 -10.1653 -10.1649 -10.1645 -10.1635
-10.1634 -10.1633 -10.1631 -10.1627 -10.1579  -1.0638  -0.9981  -0.9953
 -0.8638  -0.8194  -0.8089  -0.7885  -0.7635  -0.7572  -0.7362  -0.7022
 -0.6741  -0.6494  -0.6233  -0.6094  -0.5870  -0.5788  -0.5764  -0.5722
 -0.5413  -0.5078  -0.4893  -0.4836  -0.4692  -0.4603  -0.4573  -0.4401
 -0.4354  -0.4335  -0.4294  -0.4196  -0.4173  -0.4089  -0.4016  -0.3920
 -0.3894  -0.3882  -0.3805  -0.3719  -0.3650  -0.3579  -0.3529  -0.3487
 -0.3446  -0.3420  -0.3337  -0.3334  -0.3267  -0.3247  -0.3236  -0.3088
 -0.2706  -0.2637  -0.2585  -0.2380  -0.2307  -0.1520

 Beta MOs
 -- Occupied --
-19.1437 -19.0791 -19.0675 -10.2229 -10.2227 -10.2188 -10.1816 -10.1799
-10.1794 -10.1783 -10.1778 -10.1766 -10.1653 -10.1647 -10.1641 -10.1635
-10.1634 -10.1633 -10.1631 -10.1627 -10.1579  -1.0617  -0.9885  -0.9840
 -0.8615  -0.8180  -0.8073  -0.7871  -0.7622  -0.7552  -0.7353  -0.7005
 -0.6674  -0.6475  -0.6219  -0.6077  -0.5858  -0.5788  -0.5758  -0.5701
 -0.5396  -0.5056  -0.4883  -0.4820  -0.4679  -0.4596  -0.4566  -0.4369
 -0.4332  -0.4301  -0.4289  -0.4151  -0.4144  -0.4052  -0.3996  -0.3891
 -0.3878  -0.3807  -0.3782  -0.3685  -0.3598  -0.3576  -0.3478  -0.3446
 -0.3407  -0.3341  -0.3327  -0.3281  -0.3265  -0.3239  -0.3232  -0.3080
 -0.2566  -0.2526  -0.2503  -0.2326  -0.2206

          Ground-State Mulliken Net Atomic Charges

     Atom                 Charge (a.u.)    Spin (a.u.)
  --------------------------------------------------------
      1 C                     0.135421       0.073478
      2 C                     0.850390       0.001476
      3 C                     0.839634       0.075381
      4 C                    -0.562707       0.006051
      5 C                    -1.200854       0.072305
      6 C                    -0.177371      -0.000280
      7 C                    -1.564236       0.136862
      8 C                    -0.604500       0.059479
      9 C                     1.245530       0.056734
     10 C                    -1.999224       0.048979
     11 O                    -0.373685       0.248582
     12 O                    -0.291218       0.210640
     13 H                     0.170348      -0.004016
     14 H                     0.356249      -0.000691
     15 H                     0.341191      -0.005334
     16 H                     0.140608      -0.000274
     17 O                    -0.141083       0.015798
     18 C                    -0.558261       0.011099
     19 C                    -2.135234      -0.000270
     20 C                    -0.294890       0.000765
     21 C                     0.404342      -0.005136
     22 C                     1.092403      -0.000706
     23 H                     0.296404      -0.004013
     24 H                     0.129113       0.002844
     25 H                     0.189140      -0.000945
     26 H                     0.085457       0.002696
     27 H                     0.071562      -0.001861
     28 H                     0.166553       0.000736
     29 H                     0.168389      -0.000458
     30 H                     0.122123      -0.000033
     31 H                     0.112716      -0.000022
     32 H                     0.107482      -0.000008
     33 H                     0.109803      -0.000003
     34 C                     0.778543       0.000036
     35 H                     0.104908      -0.000005
     36 H                     0.104313       0.000001
     37 C                     0.293163       0.000134
     38 C                    -0.250884      -0.000008
     39 H                     0.122786       0.000006
     40 H                     0.123782      -0.000010
     41 H                     0.138628       0.000001
     42 H                     0.213798      -0.000006
     43 H                     0.139370      -0.000002
  --------------------------------------------------------
  Sum of atomic charges =    -1.000000

                    Cartesian Multipole Moments
 -----------------------------------------------------------------
    Charge (ESU x 10^10)
                -4.8032
    Dipole Moment (Debye)
         X     -11.0611      Y     -10.5168      Z       2.2012
       Tot      15.4207
    Quadrupole Moments (Debye-Ang)
        XX    -167.7166     XY     -23.9524     YY    -182.3549
        XZ       6.2089     YZ      -2.7703     ZZ    -140.7955

 Total job time:  2250.32s(wall), 16494.94s(cpu)
        *  Thank you very much for using Q-Chem.  Have a nice day.  *
