 Gaussian 16, Revision A.03,
 Gaussian 16:  ES64L-G16RevA.03 25-Dec-2016

 ----------------------------------------------------------------------
 #P UB3LYP/6-311++G(d,p) nosym opt freq SCRF=(PCM,Solvent=n,n-DiMethylF
 ormamide)
 ----------------------------------------------------------------------

 -------
 Reduced
 -------
 Symbolic Z-matrix:
 Charge = -2 Multiplicity = 1

 SCF Done:  E(UB3LYP) =  -879.052204180     A.U. after   16 cycles
 SCF Done:  E(UB3LYP) =  -879.052676911     A.U. after   12 cycles
 SCF Done:  E(UB3LYP) =  -879.052692153     A.U. after   12 cycles
 SCF Done:  E(UB3LYP) =  -879.052752963     A.U. after   12 cycles
 SCF Done:  E(UB3LYP) =  -879.052770291     A.U. after   11 cycles
 SCF Done:  E(UB3LYP) =  -879.052773186     A.U. after   11 cycles
 SCF Done:  E(UB3LYP) =  -879.052773924     A.U. after    9 cycles
 SCF Done:  E(UB3LYP) =  -879.052774050     A.U. after   10 cycles
 Optimization completed.
    -- Stationary point found.
 Normal termination of Gaussian 16 at Sat Feb 10 22:56:09 2024.

 ----------------------------------------------------------------------
 #P Geom=AllCheck Guess=TCheck SCRF=Check GenChk UB3LYP/6-311++G(d,p) F
 req
 ----------------------------------------------------------------------

 Structure from the checkpoint file:  "196-an.chk"
 -------
 Reduced
 -------
 Charge = -2 Multiplicity = 1

                          Input orientation:
 ---------------------------------------------------------------------
 Center     Atomic      Atomic             Coordinates (Angstroms)
 Number     Number       Type             X           Y           Z
 ---------------------------------------------------------------------
      1          6           0       -4.671609    0.281819   -0.090387
      2          6           0       -3.203905   -0.069901   -0.029519
      3          6           0       -2.817341   -1.442802   -0.062437
      4          6           0       -1.488357   -1.801025   -0.011905
      5          8           0       -1.143341   -3.119215   -0.046429
      6          6           0       -0.446962   -0.808737    0.076685
      7          6           0        0.916471   -1.195543    0.125979
      8          8           0        1.270805   -2.501634    0.097024
      9          6           0        1.896433   -0.173968    0.206389
     10          6           0        3.298373   -0.506132    0.253245
     11          8           0        3.668532   -1.817544    0.220784
     12          6           0        4.264824    0.474536    0.329356
     13          6           0        3.880599    1.842573    0.361157
     14          6           0        2.554591    2.201566    0.319580
     15          6           0        1.519978    1.222415    0.241969
     16          6           0        0.139260    1.634400    0.201325
     17          8           0       -0.202424    2.886163    0.240432
     18          6           0       -0.838404    0.579767    0.111731
     19          6           0       -2.229729    0.897681    0.056102
     20          1           0       -5.136641   -0.093971   -1.009392
     21          1           0       -5.225782   -0.161220    0.745439
     22          1           0       -4.821204    1.363457   -0.056563
     23          1           0       -3.568283   -2.224560   -0.129510
     24          1           0       -0.127612   -3.119906    0.003416
     25          1           0        2.791750   -2.330312    0.166214
     26          1           0        5.310230    0.186490    0.362968
     27          1           0        4.651386    2.605423    0.419431
     28          1           0        2.259059    3.243363    0.343192
     29          1           0       -2.500696    1.946816    0.082220
 ---------------------------------------------------------------------

 SCF Done:  E(UB3LYP) =  -879.052774050     A.U. after    1 cycles

 Alpha  occ. eigenvalues --  -19.10879 -19.10871 -19.05799 -19.02110 -10.21164
 Alpha  occ. eigenvalues --  -10.21155 -10.18902 -10.17891 -10.15891 -10.15354
 Alpha  occ. eigenvalues --  -10.15095 -10.14863 -10.14771 -10.14176 -10.14107
 Alpha  occ. eigenvalues --  -10.14077 -10.13976 -10.13828 -10.13543  -1.02970
 Alpha  occ. eigenvalues --   -1.02301  -0.95104  -0.93413  -0.83148  -0.81941
 Alpha  occ. eigenvalues --   -0.77023  -0.72979  -0.71829  -0.71322  -0.67907
 Alpha  occ. eigenvalues --   -0.64197  -0.61011  -0.59233  -0.56419  -0.55239
 Alpha  occ. eigenvalues --   -0.50876  -0.49350  -0.48764  -0.47000  -0.45035
 Alpha  occ. eigenvalues --   -0.44033  -0.43990  -0.41164  -0.41063  -0.40061
 Alpha  occ. eigenvalues --   -0.39572  -0.38817  -0.38274  -0.38094  -0.37046
 Alpha  occ. eigenvalues --   -0.36736  -0.35624  -0.35044  -0.33752  -0.33236
 Alpha  occ. eigenvalues --   -0.32762  -0.32329  -0.30919  -0.30642  -0.28513
 Alpha  occ. eigenvalues --   -0.23820  -0.23492  -0.21775  -0.20592  -0.20306
 Alpha  occ. eigenvalues --   -0.19909  -0.11725
 Alpha virt. eigenvalues --   -0.01821  -0.00150   0.00018   0.00699   0.01413
 Alpha virt. eigenvalues --    0.02205   0.02659   0.03151   0.03673   0.04088
 Alpha virt. eigenvalues --    0.04380   0.04857   0.05462   0.06374   0.06472

  Beta  occ. eigenvalues --  -19.10879 -19.10871 -19.05799 -19.02110 -10.21164
  Beta  occ. eigenvalues --  -10.21155 -10.18902 -10.17891 -10.15891 -10.15354
  Beta  occ. eigenvalues --  -10.15095 -10.14863 -10.14771 -10.14176 -10.14107
  Beta  occ. eigenvalues --  -10.14077 -10.13976 -10.13828 -10.13543  -1.02970
  Beta  occ. eigenvalues --   -1.02301  -0.95104  -0.93413  -0.83148  -0.81941
  Beta  occ. eigenvalues --   -0.77023  -0.72979  -0.71829  -0.71322  -0.67907
  Beta  occ. eigenvalues --   -0.64197  -0.61011  -0.59233  -0.56419  -0.55239
  Beta  occ. eigenvalues --   -0.50876  -0.49350  -0.48764  -0.47000  -0.45035
  Beta  occ. eigenvalues --   -0.44033  -0.43990  -0.41164  -0.41063  -0.40061
  Beta  occ. eigenvalues --   -0.39572  -0.38817  -0.38274  -0.38094  -0.37046
  Beta  occ. eigenvalues --   -0.36736  -0.35624  -0.35044  -0.33752  -0.33236
  Beta  occ. eigenvalues --   -0.32762  -0.32329  -0.30919  -0.30642  -0.28513
  Beta  occ. eigenvalues --   -0.23820  -0.23492  -0.21775  -0.20592  -0.20306
  Beta  occ. eigenvalues --   -0.19909  -0.11725
  Beta virt. eigenvalues --   -0.01821  -0.00150   0.00018   0.00699   0.01413
  Beta virt. eigenvalues --    0.02205   0.02659   0.03151   0.03673   0.04088
  Beta virt. eigenvalues --    0.04380   0.04857   0.05462   0.06374   0.06472

 Mulliken charges and spin densities:
               1          2
     1  C   -0.308821  -0.000000
     2  C    0.345051  -0.000000
     3  C   -0.381209   0.000000
     4  C   -0.003870   0.000000
     5  O   -0.466472   0.000000
     6  C    0.418274   0.000000
     7  C   -0.410968  -0.000000
     8  O   -0.744813   0.000000
     9  C    0.513852   0.000000
    10  C   -0.113798   0.000000
    11  O   -0.465554   0.000000
    12  C   -0.310366   0.000000
    13  C   -0.424378  -0.000000
    14  C   -0.265239  -0.000000
    15  C    0.234844  -0.000000
    16  C   -0.472182  -0.000000
    17  O   -0.648834   0.000000
    18  C   -0.079339   0.000000
    19  C   -0.460662   0.000000
    20  H    0.152422   0.000000
    21  H    0.152393   0.000000
    22  H    0.155466   0.000000
    23  H    0.153692  -0.000000
    24  H    0.433896  -0.000000
    25  H    0.432755  -0.000000
    26  H    0.158957   0.000000
    27  H    0.164919  -0.000000
    28  H    0.134124  -0.000000
    29  H    0.105859   0.000000
 Sum of Mulliken charges =  -2.00000  -0.00000

 Dipole moment (field-independent basis, Debye):
    X=             -6.0222    Y=             -0.7162    Z=             -1.5656  Tot=              6.2635
 Quadrupole moment (field-independent basis, Debye-Ang):
   XX=           -155.8713   YY=           -176.5588   ZZ=           -122.7382
   XY=              6.3625   XZ=             -2.0141   YZ=             -1.9960

  Exact polarizability: 559.694  42.110 385.539  19.478  10.376 164.691
 Approx polarizability: 605.290  34.356 466.476  20.332  12.460 183.945

                      1                      2                      3
                      A                      A                      A
 Frequencies --     55.2935                78.3799               106.5427
 Red. masses --      5.5271                 6.9127                 5.7110
 Frc consts  --      0.0100                 0.0250                 0.0382
 IR Inten    --      9.1376                 1.6891                 1.4106

                      4                      5                      6
                      A                      A                      A
 Frequencies --    119.6389               157.1310               188.5588
 Red. masses --      1.2014                 5.4785                 4.4459
 Frc consts  --      0.0101                 0.0797                 0.0931
 IR Inten    --      0.3339                 2.7537                 3.5229

                      7                      8                      9
                      A                      A                      A
 Frequencies --    195.6409               212.8603               261.2326
 Red. masses --      4.2740                 4.4238                 4.8047
 Frc consts  --      0.0964                 0.1181                 0.1932
 IR Inten    --      7.6522                 0.3080                 0.6326

                     10                     11                     12
                      A                      A                      A
 Frequencies --    280.3500               326.6896               340.9129
 Red. masses --      4.9583                 5.7047                 6.0323
 Frc consts  --      0.2296                 0.3587                 0.4131
 IR Inten    --      0.7870                 1.5555                22.4148

                     13                     14                     15
                      A                      A                      A
 Frequencies --    349.6884               365.6971               404.1951
 Red. masses --      6.3514                 6.1114                 7.1222
 Frc consts  --      0.4576                 0.4815                 0.6856
 IR Inten    --     15.3336                 4.2194                 2.0614

                     16                     17                     18
                      A                      A                      A
 Frequencies --    435.0172               457.6654               498.7443
 Red. masses --      7.5386                 8.7862                10.3506
 Frc consts  --      0.8405                 1.0843                 1.5170
 IR Inten    --    133.4677                54.7257                 9.3634

                     19                     20                     21
                      A                      A                      A
 Frequencies --    502.7269               506.9081               547.9279
 Red. masses --      5.7026                 4.2592                 8.2040
 Frc consts  --      0.8492                 0.6448                 1.4512
 IR Inten    --      1.1337                 7.5052                12.0006

                     22                     23                     24
                      A                      A                      A
 Frequencies --    561.3359               563.9822               611.4431
 Red. masses --      5.0804                 7.1140                 4.5895
 Frc consts  --      0.9432                 1.3332                 1.0110
 IR Inten    --      0.7341                67.6754                 2.4645

                     25                     26                     27
                      A                      A                      A
 Frequencies --    613.1603               621.2961               667.7869
 Red. masses --      5.0162                 3.4811                 5.6014
 Frc consts  --      1.1111                 0.7917                 1.4717
 IR Inten    --     12.7415                12.7505                72.0297

                     28                     29                     30
                      A                      A                      A
 Frequencies --    716.4420               734.5369               735.4020
 Red. masses --      2.3546                 6.3842                 5.0822
 Frc consts  --      0.7121                 2.0295                 1.6194
 IR Inten    --     34.1362                 6.4486                 8.4215

                     31                     32                     33
                      A                      A                      A
 Frequencies --    755.1862               796.6601               811.7496
 Red. masses --      2.0727                 3.8443                 7.9951
 Frc consts  --      0.6965                 1.4375                 3.1040
 IR Inten    --    105.7366                 3.3077                53.2691

                     34                     35                     36
                      A                      A                      A
 Frequencies --    818.6279               843.2373               881.2112
 Red. masses --      1.6571                 1.5533                 1.3852
 Frc consts  --      0.6543                 0.6508                 0.6338
 IR Inten    --     69.7245                 5.5137                21.2955

                     37                     38                     39
                      A                      A                      A
 Frequencies --    907.2506               907.7275               954.3006
 Red. masses --      1.0752                 5.4279                 1.0697
 Frc consts  --      0.5214                 2.6351                 0.5739
 IR Inten    --    240.0492                38.0268                 0.1624

                     40                     41                     42
                      A                      A                      A
 Frequencies --    955.1355               966.5035               997.2790
 Red. masses --      1.2192                 5.4125                 2.9218
 Frc consts  --      0.6553                 2.9789                 1.7121
 IR Inten    --      1.3430               149.3569               291.1015

                     43                     44                     45
                      A                      A                      A
 Frequencies --   1007.5011              1050.5982              1053.4594
 Red. masses --      2.1940                 2.3025                 1.4867
 Frc consts  --      1.3121                 1.4973                 0.9721
 IR Inten    --    329.4992               139.5310                 5.3902

                     46                     47                     48
                      A                      A                      A
 Frequencies --   1072.9666              1098.9859              1141.0100
 Red. masses --      3.0246                 3.8213                 1.6436
 Frc consts  --      2.0516                 2.7192                 1.2607
 IR Inten    --     24.9408               204.4675               169.8584

                     49                     50                     51
                      A                      A                      A
 Frequencies --   1147.6086              1211.1315              1231.4415
 Red. masses --      1.4510                 2.1328                 2.6971
 Frc consts  --      1.1259                 1.8433                 2.4097
 IR Inten    --    262.4583               295.3546               198.8333

                     52                     53                     54
                      A                      A                      A
 Frequencies --   1256.7177              1276.2068              1301.0748
 Red. masses --      2.8399                 5.9492                 5.7083
 Frc consts  --      2.6426                 5.7089                 5.6932
 IR Inten    --     63.1399                25.1723                29.8992

                     55                     56                     57
                      A                      A                      A
 Frequencies --   1311.4438              1355.0339              1367.1530
 Red. masses --      2.2129                 5.6326                 7.5475
 Frc consts  --      2.2423                 6.0934                 8.3116
 IR Inten    --      8.9038              2018.6701               271.2253

                     58                     59                     60
                      A                      A                      A
 Frequencies --   1395.3707              1397.5273              1406.7835
 Red. masses --      4.3519                 1.8857                 1.8057
 Frc consts  --      4.9924                 2.1699                 2.1055
 IR Inten    --     80.7012                46.9454               129.7176

                     61                     62                     63
                      A                      A                      A
 Frequencies --   1445.0000              1459.8776              1469.8792
 Red. masses --      2.5928                 5.7585                 1.0443
 Frc consts  --      3.1898                 7.2309                 1.3294
 IR Inten    --     37.0437               900.8978                 9.0623

                     64                     65                     66
                      A                      A                      A
 Frequencies --   1483.2043              1514.6564              1531.5213
 Red. masses --      1.2276                 4.0914                 4.3739
 Frc consts  --      1.5911                 5.5303                 6.0445
 IR Inten    --     26.8869                22.6260               184.0757

                     67                     68                     69
                      A                      A                      A
 Frequencies --   1561.4917              1570.8144              1594.1736
 Red. masses --      2.3824                 2.7070                 4.3762
 Frc consts  --      3.4225                 3.9355                 6.5526
 IR Inten    --    177.2348               444.1354                 6.4711

                     70                     71                     72
                      A                      A                      A
 Frequencies --   1641.4980              1685.8657              2691.5225
 Red. masses --      3.1053                 1.9431                 1.0770
 Frc consts  --      4.9298                 3.2538                 4.5969
 IR Inten    --    508.4757                15.8881              2653.1086

                     73                     74                     75
                      A                      A                      A
 Frequencies --   2817.5122              3000.3093              3038.4039
 Red. masses --      1.0785                 1.0385                 1.0998
 Frc consts  --      5.0445                 5.5079                 5.9824
 IR Inten    --     45.8713               199.7106                47.5550

                     76                     77                     78
                      A                      A                      A
 Frequencies --   3088.1616              3143.2787              3150.0923
 Red. masses --      1.0982                 1.0861                 1.0895
 Frc consts  --      6.1707                 6.3224                 6.3699
 IR Inten    --     48.3662                39.5236                53.1057

                     79                     80                     81
                      A                      A                      A
 Frequencies --   3166.6303              3172.0011              3184.5467
 Red. masses --      1.0915                 1.0887                 1.0919
 Frc consts  --      6.4485                 6.4542                 6.5243
 IR Inten    --     47.3158                31.3465                46.3559

 - Thermochemistry -
 -------------------
 Temperature   298.150 Kelvin.  Pressure   1.00000 Atm.
 Atom     1 has atomic number  6 and mass  12.00000

 Molecular mass:   254.05791 amu.
 Principal axes and moments of inertia in atomic units:
                           1         2         3
     Eigenvalues --  2592.621426008.365068589.76800
           X            0.99031  -0.13120  -0.04562
           Y            0.12952   0.99085  -0.03797
           Z            0.05018   0.03169   0.99824
 This molecule is an asymmetric top.
 Rotational symmetry number  1.
 Warning -- assumption of classical behavior for rotation
           may cause significant error
 Rotational temperatures (Kelvin)      0.03341     0.01442     0.01008
 Rotational constants (GHZ):           0.69611     0.30037     0.21010
 Zero-point vibrational energy     552103.6 (Joules/Mol)
                                  131.95592 (Kcal/Mol)
 Warning -- explicit consideration of  25 degrees of freedom as
           vibrations may cause significant error
 Vibrational temperatures:     79.55   112.77   153.29   172.13   226.08
          (Kelvin)            271.29   281.48   306.26   375.86   403.36
                              470.03   490.50   503.12   526.16   581.55
                              625.89   658.48   717.58   723.31   729.33
                              788.35   807.64   811.44   879.73   882.20
                              893.91   960.80  1030.80  1056.83  1058.08
                             1086.54  1146.22  1167.93  1177.82  1213.23
                             1267.87  1305.33  1306.02  1373.03  1374.23
                             1390.58  1434.86  1449.57  1511.58  1515.69
                             1543.76  1581.20  1641.66  1651.15  1742.55
                             1771.77  1808.14  1836.18  1871.96  1886.88
                             1949.59  1967.03  2007.63  2010.73  2024.05
                             2079.03  2100.44  2114.83  2134.00  2179.25
                             2203.52  2246.64  2260.05  2293.66  2361.75
                             2425.58  3872.50  4053.77  4316.78  4371.59
                             4443.18  4522.48  4532.28  4556.07  4563.80
                             4581.85

 Zero-point correction=                           0.210285 (Hartree/Particle)
 Thermal correction to Energy=                    0.224857
 Thermal correction to Enthalpy=                  0.225802
 Thermal correction to Gibbs Free Energy=         0.169266
 Sum of electronic and zero-point Energies=           -878.842489
 Sum of electronic and thermal Energies=              -878.827917
 Sum of electronic and thermal Enthalpies=            -878.826972
 Sum of electronic and thermal Free Energies=         -878.883508

                     E (Thermal)             CV                S
                      KCal/Mol        Cal/Mol-Kelvin    Cal/Mol-Kelvin
 Total                  141.100             59.265            118.989
 Electronic               0.000              0.000              0.000
 Translational            0.889              2.981             42.497
 Rotational               0.889              2.981             33.259
 Vibrational            139.323             53.304             43.233
 Vibration     1          0.596              1.975              4.618
 Vibration     2          0.600              1.964              3.931
 Vibration     3          0.605              1.944              3.331
 Vibration     4          0.609              1.933              3.106
 Vibration     5          0.621              1.895              2.584
 Vibration     6          0.633              1.856              2.242
 Vibration     7          0.636              1.846              2.174
 Vibration     8          0.644              1.821              2.019
 Vibration     9          0.669              1.744              1.654
 Vibration    10          0.680              1.710              1.532
 Vibration    11          0.710              1.622              1.276
 Vibration    12          0.720              1.594              1.208
 Vibration    13          0.727              1.576              1.168
 Vibration    14          0.739              1.543              1.098
 Vibration    15          0.769              1.461              0.947
 Vibration    16          0.796              1.394              0.842
 Vibration    17          0.816              1.344              0.773
 Vibration    18          0.854              1.253              0.661
 Vibration    19          0.858              1.244              0.651
 Vibration    20          0.862              1.235              0.641
 Vibration    21          0.903              1.144              0.548
 Vibration    22          0.917              1.115              0.521
 Vibration    23          0.920              1.109              0.516
 Vibration    24          0.971              1.008              0.430
 Vibration    25          0.972              1.004              0.428

 Optimization completed.
    -- Stationary point found.
 Normal termination of Gaussian 16 at Sun Feb 11 00:41:17 2024.
