 Q-Chem 5.4, Q-Chem, Inc., Pleasanton, CA (2021)
 Q-Chem 5.4.0 for Intel X86 EM64T Linux

User input:
--------------------------------------------------------------
$molecule
0 1
O                  2.5771110000      2.5232570000     -0.2079950000
C                  2.4608900000      1.2095770000      0.0174560000
C                  3.6349230000      0.4787910000      0.2615810000
C                  3.5702760000     -0.8827620000      0.5008650000
C                  2.3429290000     -1.5550980000      0.5045720000
C                  1.1719050000     -0.8500230000      0.2652700000
C                 -0.1263700000     -1.5891110000      0.2738510000
O                 -0.1729930000     -2.7893890000      0.4870560000
C                 -1.3679170000     -0.8032680000      0.0136720000
C                 -2.6024080000     -1.4584020000      0.0136570000
C                 -3.7714340000     -0.7455220000     -0.2265470000
C                 -3.7176040000      0.6298110000     -0.4691890000
C                 -2.4948700000      1.2904630000     -0.4713600000
C                 -1.3142220000      0.5802850000     -0.2304940000
C                 -0.0174350000      1.3041050000     -0.2370640000
O                  0.0142180000      2.5242490000     -0.4540680000
C                  1.2095400000      0.5444270000      0.0175140000
H                  1.6663920000      2.8755090000     -0.3583320000
H                  4.5783200000      1.0110010000      0.2560040000
H                  4.4846610000     -1.4344980000      0.6878980000
H                  2.2831260000     -2.6193660000      0.6907030000
H                 -2.6208410000     -2.5243330000      0.2038600000
H                 -4.7265650000     -1.2582580000     -0.2255210000
H                 -4.6306350000      1.1833650000     -0.6562190000
H                 -2.4309990000      2.3551890000     -0.6571730000
$end

$rem
BASIS  =  6-311++G(d,p)
GUI  =  2
JOB_TYPE  =  SP
METHOD  =  B3LYP
SCF_CONVERGENCE  = 8
SOLVENT_METHOD = sm12
$end

$smx
solvent dimethylformamide
charges CM5
$end

--------------------------------------------------------------

             Standard Nuclear Orientation (Angstroms)
    I     Atom           X                Y                Z
 ----------------------------------------------------------------
    1      O       2.5771110000     2.5232570000    -0.2079950000
    2      C       2.4608900000     1.2095770000     0.0174560000
    3      C       3.6349230000     0.4787910000     0.2615810000
    4      C       3.5702760000    -0.8827620000     0.5008650000
    5      C       2.3429290000    -1.5550980000     0.5045720000
    6      C       1.1719050000    -0.8500230000     0.2652700000
    7      C      -0.1263700000    -1.5891110000     0.2738510000
    8      O      -0.1729930000    -2.7893890000     0.4870560000
    9      C      -1.3679170000    -0.8032680000     0.0136720000
   10      C      -2.6024080000    -1.4584020000     0.0136570000
   11      C      -3.7714340000    -0.7455220000    -0.2265470000
   12      C      -3.7176040000     0.6298110000    -0.4691890000
   13      C      -2.4948700000     1.2904630000    -0.4713600000
   14      C      -1.3142220000     0.5802850000    -0.2304940000
   15      C      -0.0174350000     1.3041050000    -0.2370640000
   16      O       0.0142180000     2.5242490000    -0.4540680000
   17      C       1.2095400000     0.5444270000     0.0175140000
   18      H       1.6663920000     2.8755090000    -0.3583320000
   19      H       4.5783200000     1.0110010000     0.2560040000
   20      H       4.4846610000    -1.4344980000     0.6878980000
   21      H       2.2831260000    -2.6193660000     0.6907030000
   22      H      -2.6208410000    -2.5243330000     0.2038600000
   23      H      -4.7265650000    -1.2582580000    -0.2255210000
   24      H      -4.6306350000     1.1833650000    -0.6562190000
   25      H      -2.4309990000     2.3551890000    -0.6571730000
 ----------------------------------------------------------------

   15    -764.2118332367      1.98e-09  Convergence criterion met
 Total energy in the final basis set =     -764.2345278600

                    Orbital Energies (a.u.)
 --------------------------------------------------------------

 Alpha MOs
 -- Occupied --
-19.1640 -19.1411 -19.1295 -10.2908 -10.2825 -10.2696 -10.2128 -10.2116
-10.2107 -10.2100 -10.2034 -10.1991 -10.1989 -10.1983 -10.1980 -10.1965
-10.1946  -1.0938  -1.0646  -1.0633  -0.8957  -0.8815  -0.8166  -0.7809
 -0.7748  -0.7715  -0.6960  -0.6707  -0.6571  -0.6214  -0.6007  -0.5656
 -0.5611  -0.5409  -0.5090  -0.4962  -0.4881  -0.4780  -0.4665  -0.4615
 -0.4523  -0.4504  -0.4443  -0.4306  -0.4178  -0.4138  -0.3965  -0.3857
 -0.3807  -0.3779  -0.3685  -0.3575  -0.2954  -0.2939  -0.2796  -0.2791
 -0.2773  -0.2525

          Ground-State Mulliken Net Atomic Charges

     Atom                 Charge (a.u.)
  ----------------------------------------
      1 O                    -0.311717
      2 C                    -0.606416
      3 C                     0.296448
      4 C                     0.476939
      5 C                    -0.001521
      6 C                     0.007839
      7 C                    -1.133020
      8 O                    -0.267835
      9 C                    -0.540413
     10 C                     0.267685
     11 C                     0.417766
     12 C                     0.366152
     13 C                     0.361173
     14 C                    -0.214807
     15 C                    -0.864351
     16 O                    -0.303707
     17 C                    -0.122582
     18 H                     0.302111
     19 H                     0.259588
     20 H                     0.362425
     21 H                     0.185924
     22 H                     0.191476
     23 H                     0.327007
     24 H                     0.327955
     25 H                     0.215881
  ----------------------------------------
  Sum of atomic charges =     0.000000

                    Cartesian Multipole Moments
 -----------------------------------------------------------------
    Charge (ESU x 10^10)
                 0.0000
    Dipole Moment (Debye)
         X      -1.7274      Y      -0.4715      Z      -0.0807
       Tot       1.7925
    Quadrupole Moments (Debye-Ang)
        XX     -70.8733     XY      -6.4053     YY    -108.9478
        XZ       3.9255     YZ       1.0246     ZZ     -99.7154

 Total job time:  500.44s(wall), 3856.31s(cpu)
        *  Thank you very much for using Q-Chem.  Have a nice day.  *
