 Gaussian 16, Revision A.03,
 Gaussian 16:  ES64L-G16RevA.03 25-Dec-2016

 --------------------------------------
 #P UB3LYP/6-311++G(d,p) nosym opt freq
 --------------------------------------

 --------
 Oxidized
 --------
 Symbolic Z-matrix:
 Charge =  0 Multiplicity = 1

 SCF Done:  E(UB3LYP) =  -839.411327473     A.U. after   16 cycles
 SCF Done:  E(UB3LYP) =  -839.434753380     A.U. after   15 cycles
 SCF Done:  E(UB3LYP) =  -839.437749253     A.U. after   13 cycles
 SCF Done:  E(UB3LYP) =  -839.437973800     A.U. after   12 cycles
 SCF Done:  E(UB3LYP) =  -839.438157409     A.U. after   12 cycles
 SCF Done:  E(UB3LYP) =  -839.371564716     A.U. after   16 cycles
 SCF Done:  E(UB3LYP) =  -839.442464237     A.U. after   14 cycles
 SCF Done:  E(UB3LYP) =  -839.403976268     A.U. after   16 cycles
 SCF Done:  E(UB3LYP) =  -839.449381052     A.U. after   14 cycles
 SCF Done:  E(UB3LYP) =  -839.452583778     A.U. after   14 cycles
 SCF Done:  E(UB3LYP) =  -839.452997745     A.U. after   13 cycles
 SCF Done:  E(UB3LYP) =  -839.453552430     A.U. after   13 cycles
 SCF Done:  E(UB3LYP) =  -839.453606555     A.U. after   11 cycles
 SCF Done:  E(UB3LYP) =  -839.453612037     A.U. after   10 cycles
 SCF Done:  E(UB3LYP) =  -839.453615521     A.U. after   10 cycles
 SCF Done:  E(UB3LYP) =  -839.453616238     A.U. after    9 cycles
 SCF Done:  E(UB3LYP) =  -839.453616322     A.U. after    8 cycles
 Optimization completed.
    -- Stationary point found.
 Normal termination of Gaussian 16 at Thu Dec 21 20:50:24 2023.

 ----------------------------------------------------------------------
 #P Geom=AllCheck Guess=TCheck SCRF=Check GenChk UB3LYP/6-311++G(d,p) F
 req
 ----------------------------------------------------------------------

 Structure from the checkpoint file:  "189.chk"
 --------
 Oxidized
 --------
 Charge =  0 Multiplicity = 1

                          Input orientation:
 ---------------------------------------------------------------------
 Center     Atomic      Atomic             Coordinates (Angstroms)
 Number     Number       Type             X           Y           Z
 ---------------------------------------------------------------------
      1          8           0       -4.930447    0.967702    0.187511
      2          6           0       -3.701484    0.386911    0.117948
      3          6           0       -3.659733   -1.010684    0.022649
      4          6           0       -2.438189   -1.657580   -0.051374
      5          6           0       -1.238530   -0.934184   -0.032389
      6          6           0        0.055987   -1.661029   -0.113682
      7          8           0        0.097079   -2.880402   -0.197170
      8          6           0        1.298536   -0.844772   -0.089302
      9          6           0        2.544051   -1.481938   -0.163024
     10          6           0        3.719143   -0.750531   -0.142639
     11          6           0        3.666635    0.646662   -0.047068
     12          8           0        4.853563    1.312641   -0.031475
     13          6           0        2.437882    1.297586    0.027199
     14          6           0        1.255918    0.556476    0.006351
     15          6           0       -0.043361    1.286218    0.087714
     16          8           0       -0.084396    2.503539    0.170685
     17          6           0       -1.290433    0.466722    0.063441
     18          6           0       -2.519513    1.122834    0.138236
     19          1           0       -4.841504    1.925264    0.249488
     20          1           0       -4.591865   -1.562312    0.008578
     21          1           0       -2.386488   -2.736802   -0.125490
     22          1           0        2.565247   -2.562239   -0.236434
     23          1           0        4.686215   -1.235241   -0.199144
     24          1           0        4.700288    2.261638    0.036266
     25          1           0        2.372361    2.378106    0.101755
     26          1           0       -2.526961    2.205414    0.211370
 ---------------------------------------------------------------------

 SCF Done:  E(UB3LYP) =  -839.453616322     A.U. after    1 cycles

 Alpha  occ. eigenvalues --  -19.18214 -19.18213 -19.13224 -19.11936 -10.28405
 Alpha  occ. eigenvalues --  -10.27368 -10.26810 -10.26810 -10.21414 -10.21413
 Alpha  occ. eigenvalues --  -10.20373 -10.20373 -10.20200 -10.20200 -10.20172
 Alpha  occ. eigenvalues --  -10.20172 -10.19997 -10.19997  -1.09490  -1.09488
 Alpha  occ. eigenvalues --   -1.06606  -1.05315  -0.89572  -0.88389  -0.81290
 Alpha  occ. eigenvalues --   -0.78402  -0.78279  -0.76931  -0.69391  -0.68490
 Alpha  occ. eigenvalues --   -0.64866  -0.64622  -0.59268  -0.58698  -0.58613
 Alpha  occ. eigenvalues --   -0.54786  -0.52778  -0.51103  -0.49838  -0.47805
 Alpha  occ. eigenvalues --   -0.46026  -0.45999  -0.45987  -0.45378  -0.45253
 Alpha  occ. eigenvalues --   -0.44145  -0.43670  -0.42818  -0.41430  -0.41346
 Alpha  occ. eigenvalues --   -0.40310  -0.40229  -0.37691  -0.37199  -0.36748
 Alpha  occ. eigenvalues --   -0.34687  -0.28617  -0.28575  -0.28534  -0.26998
 Alpha  occ. eigenvalues --   -0.26283  -0.25295
 Alpha virt. eigenvalues --   -0.11546  -0.07127  -0.03651  -0.02366  -0.02042
 Alpha virt. eigenvalues --   -0.01815   0.00267   0.00900   0.01677   0.03102
 Alpha virt. eigenvalues --    0.03476   0.03665   0.03667   0.04103   0.05177

  Beta  occ. eigenvalues --  -19.18214 -19.18213 -19.13224 -19.11936 -10.28405
  Beta  occ. eigenvalues --  -10.27368 -10.26810 -10.26810 -10.21414 -10.21413
  Beta  occ. eigenvalues --  -10.20373 -10.20373 -10.20200 -10.20200 -10.20172
  Beta  occ. eigenvalues --  -10.20172 -10.19997 -10.19997  -1.09490  -1.09488
  Beta  occ. eigenvalues --   -1.06606  -1.05315  -0.89572  -0.88389  -0.81290
  Beta  occ. eigenvalues --   -0.78402  -0.78279  -0.76931  -0.69391  -0.68490
  Beta  occ. eigenvalues --   -0.64866  -0.64622  -0.59268  -0.58698  -0.58613
  Beta  occ. eigenvalues --   -0.54786  -0.52778  -0.51103  -0.49838  -0.47805
  Beta  occ. eigenvalues --   -0.46026  -0.45999  -0.45987  -0.45378  -0.45253
  Beta  occ. eigenvalues --   -0.44145  -0.43670  -0.42818  -0.41430  -0.41346
  Beta  occ. eigenvalues --   -0.40310  -0.40229  -0.37691  -0.37199  -0.36748
  Beta  occ. eigenvalues --   -0.34687  -0.28617  -0.28575  -0.28534  -0.26998
  Beta  occ. eigenvalues --   -0.26283  -0.25295
  Beta virt. eigenvalues --   -0.11546  -0.07127  -0.03651  -0.02366  -0.02042
  Beta virt. eigenvalues --   -0.01815   0.00267   0.00900   0.01677   0.03102
  Beta virt. eigenvalues --    0.03476   0.03665   0.03667   0.04103   0.05177

 Mulliken charges and spin densities:
               1          2
     1  O   -0.217243  -0.000000
     2  C   -0.522200   0.000000
     3  C   -0.099993   0.000000
     4  C    0.210134   0.000000
     5  C    0.122272   0.000000
     6  C   -0.700776  -0.000000
     7  O   -0.227135  -0.000000
     8  C    0.122137   0.000000
     9  C    0.210121  -0.000000
    10  C   -0.099954  -0.000000
    11  C   -0.522214   0.000000
    12  O   -0.217262  -0.000000
    13  C    0.225852  -0.000000
    14  C    0.430044  -0.000000
    15  C   -0.802798  -0.000000
    16  O   -0.217510  -0.000000
    17  C    0.429953   0.000000
    18  C    0.225796   0.000000
    19  H    0.275767   0.000000
    20  H    0.209230  -0.000000
    21  H    0.192307   0.000000
    22  H    0.192302  -0.000000
    23  H    0.209230   0.000000
    24  H    0.275763  -0.000000
    25  H    0.148090   0.000000
    26  H    0.148088  -0.000000
 Sum of Mulliken charges =  -0.00000  -0.00000

 Dipole moment (field-independent basis, Debye):
    X=             -0.0856    Y=              2.5298    Z=              0.1730  Tot=              2.5371
 Quadrupole moment (field-independent basis, Debye-Ang):
   XX=            -91.5287   YY=           -103.3394   ZZ=           -105.0583
   XY=              0.4182   XZ=             -0.3041   YZ=              0.1041

  Exact polarizability: 275.694   2.982 196.022  -4.569   7.545  83.710
 Approx polarizability: 399.917   0.790 388.378  -6.536  17.154 135.227

                      1                      2                      3
                      A                      A                      A
 Frequencies --     37.4447                88.7278               107.1531
 Red. masses --      9.9336                 4.4864                 7.2542
 Frc consts  --      0.0082                 0.0208                 0.0491
 IR Inten    --      2.6009                 0.0000                 0.5015

                      4                      5                      6
                      A                      A                      A
 Frequencies --    141.0788               167.8617               170.1229
 Red. masses --      7.5942                 6.7179                 6.3374
 Frc consts  --      0.0891                 0.1115                 0.1081
 IR Inten    --      3.8004                 0.0288                 0.0000

                      7                      8                      9
                      A                      A                      A
 Frequencies --    248.6983               264.4367               312.5057
 Red. masses --      8.0136                 5.6366                 7.6571
 Frc consts  --      0.2920                 0.2322                 0.4406
 IR Inten    --      2.4547                 2.2050                 0.0176

                     10                     11                     12
                      A                      A                      A
 Frequencies --    312.8669               361.3074               362.7115
 Red. masses --      4.3189                 1.2009                 1.1365
 Frc consts  --      0.2491                 0.0924                 0.0881
 IR Inten    --      0.0001                 1.4210               224.9574

                     13                     14                     15
                      A                      A                      A
 Frequencies --    364.8439               398.0126               416.4811
 Red. masses --      9.8985                 9.4108                 4.7812
 Frc consts  --      0.7763                 0.8784                 0.4886
 IR Inten    --     10.5355                 6.0703                10.5931

                     16                     17                     18
                      A                      A                      A
 Frequencies --    420.8079               445.4146               460.5778
 Red. masses --      3.5303                 3.0755                 4.9544
 Frc consts  --      0.3683                 0.3595                 0.6192
 IR Inten    --      6.3432                 0.0001                29.9568

                     19                     20                     21
                      A                      A                      A
 Frequencies --    471.6113               514.9002               578.5092
 Red. masses --     13.1172                 5.2715                 4.5171
 Frc consts  --      1.7189                 0.8234                 0.8907
 IR Inten    --      0.1645                 6.5151                 0.0000

                     22                     23                     24
                      A                      A                      A
 Frequencies --    601.5075               608.3945               663.2830
 Red. masses --      6.1680                 7.3872                 3.4116
 Frc consts  --      1.3149                 1.6110                 0.8843
 IR Inten    --      0.4860                32.9973                15.3985

                     25                     26                     27
                      A                      A                      A
 Frequencies --    667.5956               707.9080               716.8076
 Red. masses --      7.7753                 4.5317                 7.1357
 Frc consts  --      2.0417                 1.3380                 2.1602
 IR Inten    --      0.0540                 0.0000                 0.3716

                     28                     29                     30
                      A                      A                      A
 Frequencies --    736.6767               762.4654               783.3744
 Red. masses --      6.5126                 6.3713                 5.3193
 Frc consts  --      2.0824                 2.1823                 1.9233
 IR Inten    --      2.0848                38.5504                 0.7235

                     31                     32                     33
                      A                      A                      A
 Frequencies --    812.5473               856.7805               869.2696
 Red. masses --      7.7771                 1.4249                 1.5921
 Frc consts  --      3.0253                 0.6163                 0.7088
 IR Inten    --     58.4744                 0.0000                32.8815

                     34                     35                     36
                      A                      A                      A
 Frequencies --    889.1771               900.2112               939.8458
 Red. masses --      1.3838                 1.5188                 4.5181
 Frc consts  --      0.6446                 0.7251                 2.3514
 IR Inten    --      0.0001                31.1222                 5.8176

                     37                     38                     39
                      A                      A                      A
 Frequencies --    942.6152               997.8773              1001.8182
 Red. masses --      7.1965                 1.3057                 1.3325
 Frc consts  --      3.7674                 0.7660                 0.7880
 IR Inten    --     51.8593                 0.0000                 1.7122

                     40                     41                     42
                      A                      A                      A
 Frequencies --   1027.3180              1096.5558              1115.3944
 Red. masses --      2.2623                 2.6450                 1.6750
 Frc consts  --      1.4068                 1.8738                 1.2278
 IR Inten    --     14.9441                12.5507                 8.1181

                     43                     44                     45
                      A                      A                      A
 Frequencies --   1158.9575              1186.1172              1188.5065
 Red. masses --      1.3979                 1.8125                 1.3416
 Frc consts  --      1.1063                 1.5024                 1.1166
 IR Inten    --     29.8577                48.0963               427.7483

                     46                     47                     48
                      A                      A                      A
 Frequencies --   1197.7148              1227.3868              1242.1268
 Red. masses --      1.7615                 2.4744                 1.9543
 Frc consts  --      1.4888                 2.1962                 1.7765
 IR Inten    --     15.8693                 2.2271                40.9142

                     49                     50                     51
                      A                      A                      A
 Frequencies --   1269.4331              1313.7790              1318.4368
 Red. masses --      2.0158                 3.2888                 2.7181
 Frc consts  --      1.9139                 3.3445                 2.7837
 IR Inten    --     51.2187               725.3645                 7.1646

                     52                     53                     54
                      A                      A                      A
 Frequencies --   1337.7578              1375.0628              1386.2247
 Red. masses --      3.3637                 5.4748                 5.8482
 Frc consts  --      3.5467                 6.0990                 6.6212
 IR Inten    --    390.5903                 8.9154                21.3909

                     55                     56                     57
                      A                      A                      A
 Frequencies --   1466.0951              1478.2291              1518.3647
 Red. masses --      3.3540                 3.8275                 3.3548
 Frc consts  --      4.2476                 4.9277                 4.5569
 IR Inten    --      0.1791                89.7086                24.7139

                     58                     59                     60
                      A                      A                      A
 Frequencies --   1526.7501              1615.7057              1618.7707
 Red. masses --      3.1344                 6.4497                 6.9454
 Frc consts  --      4.3047                 9.9200                10.7231
 IR Inten    --     10.0135                 2.6652               137.6220

                     61                     62                     63
                      A                      A                      A
 Frequencies --   1631.6493              1634.7977              1710.4617
 Red. masses --      6.0996                 6.8994                12.4269
 Frc consts  --      9.5677                10.8640                21.4211
 IR Inten    --    257.5086               211.4170                37.5168

                     64                     65                     66
                      A                      A                      A
 Frequencies --   1724.3174              3172.1961              3172.6912
 Red. masses --     12.0055                 1.0905                 1.0908
 Frc consts  --     21.0313                 6.4655                 6.4690
 IR Inten    --    258.7468                18.6596                 0.4733

                     67                     68                     69
                      A                      A                      A
 Frequencies --   3190.1541              3190.2629              3203.8533
 Red. masses --      1.0886                 1.0887                 1.0946
 Frc consts  --      6.5275                 6.5283                 6.6200
 IR Inten    --      1.3571                 0.1154                 8.4265

                     70                     71                     72
                      A                      A                      A
 Frequencies --   3204.1890              3824.8875              3825.2511
 Red. masses --      1.0947                 1.0662                 1.0662
 Frc consts  --      6.6220                 9.1901                 9.1922
 IR Inten    --      0.0289                53.6949               137.2681

 - Thermochemistry -
 -------------------
 Temperature   298.150 Kelvin.  Pressure   1.00000 Atm.
 Atom     1 has atomic number  8 and mass  15.99491

 Molecular mass:   240.04226 amu.
 Principal axes and moments of inertia in atomic units:
                           1         2         3
     Eigenvalues --  1830.373076816.950298647.32331
           X            0.99913  -0.03363   0.02471
           Y            0.03523   0.99711  -0.06732
           Z           -0.02237   0.06813   0.99743
 This molecule is an asymmetric top.
 Rotational symmetry number  1.
 Warning -- assumption of classical behavior for rotation
           may cause significant error
 Rotational temperatures (Kelvin)      0.04732     0.01271     0.01002
 Rotational constants (GHZ):           0.98600     0.26474     0.20871
 Zero-point vibrational energy     491985.9 (Joules/Mol)
                                  117.58746 (Kcal/Mol)
 Warning -- explicit consideration of  23 degrees of freedom as
           vibrations may cause significant error
 Vibrational temperatures:     53.87   127.66   154.17   202.98   241.52
          (Kelvin)            244.77   357.82   380.47   449.63   450.15
                              519.84   521.86   524.93   572.65   599.22
                              605.45   640.85   662.67   678.54   740.83
                              832.35   865.44   875.34   954.32   960.52
                             1018.52  1031.33  1059.91  1097.02  1127.10
                             1169.07  1232.72  1250.69  1279.33  1295.20
                             1352.23  1356.21  1435.72  1441.39  1478.08
                             1577.70  1604.80  1667.48  1706.56  1710.00
                             1723.24  1765.94  1787.14  1826.43  1890.23
                             1896.94  1924.74  1978.41  1994.47  2109.38
                             2126.84  2184.59  2196.65  2324.64  2329.05
                             2347.58  2352.11  2460.97  2480.91  4564.08
                             4564.79  4589.92  4590.08  4609.63  4610.11
                             5503.16  5503.68

 Zero-point correction=                           0.187388 (Hartree/Particle)
 Thermal correction to Energy=                    0.201104
 Thermal correction to Enthalpy=                  0.202048
 Thermal correction to Gibbs Free Energy=         0.147010
 Sum of electronic and zero-point Energies=           -839.266229
 Sum of electronic and thermal Energies=              -839.252512
 Sum of electronic and thermal Enthalpies=            -839.251568
 Sum of electronic and thermal Free Energies=         -839.306606

                     E (Thermal)             CV                S
                      KCal/Mol        Cal/Mol-Kelvin    Cal/Mol-Kelvin
 Total                  126.195             55.111            115.837
 Electronic               0.000              0.000              0.000
 Translational            0.889              2.981             42.328
 Rotational               0.889              2.981             33.045
 Vibrational            124.417             49.150             40.464
 Vibration     1          0.594              1.982              5.390
 Vibration     2          0.602              1.957              3.688
 Vibration     3          0.606              1.944              3.320
 Vibration     4          0.615              1.912              2.789
 Vibration     5          0.625              1.882              2.459
 Vibration     6          0.625              1.879              2.434
 Vibration     7          0.662              1.765              1.740
 Vibration     8          0.671              1.738              1.632
 Vibration     9          0.701              1.650              1.349
 Vibration    10          0.701              1.649              1.347
 Vibration    11          0.735              1.552              1.116
 Vibration    12          0.737              1.549              1.110
 Vibration    13          0.738              1.545              1.101
 Vibration    14          0.764              1.474              0.970
 Vibration    15          0.780              1.434              0.904
 Vibration    16          0.783              1.425              0.889
 Vibration    17          0.805              1.371              0.810
 Vibration    18          0.818              1.337              0.764
 Vibration    19          0.829              1.313              0.733
 Vibration    20          0.870              1.217              0.622
 Vibration    21          0.935              1.078              0.488
 Vibration    22          0.960              1.029              0.447
 Vibration    23          0.967              1.014              0.435

 Optimization completed.
    -- Stationary point found.
 Normal termination of Gaussian 16 at Thu Dec 21 22:01:27 2023.
