 Q-Chem 5.4, Q-Chem, Inc., Pleasanton, CA (2021)
 Q-Chem 5.4.0 for Intel X86 EM64T Linux

User input:
--------------------------------------------------------------
$molecule
-2 1
O                 -0.0509080000     -1.5602180000     -2.3937620000
C                 -0.0275170000     -0.8456580000     -1.3298680000
C                  1.2062980000     -0.4614150000     -0.6723400000
C                  2.4280500000     -0.8836960000     -1.2144810000
C                  3.6652980000     -0.5625890000     -0.6510710000
C                  4.9116990000     -0.9912530000     -1.2015410000
C                  6.1131980000     -0.6599110000     -0.6255140000
C                  6.1392510000      0.1403470000      0.5660080000
C                  4.9629080000      0.5726880000      1.1265320000
C                  3.6917540000      0.2509630000      0.5595490000
C                  2.4789830000      0.6759960000      1.1067750000
C                  1.2328740000      0.3584590000      0.5483190000
C                  0.0276040000      0.8461110000      1.1895200000
O                  0.0507270000      1.5605250000      2.2538300000
C                 -1.2061640000      0.4616150000      0.5322250000
C                 -2.4281460000      0.8832270000      1.0748890000
C                 -3.6652500000      0.5622070000      0.5113630000
C                 -4.9119540000      0.9906480000      1.0618960000
C                 -6.1131620000      0.6593650000      0.4855310000
C                 -6.1392500000     -0.1407180000     -0.7061430000
C                 -4.9626300000     -0.5724070000     -1.2668360000
C                 -3.6918010000     -0.2503750000     -0.6997060000
C                 -2.4787980000     -0.6750480000     -1.2472570000
C                 -1.2330690000     -0.3578400000     -0.6884190000
H                  2.3768940000     -1.4878790000     -2.1161130000
H                  4.8884940000     -1.5977750000     -2.1045640000
H                  7.0464610000     -1.0006950000     -1.0665510000
H                  7.0922070000      0.4011070000      1.0194370000
H                  4.9794210000      1.1794840000      2.0295150000
H                  2.4671530000      1.2828050000      2.0080180000
H                 -2.3769000000      1.4871050000      1.9767000000
H                 -4.8889130000      1.5967520000      1.9651820000
H                 -7.0466130000      0.9993160000      0.9269100000
H                 -7.0921900000     -0.4009360000     -1.1598410000
H                 -4.9789490000     -1.1787620000     -2.1701040000
H                 -2.4670620000     -1.2815450000     -2.1486880000
$end
$rem
MAX_SCF_CYCLES=200
SCF_Guess=core
BASIS  =  6-311++G(d,p)
GUI  =  2
JOB_TYPE  =  SP
METHOD  =  B3LYP
THRESH = 14
SCF_CONVERGENCE = 8
SOLVENT_METHOD = COSMO
$end
$solvent
dielectric 37.219
opticaldielectric 1.43
$end

--------------------------------------------------------------

             Standard Nuclear Orientation (Angstroms)
    I     Atom           X                Y                Z
 ----------------------------------------------------------------
    1      O      -0.0000838497     2.7994226003     0.0000832161
    2      C       0.0000297665     1.5176217027     0.0002301866
    3      C       1.2207681725     0.7352644184     0.0000517784
    4      C       2.4557111506     1.3984625138    -0.0003765330
    5      C       3.6819334526     0.7293571367    -0.0002898043
    6      C       4.9417182625     1.4025790295    -0.0004098784
    7      C       6.1318740449     0.7179450663    -0.0002591875
    8      C       6.1318583326    -0.7176092803    -0.0001190956
    9      C       4.9419776371    -1.4024980304     0.0001617356
   10      C       3.6818831381    -0.7294668001     0.0002394214
   11      C       2.4558298404    -1.3985827138     0.0004625522
   12      C       1.2206361095    -0.7354184179     0.0002296855
   13      C       0.0000438240    -1.5175778900     0.0002629778
   14      O      -0.0001013994    -2.7996378514     0.0000465146
   15      C      -1.2206353841    -0.7352738479     0.0001034986
   16      C      -2.4557763945    -1.3985290069    -0.0003234777
   17      C      -3.6818592738    -0.7293784485    -0.0002677951
   18      C      -4.9419369517    -1.4025228397    -0.0003795157
   19      C      -6.1318067202    -0.7176464836    -0.0002815146
   20      C      -6.1318343826     0.7179371274    -0.0001930979
   21      C      -4.9417056519     1.4025977211     0.0001716846
   22      C      -3.6819478840     0.7292792581     0.0002539756
   23      C      -2.4556801743     1.3984600753     0.0005195820
   24      C      -1.2208496572     0.7351689707     0.0002518887
   25      H       2.4242520721     2.4845585453    -0.0005605935
   26      H       4.9382743959     2.4906259116    -0.0006732182
   27      H       7.0758074753     1.2570338306    -0.0006839449
   28      H       7.0758813389    -1.2566261790     0.0002272048
   29      H       4.9387237852    -2.4905429337     0.0004149239
   30      H       2.4242470207    -2.4846759712     0.0005970773
   31      H      -2.4242133112    -2.4846052545    -0.0004886415
   32      H      -4.9386375118    -2.4905520682    -0.0006157941
   33      H      -7.0758904687    -1.2565514233    -0.0007454698
   34      H      -7.0758661149     1.2568749257     0.0000606417
   35      H      -4.9382785190     2.4906298679     0.0004506176
   36      H      -2.4242057111     2.4845371904     0.0007449490
 ----------------------------------------------------------------

   32    -996.2931865070      5.99e-09  Convergence criterion met
 Total energy in the final basis set =     -996.2931865070
   12    -996.5480695820      6.69e-09  Convergence criterion met
 Total energy in the final basis set =     -996.5480695820

                    Orbital Energies (a.u.)
 --------------------------------------------------------------

 Alpha MOs
 -- Occupied --
-19.0330 -19.0329 -10.1840 -10.1838 -10.1656 -10.1656 -10.1653 -10.1653
-10.1649 -10.1649 -10.1648 -10.1648 -10.1634 -10.1634 -10.1630 -10.1630
-10.1520 -10.1520 -10.1519 -10.1519 -10.1471 -10.1471 -10.1468 -10.1468
 -0.9535  -0.9505  -0.8566  -0.8557  -0.8113  -0.7988  -0.7600  -0.7597
 -0.7482  -0.7154  -0.7109  -0.7061  -0.6425  -0.6395  -0.6028  -0.5989
 -0.5794  -0.5713  -0.5499  -0.5263  -0.5053  -0.4996  -0.4957  -0.4594
 -0.4488  -0.4479  -0.4334  -0.4296  -0.4177  -0.4166  -0.4024  -0.3993
 -0.3955  -0.3930  -0.3843  -0.3783  -0.3781  -0.3751  -0.3577  -0.3577
 -0.3456  -0.3394  -0.3379  -0.3220  -0.3118  -0.3100  -0.3028  -0.2868
 -0.2794  -0.2738  -0.2326  -0.2225  -0.2152  -0.2082  -0.2081  -0.2066
 -0.1068

          Ground-State Mulliken Net Atomic Charges

     Atom                 Charge (a.u.)
  ----------------------------------------
      1 O                    -0.661646
      2 C                    -0.594056
      3 C                     0.231372
      4 C                    -0.014427
      5 C                     0.069040
      6 C                    -0.257817
      7 C                    -0.399867
      8 C                    -0.399287
      9 C                    -0.259418
     10 C                     0.071798
     11 C                    -0.014280
     12 C                     0.230407
     13 C                    -0.590601
     14 O                    -0.661549
     15 C                     0.229996
     16 C                    -0.015010
     17 C                     0.069970
     18 C                    -0.258966
     19 C                    -0.399562
     20 C                    -0.399630
     21 C                    -0.258328
     22 C                     0.070649
     23 C                    -0.014252
     24 C                     0.232625
     25 H                     0.134925
     26 H                     0.167206
     27 H                     0.196190
     28 H                     0.196207
     29 H                     0.167227
     30 H                     0.134658
     31 H                     0.134851
     32 H                     0.167188
     33 H                     0.196206
     34 H                     0.196220
     35 H                     0.167269
     36 H                     0.134693
  ----------------------------------------
  Sum of atomic charges =    -2.000000

                    Cartesian Multipole Moments
 -----------------------------------------------------------------
    Charge (ESU x 10^10)
                -9.6064
    Dipole Moment (Debye)
         X      -0.0053      Y       0.0047      Z       0.0004
       Tot       0.0071
    Quadrupole Moments (Debye-Ang)
        XX    -179.1288     XY      -0.0028     YY    -193.5262
        XZ      -0.0012     YZ      -0.0028     ZZ    -154.7824

 Total job time:  583.94s(wall), 4535.36s(cpu)
        *  Thank you very much for using Q-Chem.  Have a nice day.  *
