 Q-Chem 5.4, Q-Chem, Inc., Pleasanton, CA (2021)
 Q-Chem 5.4.0 for Intel X86 EM64T Linux

User input:
--------------------------------------------------------------
$molecule
0 1
C                 -1.8553760000      1.7421730000     -0.7954900000
C                 -2.6110940000      0.8871480000     -1.5897300000
C                 -2.1500160000     -0.4128810000     -1.8540680000
C                 -0.6428370000      1.3114370000     -0.2619070000
C                 -0.1837620000      0.0168890000     -0.5243540000
C                 -0.9398410000     -0.8410410000     -1.3200320000
C                  0.1621030000      2.2342400000      0.5861540000
C                  1.4634990000      1.7489430000      1.1386600000
C                  1.9013200000      0.4848770000      0.9049200000
C                  1.1107140000     -0.4529730000      0.0461380000
O                 -0.2295950000      3.3651670000      0.8276760000
O                  1.5166550000     -1.5813540000     -0.1835860000
C                  2.2006810000      2.7691190000      1.9593440000
C                  3.1990560000     -0.0736410000      1.4314700000
C                  4.3828700000      0.1519080000      0.4662160000
C                  5.6900220000     -0.4559420000      0.9855310000
C                  6.8766820000     -0.2415450000      0.0391630000
C                  8.1869510000     -0.8486750000      0.5535890000
C                  9.3739900000     -0.6373460000     -0.3929670000
C                 10.6844570000     -1.2453390000      0.1197430000
C                 11.8714710000     -1.0349870000     -0.8267830000
C                 13.1826080000     -1.6428550000     -0.3155360000
C                 14.3623100000     -1.4279240000     -1.2681970000
Cl                -3.0674010000     -1.5140660000     -2.8450780000
Cl                -4.1223560000      1.4607040000     -2.2402210000
H                 -2.2012970000      2.7458700000     -0.5855930000
H                 -0.5761730000     -1.8409570000     -1.5173070000
H                  2.3131010000      3.6957940000      1.3912730000
H                  3.1840620000      2.4238030000      2.2687110000
H                  1.6202580000      3.0315370000      2.8491300000
H                  3.0739220000     -1.1481250000      1.5801440000
H                  3.4309650000      0.3652880000      2.4042580000
H                  4.5170800000      1.2272710000      0.2991440000
H                  4.1366860000     -0.2871360000     -0.5062130000
H                  5.5461320000     -1.5310430000      1.1498100000
H                  5.9269610000     -0.0256540000      1.9674150000
H                  7.0175790000      0.8342120000     -0.1279330000
H                  6.6384580000     -0.6728810000     -0.9414250000
H                  8.0452140000     -1.9240800000      0.7214580000
H                  8.4252220000     -0.4172680000      1.5345310000
H                  9.5157520000      0.4382130000     -0.5608710000
H                  9.1350240000     -1.0682600000     -1.3738490000
H                 10.5424360000     -2.3208290000      0.2877700000
H                 10.9236230000     -0.8143960000      1.1007130000
H                 12.0145840000      0.0404800000     -0.9952830000
H                 11.6331730000     -1.4659260000     -1.8080750000
H                 13.0402450000     -2.7174150000     -0.1476430000
H                 13.4216650000     -1.2119450000      0.6644420000
H                 14.1677840000     -1.8785740000     -2.2466530000
H                 15.2805870000     -1.8729520000     -0.8749020000
H                 14.5523650000     -0.3618310000     -1.4283670000
$end
$rem
MAX_SCF_CYCLES=200
SCF_Guess=core
BASIS  =  6-311++G(d,p)
GUI  =  2
JOB_TYPE  =  SP
METHOD  =  B3LYP
THRESH = 14
SCF_CONVERGENCE = 8
SOLVENT_METHOD = COSMO
$end
$solvent
dielectric 37.219
opticaldielectric 1.43
$end

--------------------------------------------------------------

             Standard Nuclear Orientation (Angstroms)
    I     Atom           X                Y                Z
 ----------------------------------------------------------------
    1      C       5.0129251436    -0.7628958341    -0.7039658405
    2      C       5.7195661074     0.4287566472    -0.5872716421
    3      C       5.1246085883     1.5369298960     0.0376447543
    4      C       3.7169981993    -0.8591014640    -0.2021561376
    5      C       3.1245440856     0.2438668824     0.4206935695
    6      C       3.8313007249     1.4386259046     0.5383742833
    7      C       2.9656538524    -2.1385642126    -0.3331446393
    8      C       1.5735665827    -2.2112674817     0.2064986459
    9      C       1.0035531198    -1.1494326590     0.8324187122
   10      C       1.7397384190     0.1478302541     0.9638231744
   11      O       3.4729762518    -3.1108734726    -0.8697960764
   12      O       1.2176812694     1.1096921425     1.5051945193
   13      C       0.9034928328    -3.5401289468    -0.0004964652
   14      C      -0.3918375555    -1.1511033608     1.4035562234
   15      C      -1.4559642114    -0.6895231147     0.3844481040
   16      C      -2.8661684322    -0.6507959665     0.9824784597
   17      C      -3.9360285133    -0.1942396787    -0.0158682655
   18      C      -5.3488273982    -0.1527719471     0.5777018962
   19      C      -6.4194258162     0.3061232664    -0.4187538255
   20      C      -7.8323870134     0.3493911542     0.1741368352
   21      C      -8.9030838026     0.8089742022    -0.8216309471
   22      C     -10.3165727589     0.8531365367    -0.2299757334
   23      C     -11.3789718604     1.3138735113    -1.2322155819
   24      Cl      5.9768000777     3.0478172759     0.2028520576
   25      Cl      7.3381046032     0.5120616603    -1.2271241807
   26      H       5.4618451181    -1.6228101741    -1.1836990383
   27      H       3.3642658475     2.2865131645     1.0220781851
   28      H       0.9531150385    -3.8239061865    -1.0545731171
   29      H      -0.1369498583    -3.5360991079     0.3148637079
   30      H       1.4372940397    -4.3234526246     0.5462516291
   31      H      -0.4129032698    -0.4710204258     2.2575596073
   32      H      -0.6463975241    -2.1467296671     1.7732647908
   33      H      -1.4422641471    -1.3578778545    -0.4847154072
   34      H      -1.1873300149     0.3064188933     0.0171341498
   35      H      -2.8700347958     0.0196176499     1.8508474575
   36      H      -3.1275125383    -1.6465964624     1.3638767719
   37      H      -3.9288911660    -0.8630879496    -0.8862803573
   38      H      -3.6736487701     0.8014705802    -0.3954366985
   39      H      -5.3551536317     0.5153172612     1.4485532503
   40      H      -5.6112737529    -1.1487789942     0.9574704435
   41      H      -6.4131024333    -0.3620542233    -1.2897384622
   42      H      -6.1562361369     1.3017552595    -0.7987133622
   43      H      -7.8384557694     1.0174426643     1.0452006257
   44      H      -8.0957780915    -0.6463291653     0.5541112700
   45      H      -8.8980592456     0.1412283930    -1.6931773526
   46      H      -8.6405243832     1.8048842059    -1.2019652257
   47      H     -10.3221775014     1.5206182058     0.6404099772
   48      H     -10.5797791368    -0.1418730755     0.1493220812
   49      H     -11.1623677654     2.3206367257    -1.6034465441
   50      H     -12.3741919286     1.3345163761    -0.7793641555
   51      H     -11.4222096888     0.6456037227    -2.0981691582
 ----------------------------------------------------------------

   75   -1887.0753396452      9.41e-09  Convergence criterion met
 Total energy in the final basis set =    -1887.0753396452
   10   -1887.0878079983      7.14e-09  Convergence criterion met
 Total energy in the final basis set =    -1887.0878079983

                    Orbital Energies (a.u.)
 --------------------------------------------------------------

 Alpha MOs
 -- Occupied --
********-101.5768 -19.1391 -19.1391 -10.2880 -10.2874 -10.2728 -10.2723
-10.2184 -10.2179 -10.2171 -10.2149 -10.2149 -10.2144 -10.1762 -10.1731
-10.1688 -10.1612 -10.1588 -10.1586 -10.1574 -10.1569 -10.1567 -10.1564
-10.1522  -9.4915  -9.4914  -7.2562  -7.2561  -7.2464  -7.2464  -7.2457
 -7.2456  -1.0739  -1.0721  -0.9402  -0.8811  -0.8809  -0.8501  -0.8113
 -0.7978  -0.7844  -0.7789  -0.7701  -0.7475  -0.7218  -0.6960  -0.6824
 -0.6610  -0.6441  -0.6198  -0.6024  -0.5902  -0.5802  -0.5726  -0.5701
 -0.5566  -0.5222  -0.5211  -0.4937  -0.4826  -0.4742  -0.4702  -0.4677
 -0.4667  -0.4664  -0.4464  -0.4400  -0.4366  -0.4319  -0.4293  -0.4270
 -0.4202  -0.4170  -0.4093  -0.4060  -0.3997  -0.3958  -0.3941  -0.3857
 -0.3808  -0.3682  -0.3647  -0.3582  -0.3518  -0.3489  -0.3454  -0.3421
 -0.3376  -0.3293  -0.3280  -0.3252  -0.3211  -0.3188  -0.3171  -0.3027
 -0.2955  -0.2863  -0.2837  -0.2779  -0.2680

          Ground-State Mulliken Net Atomic Charges

     Atom                 Charge (a.u.)
  ----------------------------------------
      1 C                    -0.378534
      2 C                     0.360374
      3 C                     0.229400
      4 C                    -0.538695
      5 C                    -0.290571
      6 C                    -0.195242
      7 C                    -0.210126
      8 C                     0.303815
      9 C                     0.577565
     10 C                    -0.833740
     11 O                    -0.295320
     12 O                    -0.264835
     13 C                    -0.381058
     14 C                    -0.493325
     15 C                    -0.904619
     16 C                    -0.302853
     17 C                     0.010221
     18 C                     0.060647
     19 C                    -0.021952
     20 C                    -0.244098
     21 C                    -0.462397
     22 C                    -0.291376
     23 C                    -0.710825
     24 Cl                    0.563872
     25 Cl                    0.538614
     26 H                     0.242774
     27 H                     0.246718
     28 H                     0.199701
     29 H                     0.149448
     30 H                     0.219962
     31 H                     0.227289
     32 H                     0.218014
     33 H                     0.150690
     34 H                     0.205990
     35 H                     0.129396
     36 H                     0.137509
     37 H                     0.137235
     38 H                     0.131476
     39 H                     0.136996
     40 H                     0.134989
     41 H                     0.135282
     42 H                     0.134677
     43 H                     0.131554
     44 H                     0.131428
     45 H                     0.128575
     46 H                     0.128621
     47 H                     0.136186
     48 H                     0.136018
     49 H                     0.145260
     50 H                     0.153895
     51 H                     0.145378
  ----------------------------------------
  Sum of atomic charges =     0.000000

                    Cartesian Multipole Moments
 -----------------------------------------------------------------
    Charge (ESU x 10^10)
                 0.0000
    Dipole Moment (Debye)
         X      -2.7895      Y      -1.5498      Z       0.4343
       Tot       3.2205
    Quadrupole Moments (Debye-Ang)
        XX    -181.3400     XY       5.3928     YY    -172.0531
        XZ       2.4014     YZ      -5.7263     ZZ    -170.7284

 Total job time:  1686.47s(wall), 13218.66s(cpu)
        *  Thank you very much for using Q-Chem.  Have a nice day.  *
