 Q-Chem 5.4, Q-Chem, Inc., Pleasanton, CA (2021)
 Q-Chem 5.4.0 for Intel X86 EM64T Linux

User input:
--------------------------------------------------------------
$molecule
-1 2
I                 -3.3508280000     -1.0693510000     -0.1519300000
C                 -1.3618270000     -0.3581560000     -0.0606390000
C                 -1.0236760000      0.9685410000     -0.0262680000
I                 -2.4289350000      2.5480060000     -0.0582190000
C                  0.3646690000      1.4305000000      0.0369600000
O                  0.6717460000      2.6358440000      0.0683420000
C                  1.3618170000      0.3582610000      0.0605700000
C                  1.0236130000     -0.9686210000      0.0261960000
I                  2.4288820000     -2.5480160000      0.0583800000
C                 -0.3645280000     -1.4304970000     -0.0371770000
O                 -0.6718180000     -2.6358110000     -0.0682960000
I                  3.3508840000      1.0693000000      0.1520800000
$end
$rem
MAX_SCF_CYCLES=200
BASIS  =  6-311++G(d,p)
GUI  =  2
JOB_TYPE  =  SP
METHOD  =  B3LYP
SOLVENT_METHOD = PCM
$end
$pcm
theory = CPCM
$end
$solvent
dielectric 37.219
opticaldielectric 1.43
$end

--------------------------------------------------------------

             Standard Nuclear Orientation (Angstroms)
    I     Atom           X                Y                Z
 ----------------------------------------------------------------
    1      I      -3.3508280000    -1.0693510000    -0.1519300000
    2      C      -1.3618270000    -0.3581560000    -0.0606390000
    3      C      -1.0236760000     0.9685410000    -0.0262680000
    4      I      -2.4289350000     2.5480060000    -0.0582190000
    5      C       0.3646690000     1.4305000000     0.0369600000
    6      O       0.6717460000     2.6358440000     0.0683420000
    7      C       1.3618170000     0.3582610000     0.0605700000
    8      C       1.0236130000    -0.9686210000     0.0261960000
    9      I       2.4288820000    -2.5480160000     0.0583800000
   10      C      -0.3645280000    -1.4304970000    -0.0371770000
   11      O      -0.6718180000    -2.6358110000    -0.0682960000
   12      I       3.3508840000     1.0693000000     0.1520800000
 ----------------------------------------------------------------

    8  -28057.3796733137      5.32e-06  Convergence criterion met
 Total energy in the final basis set =   -28057.3796733137

                    Orbital Energies (a.u.)
 --------------------------------------------------------------

 Alpha MOs
 -- Occupied --
***********************************-176.2999-176.2999-176.2997-176.2997
********-165.7036-165.7034-165.7034-165.7016-165.7016-165.7014-165.7014
********-165.7014-165.7012-165.7012 -35.7964 -35.7964 -35.7962 -35.7962
-31.2894 -31.2894 -31.2893 -31.2893 -31.2838 -31.2838 -31.2837 -31.2837
-31.2833 -31.2833 -31.2831 -31.2831 -22.9400 -22.9400 -22.9398 -22.9398
-22.9387 -22.9387 -22.9386 -22.9385 -22.9384 -22.9384 -22.9382 -22.9382
-22.9345 -22.9345 -22.9344 -22.9344 -22.9343 -22.9343 -22.9343 -22.9343
-19.1039 -19.1039 -10.2599 -10.2599 -10.2342 -10.2342 -10.2336 -10.2335
 -6.3457  -6.3457  -6.3456  -6.3456  -4.7576  -4.7576  -4.7575  -4.7575
 -4.7441  -4.7441  -4.7439  -4.7439  -4.7430  -4.7430  -4.7428  -4.7428
 -2.0238  -2.0238  -2.0237  -2.0237  -2.0193  -2.0193  -2.0192  -2.0192
 -2.0185  -2.0185  -2.0184  -2.0184  -2.0069  -2.0069  -2.0068  -2.0068
 -2.0067  -2.0067  -2.0066  -2.0066  -1.0382  -1.0358  -0.8630  -0.7981
 -0.7268  -0.6924  -0.6718  -0.6335  -0.6297  -0.5743  -0.5591  -0.5210
 -0.4605  -0.4469  -0.4441  -0.4091  -0.3939  -0.3881  -0.3874  -0.3544
 -0.3432  -0.3281  -0.2896  -0.2878  -0.2801  -0.2798  -0.2766  -0.2683
 -0.2638  -0.2516  -0.2405  -0.2336  -0.1849

 Beta MOs
 -- Occupied --
***********************************-176.2999-176.2999-176.2997-176.2997
********-165.7036-165.7034-165.7034-165.7016-165.7016-165.7014-165.7014
********-165.7014-165.7012-165.7012 -35.7964 -35.7964 -35.7962 -35.7962
-31.2894 -31.2894 -31.2893 -31.2893 -31.2838 -31.2838 -31.2837 -31.2837
-31.2833 -31.2833 -31.2831 -31.2831 -22.9400 -22.9400 -22.9398 -22.9398
-22.9387 -22.9387 -22.9385 -22.9385 -22.9384 -22.9384 -22.9382 -22.9382
-22.9344 -22.9344 -22.9344 -22.9344 -22.9343 -22.9343 -22.9343 -22.9343
-19.0974 -19.0974 -10.2586 -10.2586 -10.2330 -10.2329 -10.2323 -10.2323
 -6.3457  -6.3457  -6.3455  -6.3455  -4.7577  -4.7577  -4.7576  -4.7576
 -4.7440  -4.7440  -4.7439  -4.7439  -4.7430  -4.7430  -4.7428  -4.7428
 -2.0238  -2.0238  -2.0237  -2.0237  -2.0193  -2.0193  -2.0191  -2.0191
 -2.0185  -2.0185  -2.0184  -2.0184  -2.0068  -2.0068  -2.0068  -2.0068
 -2.0067  -2.0067  -2.0066  -2.0066  -1.0270  -1.0244  -0.8570  -0.7954
 -0.7180  -0.6903  -0.6704  -0.6307  -0.6292  -0.5700  -0.5560  -0.5186
 -0.4554  -0.4368  -0.4293  -0.3912  -0.3873  -0.3853  -0.3822  -0.3520
 -0.3376  -0.3035  -0.2893  -0.2862  -0.2787  -0.2763  -0.2722  -0.2634
 -0.2540  -0.2514  -0.2363  -0.2316

          Ground-State Mulliken Net Atomic Charges

     Atom                 Charge (a.u.)    Spin (a.u.)
  --------------------------------------------------------
      1 I                     0.008861       0.003906
      2 C                     0.744995       0.093917
      3 C                     0.716046       0.094136
      4 I                     0.012606       0.003903
      5 C                    -1.683692       0.065476
      6 O                    -0.299115       0.238457
      7 C                     0.745616       0.094107
      8 C                     0.716325       0.094298
      9 I                     0.012604       0.003920
     10 C                    -1.683985       0.065486
     11 O                    -0.299110       0.238472
     12 I                     0.008850       0.003922
  --------------------------------------------------------
  Sum of atomic charges =    -1.000000

                    Cartesian Multipole Moments
 -----------------------------------------------------------------
    Charge (ESU x 10^10)
                -4.8032
    Dipole Moment (Debye)
         X      -0.0003      Y      -0.0000      Z      -0.0003
       Tot       0.0005
    Quadrupole Moments (Debye-Ang)
        XX    -170.5378     XY      -7.0820     YY    -196.4053
        XZ      -0.4301     YZ      -0.8059     ZZ    -162.7218

 Total job time:  32.39s(wall), 204.33s(cpu)
        *  Thank you very much for using Q-Chem.  Have a nice day.  *
