 Q-Chem 5.4, Q-Chem, Inc., Pleasanton, CA (2021)
 Q-Chem 5.4.0 for Intel X86 EM64T Linux

User input:
--------------------------------------------------------------
$molecule
-2 1
O                  4.6107690000      1.5369120000     -1.4456830000
C                  3.4761890000      0.9818780000     -0.8527360000
C                  2.2186440000      1.2256160000     -1.3494790000
C                  1.0829390000      0.6336010000     -0.7066140000
C                 -0.2282790000      0.8497020000     -1.1733110000
O                 -0.4167630000      1.6487740000     -2.2734800000
C                 -1.3383540000      0.2620780000     -0.5327440000
C                 -2.6829190000      0.4926960000     -1.0234790000
O                 -2.9483690000      1.2431920000     -2.0682230000
C                 -3.7591710000     -0.1098950000     -0.3577810000
O                 -5.0185270000      0.1509160000     -0.8776180000
C                 -3.5587260000     -0.9254450000      0.7660170000
O                 -4.6872030000     -1.4867740000      1.3692320000
C                 -2.2905060000     -1.1635370000      1.2564240000
C                 -1.1511870000     -0.5795490000      0.6241810000
C                  0.1573060000     -0.7970200000      1.0926390000
O                  0.3413980000     -1.5990920000      2.1956820000
C                  1.2655400000     -0.2113010000      0.4536060000
C                  2.6081610000     -0.4468440000      0.9507280000
O                  2.8847460000     -1.1961740000      1.9959160000
C                  3.6591680000      0.1618040000      0.2732670000
O                  4.9491030000     -0.0720780000      0.7619670000
H                  5.3546760000      1.2210560000     -0.9180450000
H                  2.0769850000      1.8565840000     -2.2162300000
H                 -1.4080560000      1.6551600000     -2.4155210000
H                 -4.7792020000      0.7333760000     -1.6286510000
H                 -4.3569000000     -2.0052760000      2.1095220000
H                 -2.1409320000     -1.7953380000      2.1263830000
H                  1.3308530000     -1.6082640000      2.3413840000
H                  4.7486180000     -0.6567590000      1.5226490000
$end
$rem
MAX_SCF_CYCLES=200
BASIS  =  6-311++G(d,p)
GUI  =  2
JOB_TYPE  =  SP
METHOD  =  B3LYP
SOLVENT_METHOD = PCM
$end
$pcm
theory = CPCM
$end
$solvent
dielectric 37.219
opticaldielectric 1.43
$end

--------------------------------------------------------------

             Standard Nuclear Orientation (Angstroms)
    I     Atom           X                Y                Z
 ----------------------------------------------------------------
    1      O       4.6107690000     1.5369120000    -1.4456830000
    2      C       3.4761890000     0.9818780000    -0.8527360000
    3      C       2.2186440000     1.2256160000    -1.3494790000
    4      C       1.0829390000     0.6336010000    -0.7066140000
    5      C      -0.2282790000     0.8497020000    -1.1733110000
    6      O      -0.4167630000     1.6487740000    -2.2734800000
    7      C      -1.3383540000     0.2620780000    -0.5327440000
    8      C      -2.6829190000     0.4926960000    -1.0234790000
    9      O      -2.9483690000     1.2431920000    -2.0682230000
   10      C      -3.7591710000    -0.1098950000    -0.3577810000
   11      O      -5.0185270000     0.1509160000    -0.8776180000
   12      C      -3.5587260000    -0.9254450000     0.7660170000
   13      O      -4.6872030000    -1.4867740000     1.3692320000
   14      C      -2.2905060000    -1.1635370000     1.2564240000
   15      C      -1.1511870000    -0.5795490000     0.6241810000
   16      C       0.1573060000    -0.7970200000     1.0926390000
   17      O       0.3413980000    -1.5990920000     2.1956820000
   18      C       1.2655400000    -0.2113010000     0.4536060000
   19      C       2.6081610000    -0.4468440000     0.9507280000
   20      O       2.8847460000    -1.1961740000     1.9959160000
   21      C       3.6591680000     0.1618040000     0.2732670000
   22      O       4.9491030000    -0.0720780000     0.7619670000
   23      H       5.3546760000     1.2210560000    -0.9180450000
   24      H       2.0769850000     1.8565840000    -2.2162300000
   25      H      -1.4080560000     1.6551600000    -2.4155210000
   26      H      -4.7792020000     0.7333760000    -1.6286510000
   27      H      -4.3569000000    -2.0052760000     2.1095220000
   28      H      -2.1409320000    -1.7953380000     2.1263830000
   29      H       1.3308530000    -1.6082640000     2.3413840000
   30      H       4.7486180000    -0.6567590000     1.5226490000
 ----------------------------------------------------------------

    9   -1140.7493364586      1.99e-06  Convergence criterion met
 Total energy in the final basis set =    -1140.7493364586

                    Orbital Energies (a.u.)
 --------------------------------------------------------------

 Alpha MOs
 -- Occupied --
-19.1441 -19.1439 -19.1355 -19.1296 -19.1150 -19.1145 -19.0650 -19.0648
-10.2203 -10.2191 -10.2066 -10.2059 -10.2056 -10.2055 -10.1947 -10.1941
-10.1626 -10.1618 -10.1595 -10.1589 -10.1440 -10.1431  -1.0570  -1.0524
 -1.0365  -1.0341  -1.0282  -1.0268  -0.9645  -0.9637  -0.8467  -0.8180
 -0.7699  -0.7347  -0.7173  -0.7084  -0.6654  -0.6312  -0.6155  -0.5929
 -0.5748  -0.5507  -0.5324  -0.5282  -0.5152  -0.5078  -0.4959  -0.4751
 -0.4583  -0.4457  -0.4303  -0.4293  -0.4189  -0.4180  -0.4096  -0.4047
 -0.4027  -0.3939  -0.3826  -0.3811  -0.3742  -0.3653  -0.3646  -0.3633
 -0.3593  -0.3485  -0.3416  -0.3312  -0.3252  -0.3225  -0.3008  -0.2853
 -0.2508  -0.2423  -0.2361  -0.2155  -0.1987  -0.1815  -0.1327

          Ground-State Mulliken Net Atomic Charges

     Atom                 Charge (a.u.)
  ----------------------------------------
      1 O                    -0.344088
      2 C                    -0.411720
      3 C                    -0.478608
      4 C                     0.760421
      5 C                    -0.220333
      6 O                    -0.484467
      7 C                     0.760200
      8 C                    -0.662293
      9 O                    -0.666223
     10 C                    -0.234309
     11 O                    -0.388925
     12 C                    -0.481923
     13 O                    -0.347951
     14 C                    -0.191012
     15 C                     0.764026
     16 C                    -0.165296
     17 O                    -0.485853
     18 C                     0.726776
     19 C                    -0.690624
     20 O                    -0.671321
     21 C                    -0.094644
     22 O                    -0.396145
     23 H                     0.313446
     24 H                     0.171656
     25 H                     0.406756
     26 H                     0.317942
     27 H                     0.318552
     28 H                     0.157933
     29 H                     0.399822
     30 H                     0.318207
  ----------------------------------------
  Sum of atomic charges =    -2.000000

                    Cartesian Multipole Moments
 -----------------------------------------------------------------
    Charge (ESU x 10^10)
                -9.6064
    Dipole Moment (Debye)
         X       2.3677      Y      -1.9298      Z       2.9230
       Tot       4.2278
    Quadrupole Moments (Debye-Ang)
        XX    -231.3705     XY       3.0827     YY    -148.0423
        XZ     -16.8350     YZ      16.0082     ZZ    -160.2457

 Total job time:  129.19s(wall), 464.05s(cpu)
        *  Thank you very much for using Q-Chem.  Have a nice day.  *
