 Gaussian 16, Revision A.03,
 Gaussian 16:  ES64L-G16RevA.03 25-Dec-2016

 --------------------------------------
 #P UB3LYP/6-311++G(d,p) nosym opt freq
 --------------------------------------

 -------
 Reduced
 -------
 Symbolic Z-matrix:
 Charge = -2 Multiplicity = 1

 SCF Done:  E(UB3LYP) =  -1140.50511695     A.U. after   19 cycles
 SCF Done:  E(UB3LYP) =  -1140.50511723     A.U. after   10 cycles
 SCF Done:  E(UB3LYP) =  -1140.50511748     A.U. after   10 cycles
 Optimization completed.
    -- Stationary point found.
 Normal termination of Gaussian 16 at Sun Jan  7 07:04:05 2024.

 ----------------------------------------------------------------------
 #P Geom=AllCheck Guess=TCheck SCRF=Check GenChk UB3LYP/6-311++G(d,p) F
 req
 ----------------------------------------------------------------------

 Structure from the checkpoint file:  "208-an.chk"
 -------
 Reduced
 -------
 Charge = -2 Multiplicity = 1

                          Input orientation:
 ---------------------------------------------------------------------
 Center     Atomic      Atomic             Coordinates (Angstroms)
 Number     Number       Type             X           Y           Z
 ---------------------------------------------------------------------
      1          8           0        4.610769    1.536912   -1.445683
      2          6           0        3.476189    0.981878   -0.852736
      3          6           0        2.218644    1.225616   -1.349479
      4          6           0        1.082939    0.633601   -0.706614
      5          6           0       -0.228279    0.849702   -1.173311
      6          8           0       -0.416763    1.648774   -2.273480
      7          6           0       -1.338354    0.262078   -0.532744
      8          6           0       -2.682919    0.492696   -1.023479
      9          8           0       -2.948369    1.243192   -2.068223
     10          6           0       -3.759171   -0.109895   -0.357781
     11          8           0       -5.018527    0.150916   -0.877618
     12          6           0       -3.558726   -0.925445    0.766017
     13          8           0       -4.687203   -1.486774    1.369232
     14          6           0       -2.290506   -1.163537    1.256424
     15          6           0       -1.151187   -0.579549    0.624181
     16          6           0        0.157306   -0.797020    1.092639
     17          8           0        0.341398   -1.599092    2.195682
     18          6           0        1.265540   -0.211301    0.453606
     19          6           0        2.608161   -0.446844    0.950728
     20          8           0        2.884746   -1.196174    1.995916
     21          6           0        3.659168    0.161804    0.273267
     22          8           0        4.949103   -0.072078    0.761967
     23          1           0        5.354676    1.221056   -0.918045
     24          1           0        2.076985    1.856584   -2.216230
     25          1           0       -1.408056    1.655160   -2.415521
     26          1           0       -4.779202    0.733376   -1.628651
     27          1           0       -4.356900   -2.005276    2.109522
     28          1           0       -2.140932   -1.795338    2.126383
     29          1           0        1.330853   -1.608264    2.341384
     30          1           0        4.748618   -0.656759    1.522649
 ---------------------------------------------------------------------

 SCF Done:  E(UB3LYP) =  -1140.50511748     A.U. after    1 cycles

 Alpha  occ. eigenvalues --  -18.93979 -18.93600 -18.92451 -18.90671 -18.88536
 Alpha  occ. eigenvalues --  -18.88260 -18.83921 -18.83709 -10.00081  -9.99829
 Alpha  occ. eigenvalues --   -9.98097  -9.97945  -9.97765  -9.97749  -9.97198
 Alpha  occ. eigenvalues --   -9.97020  -9.93521  -9.93480  -9.93178  -9.93078
 Alpha  occ. eigenvalues --   -9.92472  -9.92017  -0.84670  -0.84415  -0.82150
 Alpha  occ. eigenvalues --   -0.81552  -0.79871  -0.79649  -0.73775  -0.73548
 Alpha  occ. eigenvalues --   -0.61936  -0.59388  -0.54682  -0.50730  -0.49395
 Alpha  occ. eigenvalues --   -0.48421  -0.44209  -0.41126  -0.39302  -0.37355
 Alpha  occ. eigenvalues --   -0.35303  -0.33011  -0.31056  -0.30401  -0.29702
 Alpha  occ. eigenvalues --   -0.29037  -0.27510  -0.25037  -0.23626  -0.22454
 Alpha  occ. eigenvalues --   -0.20761  -0.20613  -0.19925  -0.19322  -0.18749
 Alpha  occ. eigenvalues --   -0.18181  -0.17836  -0.17028  -0.16171  -0.15828
 Alpha  occ. eigenvalues --   -0.15633  -0.14745  -0.14343  -0.13990  -0.13687
 Alpha  occ. eigenvalues --   -0.12573  -0.11448  -0.10752  -0.09850  -0.09517
 Alpha  occ. eigenvalues --   -0.07215  -0.05993  -0.02308  -0.01464  -0.01461
 Alpha  occ. eigenvalues --    0.01437   0.02409   0.04499   0.09399
 Alpha virt. eigenvalues --    0.15831   0.16319   0.18647   0.18895   0.19710
 Alpha virt. eigenvalues --    0.20393   0.20396   0.22619   0.23354   0.23747
 Alpha virt. eigenvalues --    0.24419   0.24519   0.25035   0.25270   0.25600

  Beta  occ. eigenvalues --  -18.93979 -18.93600 -18.92451 -18.90671 -18.88536
  Beta  occ. eigenvalues --  -18.88260 -18.83921 -18.83709 -10.00081  -9.99829
  Beta  occ. eigenvalues --   -9.98097  -9.97945  -9.97765  -9.97749  -9.97198
  Beta  occ. eigenvalues --   -9.97020  -9.93521  -9.93480  -9.93178  -9.93078
  Beta  occ. eigenvalues --   -9.92472  -9.92017  -0.84670  -0.84415  -0.82150
  Beta  occ. eigenvalues --   -0.81552  -0.79871  -0.79649  -0.73775  -0.73548
  Beta  occ. eigenvalues --   -0.61936  -0.59388  -0.54682  -0.50730  -0.49395
  Beta  occ. eigenvalues --   -0.48421  -0.44209  -0.41126  -0.39302  -0.37355
  Beta  occ. eigenvalues --   -0.35303  -0.33011  -0.31056  -0.30401  -0.29702
  Beta  occ. eigenvalues --   -0.29037  -0.27510  -0.25037  -0.23626  -0.22454
  Beta  occ. eigenvalues --   -0.20761  -0.20613  -0.19925  -0.19322  -0.18749
  Beta  occ. eigenvalues --   -0.18181  -0.17836  -0.17028  -0.16171  -0.15828
  Beta  occ. eigenvalues --   -0.15633  -0.14745  -0.14343  -0.13990  -0.13687
  Beta  occ. eigenvalues --   -0.12573  -0.11448  -0.10752  -0.09850  -0.09517
  Beta  occ. eigenvalues --   -0.07215  -0.05993  -0.02308  -0.01464  -0.01461
  Beta  occ. eigenvalues --    0.01437   0.02409   0.04499   0.09399
  Beta virt. eigenvalues --    0.15831   0.16319   0.18647   0.18895   0.19710
  Beta virt. eigenvalues --    0.20393   0.20396   0.22619   0.23354   0.23747
  Beta virt. eigenvalues --    0.24419   0.24519   0.25035   0.25270   0.25600

 Mulliken charges and spin densities:
               1          2
     1  O   -0.316525  -0.000000
     2  C   -0.427118   0.000000
     3  C   -0.429959   0.000000
     4  C    0.917816   0.000000
     5  C   -0.286153  -0.000000
     6  O   -0.439013   0.000000
     7  C    0.815963  -0.000000
     8  C   -0.891194   0.000000
     9  O   -0.588917   0.000000
    10  C   -0.122331   0.000000
    11  O   -0.352788  -0.000000
    12  C   -0.391864  -0.000000
    13  O   -0.295807   0.000000
    14  C   -0.274568  -0.000000
    15  C    0.904257  -0.000000
    16  C   -0.238538  -0.000000
    17  O   -0.444694   0.000000
    18  C    0.769961  -0.000000
    19  C   -0.919209   0.000000
    20  O   -0.597463  -0.000000
    21  C   -0.032683  -0.000000
    22  O   -0.388112   0.000000
    23  H    0.255904   0.000000
    24  H    0.134235   0.000000
    25  H    0.391572  -0.000000
    26  H    0.270470  -0.000000
    27  H    0.237401  -0.000000
    28  H    0.082419   0.000000
    29  H    0.385790  -0.000000
    30  H    0.271146  -0.000000
 Sum of Mulliken charges =  -2.00000  -0.00000

 Dipole moment (field-independent basis, Debye):
    X=              1.7301    Y=             -1.3335    Z=              2.0328  Tot=              2.9839
 Quadrupole moment (field-independent basis, Debye-Ang):
   XX=           -245.4682   YY=           -149.9185   ZZ=           -162.1157
   XY=             -1.4071   XZ=            -12.6922   YZ=             17.6855

  Exact polarizability: 369.521  22.692 165.175   4.114 -68.361 204.516
 Approx polarizability: 571.961  35.346 291.640   5.582-149.641 378.754

                      1                      2                      3
                      A                      A                      A
 Frequencies --     45.5626                68.1706               106.2470
 Red. masses --      9.1010                 8.3188                10.3055
 Frc consts  --      0.0111                 0.0228                 0.0685
 IR Inten    --      0.7357                 1.6889                 0.0000

                      4                      5                      6
                      A                      A                      A
 Frequencies --    124.4378               143.7842               154.2427
 Red. masses --      4.7047                 7.8363                 2.9181
 Frc consts  --      0.0429                 0.0955                 0.0409
 IR Inten    --      7.6860                 2.2697                21.7476

                      7                      8                      9
                      A                      A                      A
 Frequencies --    155.0450               158.6163               181.1552
 Red. masses --      8.2349                 2.8556                 3.7693
 Frc consts  --      0.1166                 0.0423                 0.0729
 IR Inten    --      4.5089                10.4021                29.6798

                     10                     11                     12
                      A                      A                      A
 Frequencies --    262.4851               263.6667               271.7272
 Red. masses --      7.0206                 4.7923                 6.5309
 Frc consts  --      0.2850                 0.1963                 0.2841
 IR Inten    --      6.1188                11.5271                 1.5518

                     13                     14                     15
                      A                      A                      A
 Frequencies --    284.7221               287.6378               297.7373
 Red. masses --      5.8666                 5.8900                 5.9288
 Frc consts  --      0.2802                 0.2871                 0.3097
 IR Inten    --      0.8781                14.8636                 0.2432

                     16                     17                     18
                      A                      A                      A
 Frequencies --    306.4493               343.2873               347.0677
 Red. masses --      8.6754                 6.6449                 1.3316
 Frc consts  --      0.4800                 0.4614                 0.0945
 IR Inten    --      7.0760                26.2663                97.8441

                     19                     20                     21
                      A                      A                      A
 Frequencies --    355.9725               377.1123               378.3553
 Red. masses --      8.4127                 5.6002                 7.2548
 Frc consts  --      0.6281                 0.4692                 0.6119
 IR Inten    --      0.1885                 4.9163                57.0138

                     22                     23                     24
                      A                      A                      A
 Frequencies --    385.9787               426.6418               441.9430
 Red. masses --      7.3971                 8.5426                12.1993
 Frc consts  --      0.6493                 0.9161                 1.4038
 IR Inten    --     20.9806                 4.0477                12.9508

                     25                     26                     27
                      A                      A                      A
 Frequencies --    487.5376               527.5772               538.9857
 Red. masses --     11.2073                11.3749                10.6532
 Frc consts  --      1.5695                 1.8654                 1.8234
 IR Inten    --      0.0024                13.0291                 5.2186

                     28                     29                     30
                      A                      A                      A
 Frequencies --    539.4664               551.5055               573.7134
 Red. masses --      3.3852                 2.2149                 7.4119
 Frc consts  --      0.5805                 0.3969                 1.4374
 IR Inten    --      2.3237                11.8262                 5.3323

                     31                     32                     33
                      A                      A                      A
 Frequencies --    613.0293               624.6161               624.9808
 Red. masses --      1.6137                 1.7221                 9.2238
 Frc consts  --      0.3573                 0.3959                 2.1227
 IR Inten    --     35.2350                41.5329                19.5638

                     34                     35                     36
                      A                      A                      A
 Frequencies --    628.8498               652.5504               652.6511
 Red. masses --      7.6842                 2.3486                 3.8070
 Frc consts  --      1.7904                 0.5892                 0.9554
 IR Inten    --      2.2344                52.0467                21.3376

                     37                     38                     39
                      A                      A                      A
 Frequencies --    670.5795               679.9778               690.4948
 Red. masses --      4.7734                 6.2158                 3.2976
 Frc consts  --      1.2647                 1.6933                 0.9263
 IR Inten    --      1.0925               133.5132                49.1492

                     40                     41                     42
                      A                      A                      A
 Frequencies --    724.9279               730.4429               767.1633
 Red. masses --      7.9957                 2.7488                 6.3444
 Frc consts  --      2.4757                 0.8641                 2.2000
 IR Inten    --      0.1798                 1.3895                47.5861

                     43                     44                     45
                      A                      A                      A
 Frequencies --    771.8634               792.8443               877.1222
 Red. masses --      1.7118                 6.7307                 1.0577
 Frc consts  --      0.6009                 2.4928                 0.4794
 IR Inten    --     22.7121                 6.7564                51.0028

                     46                     47                     48
                      A                      A                      A
 Frequencies --    883.8668               891.5077               997.8617
 Red. masses --      1.0559                 8.9688                 8.2729
 Frc consts  --      0.4860                 4.1999                 4.8534
 IR Inten    --     76.4897                 0.3524               227.7736

                     49                     50                     51
                      A                      A                      A
 Frequencies --   1026.7416              1055.4492              1089.2445
 Red. masses --      5.0301                 6.1818                 5.2992
 Frc consts  --      3.1243                 4.0573                 3.7043
 IR Inten    --     90.4663                 6.0799               369.3352

                     52                     53                     54
                      A                      A                      A
 Frequencies --   1131.7467              1160.6465              1177.0455
 Red. masses --      2.9858                 5.6277                 1.7322
 Frc consts  --      2.2533                 4.4667                 1.4139
 IR Inten    --     15.3486                32.5529               218.8680

                     55                     56                     57
                      A                      A                      A
 Frequencies --   1210.3771              1250.9097              1263.9208
 Red. masses --      1.6888                 2.3831                 3.3597
 Frc consts  --      1.4577                 2.1971                 3.1622
 IR Inten    --    209.3815               153.5583                65.3731

                     58                     59                     60
                      A                      A                      A
 Frequencies --   1270.3153              1296.3161              1308.1065
 Red. masses --      2.3584                 2.2148                 5.2434
 Frc consts  --      2.2423                 2.1928                 5.2863
 IR Inten    --    293.1562               147.5715                24.0846

                     61                     62                     63
                      A                      A                      A
 Frequencies --   1354.6927              1361.8330              1375.8519
 Red. masses --      2.7842                 2.1999                 6.5580
 Frc consts  --      3.0105                 2.4039                 7.3141
 IR Inten    --     25.4673               239.6745                39.5157

                     64                     65                     66
                      A                      A                      A
 Frequencies --   1394.3880              1411.7367              1418.8826
 Red. masses --      6.6221                 4.4452                 3.6167
 Frc consts  --      7.5860                 5.2197                 4.2899
 IR Inten    --    153.5114               150.9970                20.5993

                     67                     68                     69
                      A                      A                      A
 Frequencies --   1445.0119              1458.7162              1499.0723
 Red. masses --      3.7826                 3.5644                 1.8350
 Frc consts  --      4.6535                 4.4687                 2.4295
 IR Inten    --    970.3195               548.3335                 4.1136

                     70                     71                     72
                      A                      A                      A
 Frequencies --   1542.0071              1574.8681              1604.3302
 Red. masses --      5.3419                 2.3220                 4.6840
 Frc consts  --      7.4837                 3.3932                 7.1031
 IR Inten    --     60.5415               279.8533                21.8172

                     73                     74                     75
                      A                      A                      A
 Frequencies --   1618.0730              1633.4412              1638.7639
 Red. masses --      6.6456                 2.2156                 5.7162
 Frc consts  --     10.2513                 3.4829                 9.0446
 IR Inten    --     21.9958                98.9601                70.4541

                     76                     77                     78
                      A                      A                      A
 Frequencies --   1666.4634              3061.2431              3085.0368
 Red. masses --      2.5740                 1.0727                 1.0724
 Frc consts  --      4.2117                 5.9228                 6.0137
 IR Inten    --      1.1859               624.4020               514.9478

                     79                     80                     81
                      A                      A                      A
 Frequencies --   3153.0403              3205.0481              3528.5202
 Red. masses --      1.0886                 1.0895                 1.0637
 Frc consts  --      6.3763                 6.5941                 7.8031
 IR Inten    --     32.5899                13.0702                58.0584

                     82                     83                     84
                      A                      A                      A
 Frequencies --   3532.4747              3789.6273              3830.3198
 Red. masses --      1.0639                 1.0654                 1.0654
 Frc consts  --      7.8215                 9.0150                 9.2096
 IR Inten    --     60.4999                76.8147                13.7477

 - Thermochemistry -
 -------------------
 Temperature   298.150 Kelvin.  Pressure   1.00000 Atm.
 Atom     1 has atomic number  8 and mass  15.99491

 Molecular mass:   304.02192 amu.
 Principal axes and moments of inertia in atomic units:
                           1         2         3
     Eigenvalues --  2963.87083********************
           X            0.99641   0.02782  -0.07998
           Y            0.08080  -0.59477   0.79982
           Z            0.02532   0.80341   0.59488
 This molecule is an asymmetric top.
 Rotational symmetry number  1.
 Warning -- assumption of classical behavior for rotation
           may cause significant error
 Rotational temperatures (Kelvin)      0.02922     0.00843     0.00654
 Rotational constants (GHZ):           0.60891     0.17561     0.13630
 Zero-point vibrational energy     526873.8 (Joules/Mol)
                                  125.92586 (Kcal/Mol)
 Warning -- explicit consideration of  31 degrees of freedom as
           vibrations may cause significant error
 Vibrational temperatures:     65.55    98.08   152.87   179.04   206.87
          (Kelvin)            221.92   223.08   228.21   260.64   377.66
                              379.36   390.95   409.65   413.85   428.38
                              440.91   493.91   499.35   512.17   542.58
                              544.37   555.34   613.84   635.86   701.46
                              759.07   775.48   776.17   793.49   825.45
                              882.01   898.68   899.21   904.77   938.87
                              939.02   964.81   978.34   993.47  1043.01
                             1050.94  1103.78  1110.54  1140.73  1261.98
                             1271.69  1282.68  1435.70  1477.25  1518.56
                             1567.18  1628.33  1669.91  1693.51  1741.46
                             1799.78  1818.50  1827.70  1865.11  1882.07
                             1949.10  1959.37  1979.54  2006.21  2031.17
                             2041.46  2079.05  2098.77  2156.83  2218.60
                             2265.88  2308.27  2328.05  2350.16  2357.82
                             2397.67  4404.45  4438.68  4536.52  4611.35
                             5076.75  5082.44  5452.43  5510.98

 Zero-point correction=                           0.200676 (Hartree/Particle)
 Thermal correction to Energy=                    0.218836
 Thermal correction to Enthalpy=                  0.219781
 Thermal correction to Gibbs Free Energy=         0.156025
 Sum of electronic and zero-point Energies=          -1140.304442
 Sum of electronic and thermal Energies=             -1140.286281
 Sum of electronic and thermal Enthalpies=           -1140.285337
 Sum of electronic and thermal Free Energies=        -1140.349093

                     E (Thermal)             CV                S
                      KCal/Mol        Cal/Mol-Kelvin    Cal/Mol-Kelvin
 Total                  137.322             72.155            134.185
 Electronic               0.000              0.000              0.000
 Translational            0.889              2.981             43.032
 Rotational               0.889              2.981             34.355
 Vibrational            135.544             66.193             56.798
 Vibration     1          0.595              1.979              5.001
 Vibration     2          0.598              1.969              4.205
 Vibration     3          0.605              1.944              3.336
 Vibration     4          0.610              1.929              3.030
 Vibration     5          0.616              1.909              2.753
 Vibration     6          0.620              1.898              2.619
 Vibration     7          0.620              1.897              2.609
 Vibration     8          0.621              1.893              2.566
 Vibration     9          0.630              1.865              2.316
 Vibration    10          0.670              1.742              1.645
 Vibration    11          0.670              1.739              1.637
 Vibration    12          0.675              1.725              1.585
 Vibration    13          0.683              1.702              1.505
 Vibration    14          0.685              1.697              1.488
 Vibration    15          0.691              1.678              1.430
 Vibration    16          0.697              1.661              1.381
 Vibration    17          0.722              1.589              1.197
 Vibration    18          0.725              1.581              1.179
 Vibration    19          0.731              1.563              1.140
 Vibration    20          0.748              1.519              1.051
 Vibration    21          0.749              1.516              1.046
 Vibration    22          0.755              1.500              1.016
 Vibration    23          0.788              1.412              0.870
 Vibration    24          0.802              1.379              0.821
 Vibration    25          0.843              1.278              0.690
 Vibration    26          0.883              1.189              0.593
 Vibration    27          0.894              1.164              0.567
 Vibration    28          0.895              1.163              0.566
 Vibration    29          0.907              1.136              0.541
 Vibration    30          0.930              1.088              0.497
 Vibration    31          0.972              1.004              0.428

                           ! Non-Optimized Parameters !
 Normal termination of Gaussian 16 at Sun Jan  7 08:51:01 2024.
