 Gaussian 16, Revision A.03,
 Gaussian 16:  ES64L-G16RevA.03 25-Dec-2016

 ----------------------------------------------------------------
 #P UB3LYP/6-311++G(d,p) SCRF=(PCM,Solvent=n,n-DiMethylFormamide)
 ----------------------------------------------------------------

 -------
 Reduced
 -------
 Symbolic Z-matrix:
 Charge = -2 Multiplicity = 1

                         Standard orientation:
 ---------------------------------------------------------------------
 Center     Atomic      Atomic             Coordinates (Angstroms)
 Number     Number       Type             X           Y           Z
 ---------------------------------------------------------------------
      1          8           0       -4.716940   -1.891059    0.000555
      2          6           0       -3.554134   -1.119824    0.000107
      3          6           0       -2.310076   -1.702835    0.000130
      4          6           0       -1.144226   -0.869541   -0.000112
      5          6           0        0.154908   -1.413644   -0.000027
      6          8           0        0.301651   -2.778517   -0.000309
      7          6           0        1.294911   -0.584013   -0.000173
      8          6           0        2.626617   -1.157093   -0.000109
      9          8           0        2.852798   -2.450940   -0.000116
     10          6           0        3.733587   -0.297323    0.000018
     11          8           0        4.978563   -0.909096    0.000103
     12          6           0        3.575752    1.096703    0.000221
     13          8           0        4.732765    1.880120    0.000357
     14          6           0        2.320736    1.671598    0.000090
     15          6           0        1.151708    0.851723   -0.000059
     16          6           0       -0.144638    1.397970    0.000026
     17          8           0       -0.286823    2.766800   -0.000030
     18          6           0       -1.282684    0.570647   -0.000291
     19          6           0       -2.612191    1.151727   -0.000339
     20          8           0       -2.849573    2.445583   -0.000026
     21          6           0       -3.694243    0.278122   -0.000601
     22          8           0       -4.971203    0.849815   -0.000116
     23          1           0       -5.443991   -1.256269    0.002311
     24          1           0       -2.201395   -2.778769    0.000506
     25          1           0        1.291995   -2.927168   -0.000414
     26          1           0        4.709042   -1.851404    0.000049
     27          1           0        4.429713    2.793428   -0.000384
     28          1           0        2.204166    2.750849    0.000323
     29          1           0       -1.275188    2.919992    0.000171
     30          1           0       -4.740415    1.802400    0.000796
 ---------------------------------------------------------------------

 SCF Done:  E(UB3LYP) =  -1140.74082012     A.U. after   15 cycles

 The electronic state is 1-A.
 Alpha  occ. eigenvalues --  -19.14509 -19.14381 -19.13492 -19.12765 -19.11231
 Alpha  occ. eigenvalues --  -19.11168 -19.06266 -19.06248 -10.21938 -10.21780
 Alpha  occ. eigenvalues --  -10.20435 -10.20380 -10.20359 -10.20352 -10.19298
 Alpha  occ. eigenvalues --  -10.19248 -10.16061 -10.16004 -10.15749 -10.15688
 Alpha  occ. eigenvalues --  -10.14336 -10.14164  -1.05663  -1.05249  -1.03535
 Alpha  occ. eigenvalues --   -1.03312  -1.02572  -1.02443  -0.96191  -0.96127
 Alpha  occ. eigenvalues --   -0.84470  -0.81643  -0.76841  -0.73266  -0.71577
 Alpha  occ. eigenvalues --   -0.70676  -0.66386  -0.63000  -0.61401  -0.59170
 Alpha  occ. eigenvalues --   -0.57318  -0.54959  -0.53071  -0.52674  -0.51436
 Alpha  occ. eigenvalues --   -0.50696  -0.49479  -0.47313  -0.45659  -0.44432
 Alpha  occ. eigenvalues --   -0.42858  -0.42742  -0.41742  -0.41593  -0.40761
 Alpha  occ. eigenvalues --   -0.40228  -0.40133  -0.39215  -0.38111  -0.37887
 Alpha  occ. eigenvalues --   -0.37331  -0.36338  -0.36314  -0.36143  -0.35775
 Alpha  occ. eigenvalues --   -0.34691  -0.33941  -0.32913  -0.32314  -0.32001
 Alpha  occ. eigenvalues --   -0.29836  -0.28334  -0.24818  -0.23982  -0.23473
 Alpha  occ. eigenvalues --   -0.21305  -0.19707  -0.17932  -0.13065
 Alpha virt. eigenvalues --   -0.02020  -0.00534  -0.00061   0.01039   0.01362
 Alpha virt. eigenvalues --    0.02059   0.02177   0.03330   0.04041   0.04614
 Alpha virt. eigenvalues --    0.04819   0.04901   0.06358   0.06803   0.06918

  Beta  occ. eigenvalues --  -19.14509 -19.14381 -19.13492 -19.12765 -19.11231
  Beta  occ. eigenvalues --  -19.11168 -19.06266 -19.06248 -10.21938 -10.21780
  Beta  occ. eigenvalues --  -10.20435 -10.20380 -10.20359 -10.20352 -10.19298
  Beta  occ. eigenvalues --  -10.19248 -10.16061 -10.16004 -10.15749 -10.15688
  Beta  occ. eigenvalues --  -10.14336 -10.14164  -1.05663  -1.05249  -1.03535
  Beta  occ. eigenvalues --   -1.03312  -1.02572  -1.02443  -0.96191  -0.96127
  Beta  occ. eigenvalues --   -0.84470  -0.81643  -0.76841  -0.73266  -0.71577
  Beta  occ. eigenvalues --   -0.70676  -0.66386  -0.63000  -0.61401  -0.59170
  Beta  occ. eigenvalues --   -0.57318  -0.54959  -0.53071  -0.52674  -0.51436
  Beta  occ. eigenvalues --   -0.50696  -0.49479  -0.47313  -0.45659  -0.44432
  Beta  occ. eigenvalues --   -0.42858  -0.42742  -0.41742  -0.41593  -0.40761
  Beta  occ. eigenvalues --   -0.40228  -0.40133  -0.39215  -0.38111  -0.37887
  Beta  occ. eigenvalues --   -0.37331  -0.36338  -0.36314  -0.36143  -0.35775
  Beta  occ. eigenvalues --   -0.34691  -0.33941  -0.32913  -0.32314  -0.32001
  Beta  occ. eigenvalues --   -0.29836  -0.28334  -0.24818  -0.23982  -0.23473
  Beta  occ. eigenvalues --   -0.21305  -0.19707  -0.17932  -0.13065
  Beta virt. eigenvalues --   -0.02020  -0.00534  -0.00061   0.01039   0.01362
  Beta virt. eigenvalues --    0.02059   0.02177   0.03330   0.04041   0.04614
  Beta virt. eigenvalues --    0.04819   0.04901   0.06358   0.06803   0.06918

 Mulliken charges and spin densities:
               1          2
     1  O   -0.331365   0.000000
     2  C   -0.415842  -0.000000
     3  C   -0.459852  -0.000000
     4  C    0.781749   0.000000
     5  C   -0.233476   0.000000
     6  O   -0.473811  -0.000000
     7  C    0.757999  -0.000000
     8  C   -0.699522  -0.000000
     9  O   -0.651750  -0.000000
    10  C   -0.222521  -0.000000
    11  O   -0.377084   0.000000
    12  C   -0.455642   0.000000
    13  O   -0.329896  -0.000000
    14  C   -0.199739  -0.000000
    15  C    0.779201  -0.000000
    16  C   -0.177282  -0.000000
    17  O   -0.475611   0.000000
    18  C    0.725999  -0.000000
    19  C   -0.718740   0.000000
    20  O   -0.656896  -0.000000
    21  C   -0.088490   0.000000
    22  O   -0.387692   0.000000
    23  H    0.298797  -0.000000
    24  H    0.161316   0.000000
    25  H    0.402390   0.000000
    26  H    0.306184  -0.000000
    27  H    0.298576  -0.000000
    28  H    0.140553   0.000000
    29  H    0.395638  -0.000000
    30  H    0.306808  -0.000000
 Sum of Mulliken charges =  -2.00000   0.00000

 Dipole moment (field-independent basis, Debye):
    X=             -1.9158    Y=              2.9986    Z=              0.0048  Tot=              3.5583
 Quadrupole moment (field-independent basis, Debye-Ang):
   XX=           -231.8745   YY=           -172.3191   ZZ=           -136.4933
   XY=             16.2654   XZ=             -0.0365   YZ=             -0.0029

 Normal termination of Gaussian 16 at Tue Jan 16 06:28:47 2024.
