 Q-Chem 5.4, Q-Chem, Inc., Pleasanton, CA (2021)
 Q-Chem 5.4.0 for Intel X86 EM64T Linux

User input:
--------------------------------------------------------------
$molecule
0 1
C                  2.6869040000      0.3681620000      0.4922800000
O                  1.7298450000     -0.6666000000      0.2562920000
C                  0.4478260000     -0.3256040000      0.1189170000
C                 -0.0712460000      0.9230290000      0.1784320000
C                 -1.5083210000      1.1608650000      0.0089150000
O                 -1.9873930000      2.2853410000      0.0606500000
C                 -2.3863630000     -0.0184760000     -0.2317090000
C                 -1.8877110000     -1.2581760000     -0.2931340000
C                 -0.4402530000     -1.5247590000     -0.1249960000
O                  0.0139060000     -2.6486870000     -0.1795770000
H                  2.4653250000      0.8952410000      1.4248340000
H                  3.6482310000     -0.1341380000      0.5697410000
H                  2.7029260000      1.0778770000     -0.3399560000
H                  0.5324610000      1.8040430000      0.3510340000
H                 -3.4425580000      0.1952480000     -0.3520630000
H                 -2.5035790000     -2.1333660000     -0.4671000000
$end
$rem
MAX_SCF_CYCLES=200
BASIS  =  6-311++G(d,p)
GUI  =  2
JOB_TYPE  =  SP
METHOD  =  B3LYP
SOLVENT_METHOD = COSMO
$end
$solvent
dielectric 37.219
opticaldielectric 1.43
$end

--------------------------------------------------------------

             Standard Nuclear Orientation (Angstroms)
    I     Atom           X                Y                Z
 ----------------------------------------------------------------
    1      C       2.6562131090    -1.4126339163     0.0002642533
    2      O       2.0477083161    -0.1195343218     0.0001296831
    3      C       0.7160991805    -0.0451035510    -0.0000921283
    4      C      -0.1551492026    -1.0809550368    -0.0004076071
    5      C      -1.6046840514    -0.8588398743    -0.0000784898
    6      O      -2.4004679610    -1.7880119441    -0.0000707264
    7      C      -2.0941941836     0.5483142219     0.0001146042
    8      C      -1.2452108964     1.5820018729     0.0005095527
    9      C       0.2228984294     1.3841982326    -0.0000120143
   10      O       0.9946667306     2.3205887021    -0.0004701676
   11      H       2.3728890778    -1.9740239128    -0.8947973388
   12      H       3.7284696841    -1.2317447396     0.0004649792
   13      H       2.3725147116    -1.9739470598     0.8952567782
   14      H       0.1604317763    -2.1157728493    -0.0004424396
   15      H      -3.1711671580     0.6741717704     0.0001522506
   16      H      -1.5742290867     2.6150856071     0.0008664328
 ----------------------------------------------------------------

    9    -496.1228546523      8.70e-06  Convergence criterion met
 Total energy in the final basis set =     -496.1228546523
    5    -496.1410448014      7.12e-06  Convergence criterion met
 Total energy in the final basis set =     -496.1410448014

                    Orbital Energies (a.u.)
 --------------------------------------------------------------

 Alpha MOs
 -- Occupied --
-19.1906 -19.1520 -19.1378 -10.2969 -10.2859 -10.2770 -10.2301 -10.2128
-10.2113 -10.1965  -1.1131  -1.0792  -1.0687  -0.8620  -0.7934  -0.7462
 -0.6980  -0.6306  -0.6110  -0.5466  -0.5355  -0.5076  -0.4954  -0.4823
 -0.4582  -0.4543  -0.4481  -0.4314  -0.4247  -0.4140  -0.3688  -0.3669
 -0.3133  -0.2977  -0.2858  -0.2710

          Ground-State Mulliken Net Atomic Charges

     Atom                 Charge (a.u.)
  ----------------------------------------
      1 C                    -0.333186
      2 O                    -0.168768
      3 C                    -0.176016
      4 C                     0.681393
      5 C                    -0.509572
      6 O                    -0.346899
      7 C                     0.188567
      8 C                     0.205831
      9 C                    -0.623169
     10 O                    -0.305167
     11 H                     0.188004
     12 H                     0.213140
     13 H                     0.187962
     14 H                     0.268955
     15 H                     0.264983
     16 H                     0.263941
  ----------------------------------------
  Sum of atomic charges =     0.000000

                    Cartesian Multipole Moments
 -----------------------------------------------------------------
    Charge (ESU x 10^10)
                 0.0000
    Dipole Moment (Debye)
         X       1.4475      Y      -1.2647      Z       0.0011
       Tot       1.9222
    Quadrupole Moments (Debye-Ang)
        XX     -58.1213     XY     -22.1981     YY     -64.3634
        XZ       0.0005     YZ       0.0038     ZZ     -57.2540

 Total job time:  19.50s(wall), 87.02s(cpu)
        *  Thank you very much for using Q-Chem.  Have a nice day.  *
