 Q-Chem 5.4, Q-Chem, Inc., Pleasanton, CA (2021)
 Q-Chem 5.4.0 for Intel X86 EM64T Linux

User input:
--------------------------------------------------------------
$molecule
0 1
Cl                 3.0042660000     -0.8768930000     -0.1896520000
C                  1.3718010000     -0.3098590000     -0.0839020000
C                  1.0746500000      0.9950780000     -0.0286450000
C                 -0.3295850000      1.4556890000      0.0615850000
O                 -0.5979970000      2.6438570000      0.1118130000
C                 -1.3974890000      0.4310240000      0.0889560000
C                 -1.1036080000     -0.8746800000      0.0338100000
Cl                -2.3315660000     -2.0948570000      0.0639220000
C                  0.3116570000     -1.3767940000     -0.0581600000
O                  0.5773270000     -2.5520730000     -0.1079180000
H                  1.8358650000      1.7649570000     -0.0469740000
H                 -2.4153210000      0.7945510000      0.1551650000
$end
$rem
MAX_SCF_CYCLES=200
BASIS  =  6-311++G(d,p)
GUI  =  2
JOB_TYPE  =  SP
METHOD  =  B3LYP
SOLVENT_METHOD = PCM
$end
$pcm
theory = CPCM
$end
$solvent
dielectric 37.219
opticaldielectric 1.43
$end

--------------------------------------------------------------

             Standard Nuclear Orientation (Angstroms)
    I     Atom           X                Y                Z
 ----------------------------------------------------------------
    1      Cl      3.0042660000    -0.8768930000    -0.1896520000
    2      C       1.3718010000    -0.3098590000    -0.0839020000
    3      C       1.0746500000     0.9950780000    -0.0286450000
    4      C      -0.3295850000     1.4556890000     0.0615850000
    5      O      -0.5979970000     2.6438570000     0.1118130000
    6      C      -1.3974890000     0.4310240000     0.0889560000
    7      C      -1.1036080000    -0.8746800000     0.0338100000
    8      Cl     -2.3315660000    -2.0948570000     0.0639220000
    9      C       0.3116570000    -1.3767940000    -0.0581600000
   10      O       0.5773270000    -2.5520730000    -0.1079180000
   11      H       1.8358650000     1.7649570000    -0.0469740000
   12      H      -2.4153210000     0.7945510000     0.1551650000
 ----------------------------------------------------------------

    9   -1300.8113066154      8.89e-06  Convergence criterion met
 Total energy in the final basis set =    -1300.8113066154

                    Orbital Energies (a.u.)
 --------------------------------------------------------------

 Alpha MOs
 -- Occupied --
********-101.5832 -19.1666 -19.1547 -10.3187 -10.3032 -10.2830 -10.2830
-10.2261 -10.2261  -9.4977  -9.4976  -7.2626  -7.2624  -7.2528  -7.2527
 -7.2517  -7.2516  -1.1046  -1.0855  -0.9237  -0.9103  -0.8427  -0.7809
 -0.7243  -0.6425  -0.6233  -0.5563  -0.5284  -0.5016  -0.4800  -0.4795
 -0.4706  -0.4565  -0.4399  -0.4333  -0.3983  -0.3784  -0.3482  -0.3416
 -0.3155  -0.3102  -0.2994  -0.2910

          Ground-State Mulliken Net Atomic Charges

     Atom                 Charge (a.u.)
  ----------------------------------------
      1 Cl                    0.324400
      2 C                     1.036181
      3 C                    -0.275421
      4 C                    -0.602869
      5 O                    -0.285932
      6 C                    -0.273626
      7 C                     1.036500
      8 Cl                    0.324616
      9 C                    -1.659717
     10 O                    -0.175325
     11 H                     0.275565
     12 H                     0.275629
  ----------------------------------------
  Sum of atomic charges =     0.000000

                    Cartesian Multipole Moments
 -----------------------------------------------------------------
    Charge (ESU x 10^10)
                 0.0000
    Dipole Moment (Debye)
         X      -0.2787      Y       1.2268      Z       0.0511
       Tot       1.2591
    Quadrupole Moments (Debye-Ang)
        XX     -66.4310     XY       5.3519     YY     -88.8576
        XZ       0.0200     YZ      -0.8861     ZZ     -69.0341

 Total job time:  44.04s(wall), 70.16s(cpu)
        *  Thank you very much for using Q-Chem.  Have a nice day.  *
