 Gaussian 16, Revision A.03,
 Gaussian 16:  ES64L-G16RevA.03 25-Dec-2016

 ----------------------------------------------
 #P UB3LYP/6-311++G(d,p) nosym opt freq SCF=YQC
 ----------------------------------------------

 -------
 Reduced
 -------
 Symbolic Z-matrix:
 Charge = -2 Multiplicity = 1

 SCF Done:  E(UB3LYP) =  -1065.05437349     a.u. after    7 cycles
 SCF Done:  E(UB3LYP) =  -1065.06681052     A.U. after   33 cycles
 SCF Done:  E(UB3LYP) =  -1065.07103344     a.u. after    5 cycles
 SCF Done:  E(UB3LYP) =  -1065.12605612     a.u. after   41 cycles
 SCF Done:  E(UB3LYP) =  -1065.12635529     A.U. after   26 cycles
 SCF Done:  E(UB3LYP) =  -1065.15160363     a.u. after   67 cycles
 SCF Done:  E(UB3LYP) =  -1065.15267788     A.U. after   33 cycles
 SCF Done:  E(UB3LYP) =  -1065.15267788     a.u. after    1 cycles
 SCF Done:  E(UB3LYP) =  -1065.16505136     a.u. after   25 cycles
 SCF Done:  E(UB3LYP) =  -1065.16526052     A.U. after   24 cycles
 SCF Done:  E(UB3LYP) =  -1065.20170944     a.u. after    1 cycles
 SCF Done:  E(UB3LYP) =  -1065.20171841     A.U. after   14 cycles
 SCF Done:  E(UB3LYP) =  -1065.20171122     a.u. after    1 cycles
 SCF Done:  E(UB3LYP) =  -1065.20171861     A.U. after   13 cycles
 SCF Done:  E(UB3LYP) =  -1065.20170814     a.u. after    1 cycles
 SCF Done:  E(UB3LYP) =  -1065.20171872     A.U. after   14 cycles
 SCF Done:  E(UB3LYP) =  -1065.20171696     a.u. after    1 cycles
 SCF Done:  E(UB3LYP) =  -1065.20171873     A.U. after   13 cycles
 Optimization completed.
    -- Stationary point found.
 Normal termination of Gaussian 16 at Fri Dec 22 15:15:26 2023.

 ----------------------------------------------------------------------
 #P Geom=AllCheck Guess=TCheck SCRF=Check GenChk UB3LYP/6-311++G(d,p) F
 req
 ----------------------------------------------------------------------

 Structure from the checkpoint file:  "207-an.chk"
 -------
 Reduced
 -------
 Charge = -2 Multiplicity = 1

                          Input orientation:
 ---------------------------------------------------------------------
 Center     Atomic      Atomic             Coordinates (Angstroms)
 Number     Number       Type             X           Y           Z
 ---------------------------------------------------------------------
      1          8           0        4.573579   -1.421171   -0.902283
      2          6           0        3.396436   -0.684498   -0.614214
      3          6           0        3.500708    0.673354   -0.254613
      4          6           0        2.360897    1.404041    0.103893
      5          8           0        2.429806    2.658132    0.443550
      6          6           0        1.064059    0.698693    0.054538
      7          6           0       -0.112209    1.410130    0.396158
      8          8           0       -0.015938    2.715819    0.749468
      9          6           0       -1.386400    0.782935    0.372969
     10          6           0       -2.611835    1.439760    0.734975
     11          8           0       -2.602484    2.771908    1.175061
     12          6           0       -3.807986    0.768154    0.664781
     13          6           0       -3.901496   -0.575656    0.236526
     14          6           0       -2.762504   -1.302163   -0.124525
     15          8           0       -2.829984   -2.546852   -0.512424
     16          6           0       -1.466132   -0.602367   -0.047827
     17          6           0       -0.287645   -1.308254   -0.407061
     18          8           0       -0.390015   -2.594155   -0.823399
     19          6           0        0.986383   -0.692785   -0.346160
     20          6           0        2.215482   -1.378040   -0.652829
     21          8           0        2.260203   -2.744473   -0.922763
     22          1           0        5.250876   -1.094555   -0.298156
     23          1           0        4.454760    1.190001   -0.313853
     24          1           0        0.984708    2.917412    0.688506
     25          1           0       -3.528783    3.027987    1.219583
     26          1           0       -4.718759    1.296092    0.958174
     27          1           0       -4.863473   -1.077422    0.188564
     28          1           0       -1.395533   -2.794704   -0.766201
     29          1           0        3.203276   -2.937323   -1.000437
 ---------------------------------------------------------------------

 SCF Done:  E(UB3LYP) =  -1065.20171873     a.u. after    1 cycles
 SCF Done:  E(UB3LYP) =  -1065.20171873     A.U. after    1 cycles

 Alpha  occ. eigenvalues --  -18.94451 -18.91406 -18.90620 -18.86104 -18.85562
 Alpha  occ. eigenvalues --  -18.82257 -18.81518  -9.98647  -9.98190  -9.97951
 Alpha  occ. eigenvalues --   -9.97787  -9.97701  -9.97355  -9.97051  -9.93486
 Alpha  occ. eigenvalues --   -9.93422  -9.93296  -9.92750  -9.92686  -9.91308
 Alpha  occ. eigenvalues --   -9.90835  -0.84616  -0.81888  -0.80765  -0.78681
 Alpha  occ. eigenvalues --   -0.78114  -0.73149  -0.72315  -0.60826  -0.58394
 Alpha  occ. eigenvalues --   -0.54184  -0.49986  -0.48713  -0.47175  -0.43527
 Alpha  occ. eigenvalues --   -0.40201  -0.39000  -0.35796  -0.33003  -0.32033
 Alpha  occ. eigenvalues --   -0.31207  -0.29670  -0.28661  -0.25978  -0.24282
 Alpha  occ. eigenvalues --   -0.23101  -0.21586  -0.21226  -0.20214  -0.18795
 Alpha  occ. eigenvalues --   -0.18116  -0.17953  -0.17436  -0.16308  -0.15812
 Alpha  occ. eigenvalues --   -0.15256  -0.14245  -0.13917  -0.13720  -0.13469
 Alpha  occ. eigenvalues --   -0.12608  -0.11360  -0.10568  -0.10200  -0.09036
 Alpha  occ. eigenvalues --   -0.08619  -0.05459  -0.04107  -0.01974   0.00318
 Alpha  occ. eigenvalues --    0.00356   0.01486   0.03248   0.05854   0.10359
 Alpha virt. eigenvalues --    0.14704   0.15573   0.17865   0.18238   0.19676
 Alpha virt. eigenvalues --    0.20346   0.21315   0.21869   0.22506   0.22945
 Alpha virt. eigenvalues --    0.24165   0.25188   0.25522   0.25734   0.26306

  Beta  occ. eigenvalues --  -18.94451 -18.91406 -18.90620 -18.86104 -18.85562
  Beta  occ. eigenvalues --  -18.82257 -18.81518  -9.98647  -9.98190  -9.97951
  Beta  occ. eigenvalues --   -9.97787  -9.97701  -9.97355  -9.97051  -9.93486
  Beta  occ. eigenvalues --   -9.93422  -9.93296  -9.92750  -9.92686  -9.91308
  Beta  occ. eigenvalues --   -9.90835  -0.84616  -0.81888  -0.80765  -0.78681
  Beta  occ. eigenvalues --   -0.78114  -0.73149  -0.72315  -0.60826  -0.58394
  Beta  occ. eigenvalues --   -0.54184  -0.49986  -0.48713  -0.47175  -0.43527
  Beta  occ. eigenvalues --   -0.40201  -0.39000  -0.35796  -0.33003  -0.32033
  Beta  occ. eigenvalues --   -0.31207  -0.29670  -0.28661  -0.25978  -0.24282
  Beta  occ. eigenvalues --   -0.23101  -0.21586  -0.21226  -0.20214  -0.18795
  Beta  occ. eigenvalues --   -0.18116  -0.17953  -0.17436  -0.16308  -0.15812
  Beta  occ. eigenvalues --   -0.15256  -0.14245  -0.13917  -0.13720  -0.13469
  Beta  occ. eigenvalues --   -0.12608  -0.11360  -0.10568  -0.10200  -0.09036
  Beta  occ. eigenvalues --   -0.08619  -0.05459  -0.04107  -0.01974   0.00318
  Beta  occ. eigenvalues --    0.00356   0.01486   0.03248   0.05854   0.10359
  Beta virt. eigenvalues --    0.14704   0.15573   0.17865   0.18238   0.19676
  Beta virt. eigenvalues --    0.20346   0.21315   0.21869   0.22506   0.22945
  Beta virt. eigenvalues --    0.24165   0.25188   0.25522   0.25734   0.26306

 Mulliken charges and spin densities:
               1          2
     1  O   -0.372806   0.000000
     2  C   -0.531718  -0.000000
     3  C    0.312167  -0.000000
     4  C   -0.863687  -0.000000
     5  O   -0.558003   0.000000
     6  C    0.525919  -0.000000
     7  C   -0.113897   0.000000
     8  O   -0.489073  -0.000000
     9  C    0.363112   0.000000
    10  C   -0.280913   0.000000
    11  O   -0.281985  -0.000000
    12  C   -0.078940   0.000000
    13  C   -0.078159  -0.000000
    14  C   -0.758010   0.000000
    15  O   -0.567174  -0.000000
    16  C    0.560818  -0.000000
    17  C   -0.126075   0.000000
    18  O   -0.496987   0.000000
    19  C    0.747255   0.000000
    20  C   -0.412117  -0.000000
    21  O   -0.310651   0.000000
    22  H    0.162119   0.000000
    23  H    0.100733  -0.000000
    24  H    0.474676   0.000000
    25  H    0.218813   0.000000
    26  H    0.035268   0.000000
    27  H    0.086263   0.000000
    28  H    0.477633   0.000000
    29  H    0.255417  -0.000000
 Sum of Mulliken charges =  -2.00000   0.00000

 Dipole moment (field-independent basis, Debye):
    X=              1.0050    Y=              1.0526    Z=              1.0629  Tot=              1.8022
 Quadrupole moment (field-independent basis, Debye-Ang):
   XX=           -187.5884   YY=           -187.1993   ZZ=           -137.3883
   XY=            -23.9922   XZ=              3.4803   YZ=            -15.6123

  Exact polarizability: 592.536 -42.938 257.952  -6.016  33.430 130.473
 Approx polarizability: 811.346 -26.517 467.862 -31.147  78.391 211.610

                      1                      2                      3
                      A                      A                      A
 Frequencies --     35.5071                61.2895                87.5622
 Red. masses --      7.6242                 7.3366                 8.1719
 Frc consts  --      0.0057                 0.0162                 0.0369
 IR Inten    --      4.7845                 0.0795                 3.1285

                      4                      5                      6
                      A                      A                      A
 Frequencies --    101.3066               110.9321               167.7218
 Red. masses --     10.8678                 7.8311                 7.7112
 Frc consts  --      0.0657                 0.0568                 0.1278
 IR Inten    --      0.7010                 0.2183                 4.5317

                      7                      8                      9
                      A                      A                      A
 Frequencies --    187.8956               210.9920               249.7019
 Red. masses --      7.7680                 5.2688                 1.2303
 Frc consts  --      0.1616                 0.1382                 0.0452
 IR Inten    --     15.5931                 7.5100               114.3692

                     10                     11                     12
                      A                      A                      A
 Frequencies --    259.9272               268.2269               293.3013
 Red. masses --      1.3229                 5.6661                 3.8776
 Frc consts  --      0.0527                 0.2402                 0.1965
 IR Inten    --     64.7243                21.5880                 8.3819

                     13                     14                     15
                      A                      A                      A
 Frequencies --    325.9281               338.1679               342.4606
 Red. masses --     11.2558                 4.1820                 6.5817
 Frc consts  --      0.7045                 0.2818                 0.4548
 IR Inten    --      1.7910                18.6716                35.6517

                     16                     17                     18
                      A                      A                      A
 Frequencies --    358.7611               375.2284               396.5096
 Red. masses --      6.8359                 7.3036                 6.1015
 Frc consts  --      0.5184                 0.6059                 0.5652
 IR Inten    --     11.5939                 4.1191                17.6769

                     19                     20                     21
                      A                      A                      A
 Frequencies --    400.3193               413.4581               431.4145
 Red. masses --      5.8256                 7.0847                 6.0435
 Frc consts  --      0.5501                 0.7136                 0.6627
 IR Inten    --      8.4567                15.9526                63.3570

                     22                     23                     24
                      A                      A                      A
 Frequencies --    443.0045               466.4781               478.4573
 Red. masses --      1.4813                11.5972                 9.3847
 Frc consts  --      0.1713                 1.4868                 1.2658
 IR Inten    --     79.7598                13.6323                17.9718

                     25                     26                     27
                      A                      A                      A
 Frequencies --    481.1049               517.7185               526.7288
 Red. masses --     10.9418                 3.8456                 6.3109
 Frc consts  --      1.4922                 0.6073                 1.0316
 IR Inten    --      4.6350                 3.1849                19.2887

                     28                     29                     30
                      A                      A                      A
 Frequencies --    548.5764               563.6404               613.0256
 Red. masses --      3.4225                 7.8462                 3.3534
 Frc consts  --      0.6068                 1.4686                 0.7425
 IR Inten    --     52.5795                 2.4285                22.6415

                     31                     32                     33
                      A                      A                      A
 Frequencies --    618.1563               640.2786               690.7197
 Red. masses --      3.0833                 3.9198                 2.1039
 Frc consts  --      0.6942                 0.9468                 0.5914
 IR Inten    --     17.5671                89.8330                96.8465

                     34                     35                     36
                      A                      A                      A
 Frequencies --    709.3477               725.8348               731.8459
 Red. masses --      5.6573                 9.5344                 6.4425
 Frc consts  --      1.6772                 2.9595                 2.0330
 IR Inten    --      8.7693                 2.6332                40.0044

                     37                     38                     39
                      A                      A                      A
 Frequencies --    745.3443               760.7732               773.8686
 Red. masses --      3.2236                 7.0305                 3.1682
 Frc consts  --      1.0551                 2.3974                 1.1179
 IR Inten    --      7.1451                41.9716                 8.2499

                     40                     41                     42
                      A                      A                      A
 Frequencies --    776.4637               784.8843               833.8445
 Red. masses --      2.0183                 4.0257                 8.5264
 Frc consts  --      0.7169                 1.4612                 3.4929
 IR Inten    --     26.0128                 2.5748                 4.6259

                     43                     44                     45
                      A                      A                      A
 Frequencies --    909.2790               926.5205               994.5913
 Red. masses --      5.7813                 9.5960                 6.0553
 Frc consts  --      2.8163                 4.8534                 3.5292
 IR Inten    --      3.8923               308.0625                 4.8230

                     46                     47                     48
                      A                      A                      A
 Frequencies --   1019.0022              1026.2153              1044.2481
 Red. masses --      1.0547                 1.0512                 3.9367
 Frc consts  --      0.6452                 0.6523                 2.5292
 IR Inten    --     52.6030                81.0477               117.6849

                     49                     50                     51
                      A                      A                      A
 Frequencies --   1115.0292              1154.5822              1165.8551
 Red. masses --      1.8726                 2.6772                 1.5178
 Frc consts  --      1.3717                 2.1027                 1.2155
 IR Inten    --     57.5057                79.8019                14.8010

                     52                     53                     54
                      A                      A                      A
 Frequencies --   1200.8875              1213.5301              1219.2217
 Red. masses --      1.7782                 2.8051                 1.9787
 Frc consts  --      1.5109                 2.4339                 1.7330
 IR Inten    --    169.0771                86.7228                 5.6659

                     55                     56                     57
                      A                      A                      A
 Frequencies --   1226.8685              1258.7550              1275.7716
 Red. masses --      5.6370                 2.8642                 4.5996
 Frc consts  --      4.9991                 2.6738                 4.4107
 IR Inten    --    160.9827               284.3313                35.3210

                     58                     59                     60
                      A                      A                      A
 Frequencies --   1296.8930              1320.3450              1329.5157
 Red. masses --      4.4476                 5.3962                 9.5502
 Frc consts  --      4.4074                 5.5426                 9.9460
 IR Inten    --     34.8882                56.8923               105.1061

                     61                     62                     63
                      A                      A                      A
 Frequencies --   1343.4312              1363.8883              1402.2094
 Red. masses --      4.9128                 3.0208                 3.5991
 Frc consts  --      5.2241                 3.3108                 4.1694
 IR Inten    --     13.3647               146.4986                78.9747

                     64                     65                     66
                      A                      A                      A
 Frequencies --   1413.3643              1467.9844              1470.4651
 Red. masses --      2.8214                 3.8701                 3.9311
 Frc consts  --      3.3207                 4.9137                 5.0081
 IR Inten    --     73.8028               533.0723               313.7448

                     67                     68                     69
                      A                      A                      A
 Frequencies --   1510.7974              1534.4769              1587.7589
 Red. masses --      3.9221                 3.5260                 7.1214
 Frc consts  --      5.2746                 4.8916                10.5775
 IR Inten    --      8.1067               386.5903                27.9953

                     70                     71                     72
                      A                      A                      A
 Frequencies --   1605.5292              1643.1069              1680.6422
 Red. masses --      6.7474                 6.7546                 1.4424
 Frc consts  --     10.2476                10.7443                 2.4004
 IR Inten    --    425.7310                60.1379                69.7773

                     73                     74                     75
                      A                      A                      A
 Frequencies --   1688.8063              2594.7181              2663.7843
 Red. masses --      1.4918                 1.0862                 1.0839
 Frc consts  --      2.5068                 4.3085                 4.5314
 IR Inten    --     24.4788               874.7011               548.6351

                     76                     77                     78
                      A                      A                      A
 Frequencies --   3058.1672              3138.1297              3143.2779
 Red. masses --      1.0862                 1.0884                 1.0896
 Frc consts  --      5.9854                 6.3150                 6.3426
 IR Inten    --    135.4743                23.6023                93.3369

                     79                     80                     81
                      A                      A                      A
 Frequencies --   3743.6837              3770.7607              3820.6366
 Red. masses --      1.0655                 1.0646                 1.0653
 Frc consts  --      8.7980                 8.9190                 9.1619
 IR Inten    --   1409.5923               152.8624                 3.6345

 - Thermochemistry -
 -------------------
 Temperature   298.150 Kelvin.  Pressure   1.00000 Atm.
 Atom     1 has atomic number  8 and mass  15.99491

 Molecular mass:   288.02700 amu.
 Principal axes and moments of inertia in atomic units:
                           1         2         3
     Eigenvalues --  3565.579966917.15022**********
           X            0.97824   0.17981   0.10354
           Y           -0.14487   0.94913  -0.27959
           Z           -0.14854   0.25850   0.95452
 This molecule is an asymmetric top.
 Rotational symmetry number  1.
 Warning -- assumption of classical behavior for rotation
           may cause significant error
 Rotational temperatures (Kelvin)      0.02429     0.01252     0.00827
 Rotational constants (GHZ):           0.50616     0.26091     0.17231
 Zero-point vibrational energy     509546.0 (Joules/Mol)
                                  121.78442 (Kcal/Mol)
 Warning -- explicit consideration of  31 degrees of freedom as
           vibrations may cause significant error
 Vibrational temperatures:     51.09    88.18   125.98   145.76   159.61
          (Kelvin)            241.31   270.34   303.57   359.27   373.98
                              385.92   422.00   468.94   486.55   492.72
                              516.18   539.87   570.49   575.97   594.87
                              620.71   637.38   671.16   688.39   692.20
                              744.88   757.85   789.28   810.95   882.01
                              889.39   921.22   993.79  1020.59  1044.31
                             1052.96  1072.38  1094.58  1113.42  1117.16
                             1129.27  1199.72  1308.25  1333.06  1431.00
                             1466.12  1476.49  1502.44  1604.28  1661.19
                             1677.41  1727.81  1746.00  1754.19  1765.19
                             1811.07  1835.55  1865.94  1899.68  1912.88
                             1932.90  1962.33  2017.47  2033.52  2112.10
                             2115.67  2173.70  2207.77  2284.43  2310.00
                             2364.06  2418.07  2429.82  3733.22  3832.59
                             4400.02  4515.07  4522.48  5386.33  5425.28
                             5497.04

 Zero-point correction=                           0.194076 (Hartree/Particle)
 Thermal correction to Energy=                    0.211048
 Thermal correction to Enthalpy=                  0.211992
 Thermal correction to Gibbs Free Energy=         0.150174
 Sum of electronic and zero-point Energies=          -1065.007643
 Sum of electronic and thermal Energies=             -1064.990670
 Sum of electronic and thermal Enthalpies=           -1064.989726
 Sum of electronic and thermal Free Energies=        -1065.051545

                     E (Thermal)             CV                S
                      KCal/Mol        Cal/Mol-Kelvin    Cal/Mol-Kelvin
 Total                  132.435             67.784            130.109
 Electronic               0.000              0.000              0.000
 Translational            0.889              2.981             42.871
 Rotational               0.889              2.981             33.912
 Vibrational            130.657             61.822             53.325
 Vibration     1          0.594              1.982              5.495
 Vibration     2          0.597              1.973              4.415
 Vibration     3          0.601              1.958              3.714
 Vibration     4          0.604              1.948              3.429
 Vibration     5          0.607              1.940              3.253
 Vibration     6          0.624              1.882              2.461
 Vibration     7          0.633              1.856              2.248
 Vibration     8          0.643              1.824              2.035
 Vibration     9          0.662              1.763              1.733
 Vibration    10          0.668              1.746              1.662
 Vibration    11          0.673              1.732              1.608
 Vibration    12          0.688              1.686              1.455
 Vibration    13          0.710              1.624              1.280
 Vibration    14          0.718              1.599              1.221
 Vibration    15          0.722              1.591              1.201
 Vibration    16          0.734              1.557              1.127
 Vibration    17          0.746              1.523              1.058
 Vibration    18          0.763              1.478              0.976
 Vibration    19          0.766              1.469              0.961
 Vibration    20          0.777              1.441              0.914
 Vibration    21          0.792              1.402              0.854
 Vibration    22          0.803              1.376              0.817
 Vibration    23          0.824              1.324              0.747
 Vibration    24          0.835              1.298              0.714
 Vibration    25          0.837              1.292              0.707
 Vibration    26          0.873              1.211              0.615
 Vibration    27          0.882              1.191              0.595
 Vibration    28          0.904              1.143              0.547
 Vibration    29          0.919              1.110              0.517
 Vibration    30          0.972              1.004              0.428
 Vibration    31          0.978              0.994              0.419

                           ! Non-Optimized Parameters !
 Normal termination of Gaussian 16 at Fri Dec 22 16:35:27 2023.
