 Gaussian 16, Revision A.03,
 Gaussian 16:  ES64L-G16RevA.03 25-Dec-2016

 ----------------------------------------------------------------------
 #P UB3LYP/6-311++G(d,p) nosym opt freq SCRF=(PCM,Solvent=n,n-DiMethylF
 ormamide)
 ----------------------------------------------------------------------

 -------
 Reduced
 -------
 Symbolic Z-matrix:
 Charge = -2 Multiplicity = 1

 SCF Done:  E(UB3LYP) =  -692.796875440     A.U. after   18 cycles
 SCF Done:  E(UB3LYP) =  -692.797643780     A.U. after   15 cycles
 SCF Done:  E(UB3LYP) =  -692.797765002     A.U. after   13 cycles
 SCF Done:  E(UB3LYP) =  -692.797714794     A.U. after   16 cycles
 SCF Done:  E(UB3LYP) =  -692.798017086     A.U. after   13 cycles
 SCF Done:  E(UB3LYP) =  -692.798026750     A.U. after   12 cycles
 SCF Done:  E(UB3LYP) =  -692.798027474     A.U. after   12 cycles
 SCF Done:  E(UB3LYP) =  -692.798028449     A.U. after   10 cycles
 Optimization completed.
    -- Stationary point found.
 Normal termination of Gaussian 16 at Sun Feb 11 02:58:25 2024.

 ----------------------------------------------------------------------
 #P Geom=AllCheck Guess=TCheck SCRF=Check GenChk UB3LYP/6-311++G(d,p) F
 req
 ----------------------------------------------------------------------

 Structure from the checkpoint file:  "239-an.chk"
 -------
 Reduced
 -------
 Charge = -2 Multiplicity = 1

                          Input orientation:
 ---------------------------------------------------------------------
 Center     Atomic      Atomic             Coordinates (Angstroms)
 Number     Number       Type             X           Y           Z
 ---------------------------------------------------------------------
      1          6           0       -2.874674    1.309244   -0.747639
      2          6           0       -2.163811    0.078621   -0.149000
      3          6           0       -2.737633   -0.132106    1.272576
      4          6           0       -2.531701   -1.135833   -1.034897
      5          6           0       -0.625970    0.226272   -0.077492
      6          6           0       -0.005314    1.417813   -0.544086
      7          6           0        1.374626    1.688915   -0.544385
      8          8           0        1.890453    2.816584   -0.985925
      9          6           0        2.199047    0.622811   -0.018188
     10          6           0        3.611412    0.754159    0.032474
     11          6           0        4.424797   -0.244460    0.528637
     12          6           0        3.842528   -1.444854    1.007173
     13          6           0        2.471315   -1.602711    0.970097
     14          6           0        1.602305   -0.598680    0.466214
     15          6           0        0.164812   -0.833449    0.452246
     16          8           0       -0.317013   -1.964836    0.907765
     17          1           0       -2.557779    1.509767   -1.775336
     18          1           0       -3.954840    1.128477   -0.764274
     19          1           0       -2.700445    2.213849   -0.157562
     20          1           0       -2.259507   -0.991448    1.742307
     21          1           0       -3.821405   -0.299241    1.233698
     22          1           0       -2.558465    0.753404    1.892374
     23          1           0       -3.617887   -1.290602   -1.051300
     24          1           0       -2.048122   -2.035059   -0.653434
     25          1           0       -2.202399   -0.969962   -2.066619
     26          1           0       -0.631873    2.210430   -0.940550
     27          1           0        4.038675    1.679796   -0.338244
     28          1           0        5.502754   -0.114046    0.553698
     29          1           0        4.474244   -2.236477    1.399797
     30          1           0        2.011863   -2.516382    1.330783
 ---------------------------------------------------------------------

 SCF Done:  E(UB3LYP) =  -692.798028449     A.U. after    1 cycles

 Alpha  occ. eigenvalues --  -19.00893 -19.00413 -10.16179 -10.16137 -10.16093
 Alpha  occ. eigenvalues --  -10.14665 -10.14615 -10.14323 -10.14185 -10.13864
 Alpha  occ. eigenvalues --  -10.13320 -10.13275 -10.13082 -10.13074 -10.12395
 Alpha  occ. eigenvalues --  -10.11148  -0.91617  -0.91163  -0.82066  -0.79699
 Alpha  occ. eigenvalues --   -0.74991  -0.71818  -0.69356  -0.66498  -0.66046
 Alpha  occ. eigenvalues --   -0.63442  -0.58566  -0.57629  -0.53028  -0.50998
 Alpha  occ. eigenvalues --   -0.46828  -0.46007  -0.43454  -0.42396  -0.41622
 Alpha  occ. eigenvalues --   -0.41192  -0.39677  -0.38879  -0.37774  -0.37761
 Alpha  occ. eigenvalues --   -0.35889  -0.35508  -0.34879  -0.34497  -0.34122
 Alpha  occ. eigenvalues --   -0.32156  -0.31389  -0.30788  -0.30286  -0.29911
 Alpha  occ. eigenvalues --   -0.29752  -0.28848  -0.22460  -0.21487  -0.20527
 Alpha  occ. eigenvalues --   -0.18965  -0.18194  -0.10810
 Alpha virt. eigenvalues --   -0.00438  -0.00060   0.00744   0.01393   0.01588
 Alpha virt. eigenvalues --    0.02465   0.02519   0.02728   0.04070   0.04543
 Alpha virt. eigenvalues --    0.04639   0.04826   0.05402   0.06116   0.07084

  Beta  occ. eigenvalues --  -19.00893 -19.00413 -10.16179 -10.16137 -10.16093
  Beta  occ. eigenvalues --  -10.14665 -10.14615 -10.14323 -10.14185 -10.13864
  Beta  occ. eigenvalues --  -10.13320 -10.13275 -10.13082 -10.13074 -10.12395
  Beta  occ. eigenvalues --  -10.11148  -0.91617  -0.91163  -0.82066  -0.79699
  Beta  occ. eigenvalues --   -0.74991  -0.71818  -0.69356  -0.66498  -0.66046
  Beta  occ. eigenvalues --   -0.63442  -0.58566  -0.57629  -0.53028  -0.50998
  Beta  occ. eigenvalues --   -0.46828  -0.46007  -0.43454  -0.42396  -0.41622
  Beta  occ. eigenvalues --   -0.41192  -0.39677  -0.38879  -0.37774  -0.37761
  Beta  occ. eigenvalues --   -0.35889  -0.35508  -0.34879  -0.34497  -0.34122
  Beta  occ. eigenvalues --   -0.32156  -0.31389  -0.30788  -0.30286  -0.29911
  Beta  occ. eigenvalues --   -0.29752  -0.28848  -0.22460  -0.21487  -0.20527
  Beta  occ. eigenvalues --   -0.18965  -0.18194  -0.10810
  Beta virt. eigenvalues --   -0.00438  -0.00060   0.00744   0.01393   0.01588
  Beta virt. eigenvalues --    0.02465   0.02519   0.02728   0.04070   0.04543
  Beta virt. eigenvalues --    0.04639   0.04826   0.05402   0.06116   0.07084

 Mulliken charges and spin densities:
               1          2
     1  C   -0.523329  -0.000000
     2  C    0.786940   0.000000
     3  C   -0.680403   0.000000
     4  C   -0.684942   0.000000
     5  C    0.839280  -0.000000
     6  C   -0.361145   0.000000
     7  C   -0.669837   0.000000
     8  O   -0.742027  -0.000000
     9  C    0.571499   0.000000
    10  C   -0.178442  -0.000000
    11  C   -0.446210   0.000000
    12  C   -0.457067  -0.000000
    13  C    0.041187   0.000000
    14  C    0.291037  -0.000000
    15  C   -1.133106  -0.000000
    16  O   -0.651562   0.000000
    17  H    0.126571  -0.000000
    18  H    0.158791  -0.000000
    19  H    0.126098  -0.000000
    20  H    0.184366   0.000000
    21  H    0.130141  -0.000000
    22  H    0.116551  -0.000000
    23  H    0.129531  -0.000000
    24  H    0.184217   0.000000
    25  H    0.116898  -0.000000
    26  H    0.129733   0.000000
    27  H    0.140144  -0.000000
    28  H    0.155213  -0.000000
    29  H    0.154475  -0.000000
    30  H    0.145398   0.000000
 Sum of Mulliken charges =  -2.00000   0.00000

 Dipole moment (field-independent basis, Debye):
    X=             -9.4046    Y=             -4.0322    Z=              0.2195  Tot=             10.2349
 Quadrupole moment (field-independent basis, Debye-Ang):
   XX=           -136.0072   YY=           -153.6592   ZZ=           -116.7052
   XY=            -21.1317   XZ=              6.2800   YZ=             16.9235

  Exact polarizability: 399.817  -8.688 312.565  21.148 -56.483 210.078
 Approx polarizability: 427.958  -7.198 353.513  21.667 -68.548 228.346

                      1                      2                      3
                      A                      A                      A
 Frequencies --     46.2977                55.8999               129.7417
 Red. masses --      3.7744                 3.8065                 4.1802
 Frc consts  --      0.0048                 0.0070                 0.0415
 IR Inten    --     11.0963                 6.4809                 0.1076

                      4                      5                      6
                      A                      A                      A
 Frequencies --    156.2235               172.6748               204.1037
 Red. masses --      5.2068                 3.2920                 3.3262
 Frc consts  --      0.0749                 0.0578                 0.0816
 IR Inten    --     16.5461                10.4742                 0.3038

                      7                      8                      9
                      A                      A                      A
 Frequencies --    212.2659               256.0477               267.6109
 Red. masses --      1.1661                 1.4749                 2.5337
 Frc consts  --      0.0310                 0.0570                 0.1069
 IR Inten    --      1.0400                12.8179                 2.7106

                     10                     11                     12
                      A                      A                      A
 Frequencies --    282.7194               291.5977               322.3265
 Red. masses --      3.8125                 3.1461                 2.6395
 Frc consts  --      0.1795                 0.1576                 0.1616
 IR Inten    --      8.2697                 1.0581                 5.1846

                     13                     14                     15
                      A                      A                      A
 Frequencies --    332.7729               363.1699               385.0290
 Red. masses --      1.0667                10.7429                 2.7072
 Frc consts  --      0.0696                 0.8348                 0.2365
 IR Inten    --      0.0139                16.2936                 0.3944

                     16                     17                     18
                      A                      A                      A
 Frequencies --    405.7175               431.2358               445.4823
 Red. masses --      2.5950                 3.4092                 3.7822
 Frc consts  --      0.2517                 0.3735                 0.4422
 IR Inten    --      4.1276                 5.3257                 3.0891

                     19                     20                     21
                      A                      A                      A
 Frequencies --    476.2708               483.3339               537.9878
 Red. masses --      4.6795                 7.6237                 4.1332
 Frc consts  --      0.6254                 1.0493                 0.7048
 IR Inten    --      0.3103                 0.1145                 2.8883

                     22                     23                     24
                      A                      A                      A
 Frequencies --    551.6693               619.0389               640.6793
 Red. masses --      3.6865                 5.4285                 2.7617
 Frc consts  --      0.6610                 1.2257                 0.6679
 IR Inten    --      1.0933                24.2791                 6.4731

                     25                     26                     27
                      A                      A                      A
 Frequencies --    669.7264               709.9594               722.1217
 Red. masses --      5.9805                 2.9786                 6.0025
 Frc consts  --      1.5805                 0.8846                 1.8442
 IR Inten    --      1.9261                66.8472                54.3437

                     28                     29                     30
                      A                      A                      A
 Frequencies --    769.5821               790.1909               791.0877
 Red. masses --      1.7271                 3.8655                 3.2782
 Frc consts  --      0.6027                 1.4221                 1.2087
 IR Inten    --     86.1712                72.6083                 0.1727

                     31                     32                     33
                      A                      A                      A
 Frequencies --    834.4598               844.0730               858.9212
 Red. masses --      5.0182                 1.6777                 1.7397
 Frc consts  --      2.0588                 0.7042                 0.7562
 IR Inten    --     51.3682                32.8736                 0.0766

                     34                     35                     36
                      A                      A                      A
 Frequencies --    901.1468               921.1081               923.6918
 Red. masses --      3.3194                 1.7715                 1.7650
 Frc consts  --      1.5882                 0.8855                 0.8872
 IR Inten    --    110.4057                 0.1248                25.1708

                     37                     38                     39
                      A                      A                      A
 Frequencies --    948.9493               965.8871               980.4524
 Red. masses --      1.2056                 1.3518                 1.2666
 Frc consts  --      0.6396                 0.7430                 0.7174
 IR Inten    --      0.7950                 3.0319                 1.2185

                     40                     41                     42
                      A                      A                      A
 Frequencies --   1020.6246              1033.7295              1037.7809
 Red. masses --      2.2135                 1.4279                 1.3944
 Frc consts  --      1.3585                 0.8990                 0.8848
 IR Inten    --     91.2641                17.9610                 0.2769

                     43                     44                     45
                      A                      A                      A
 Frequencies --   1088.4268              1092.1367              1134.2244
 Red. masses --      3.1122                 2.7651                 1.6028
 Frc consts  --      2.1723                 1.9432                 1.2148
 IR Inten    --    194.5135                29.7770               127.0735

                     46                     47                     48
                      A                      A                      A
 Frequencies --   1160.0918              1204.2846              1209.8166
 Red. masses --      1.6171                 2.3298                 2.7215
 Frc consts  --      1.2823                 1.9908                 2.3469
 IR Inten    --     40.4218               392.7077                11.0863

                     49                     50                     51
                      A                      A                      A
 Frequencies --   1212.1556              1225.2297              1251.8971
 Red. masses --      2.4311                 2.2160                 2.3836
 Frc consts  --      2.1046                 1.9600                 2.2010
 IR Inten    --     18.3520               359.7037               189.3256

                     52                     53                     54
                      A                      A                      A
 Frequencies --   1274.3269              1318.2396              1347.1710
 Red. masses --      3.3198                 4.6864                 3.8383
 Frc consts  --      3.1763                 4.7982                 4.1042
 IR Inten    --     49.0014               256.2708              1410.5809

                     55                     56                     57
                      A                      A                      A
 Frequencies --   1357.7721              1364.3842              1376.3713
 Red. masses --      1.2228                 2.5731                 1.7255
 Frc consts  --      1.3282                 2.8221                 1.9259
 IR Inten    --     16.8615                68.2622               277.6259

                     58                     59                     60
                      A                      A                      A
 Frequencies --   1403.1907              1418.8314              1446.9773
 Red. masses --      1.3259                 2.7987                 2.5360
 Frc consts  --      1.5381                 3.3195                 3.1284
 IR Inten    --    111.8692                38.2685                31.4902

                     61                     62                     63
                      A                      A                      A
 Frequencies --   1462.8719              1479.1025              1484.3877
 Red. masses --      1.0486                 1.1382                 1.0534
 Frc consts  --      1.3221                 1.4671                 1.3676
 IR Inten    --      0.1229                 2.9616                 0.2556

                     64                     65                     66
                      A                      A                      A
 Frequencies --   1486.9332              1496.4983              1501.3281
 Red. masses --      1.0570                 1.0562                 3.1239
 Frc consts  --      1.3769                 1.3936                 4.1486
 IR Inten    --      0.7204                 7.9665                31.1232

                     67                     68                     69
                      A                      A                      A
 Frequencies --   1513.2787              1524.3602              1586.3551
 Red. masses --      1.0656                 4.3320                 6.8373
 Frc consts  --      1.4378                 5.9309                10.1376
 IR Inten    --      5.2899               223.6231                40.0657

                     70                     71                     72
                      A                      A                      A
 Frequencies --   1605.6063              2989.1146              2994.5586
 Red. masses --      5.4200                 1.0393                 1.0394
 Frc consts  --      8.2324                 5.4710                 5.4917
 IR Inten    --      2.3143                95.5961               157.0903

                     73                     74                     75
                      A                      A                      A
 Frequencies --   3010.6386              3044.3843              3047.5548
 Red. masses --      1.0357                 1.0994                 1.0984
 Frc consts  --      5.5310                 6.0037                 6.0108
 IR Inten    --    119.6170                60.7944                95.2291

                     76                     77                     78
                      A                      A                      A
 Frequencies --   3065.4565              3076.6671              3103.9709
 Red. masses --      1.1002                 1.1016                 1.0989
 Frc consts  --      6.0914                 6.1440                 6.2378
 IR Inten    --    142.4756                78.2077                 5.2231

                     79                     80                     81
                      A                      A                      A
 Frequencies --   3109.9559              3134.1574              3148.7274
 Red. masses --      1.0975                 1.0844                 1.0854
 Frc consts  --      6.2540                 6.2758                 6.3401
 IR Inten    --     18.8134                19.9370                81.0486

                     82                     83                     84
                      A                      A                      A
 Frequencies --   3149.7369              3166.4039              3171.2452
 Red. masses --      1.0889                 1.0913                 1.0936
 Frc consts  --      6.3650                 6.4464                 6.4800
 IR Inten    --     44.6835                50.8837                69.7226

 - Thermochemistry -
 -------------------
 Temperature   298.150 Kelvin.  Pressure   1.00000 Atm.
 Atom     1 has atomic number  6 and mass  12.00000

 Molecular mass:   214.09938 amu.
 Principal axes and moments of inertia in atomic units:
                           1         2         3
     Eigenvalues --  1856.343844595.540436052.61366
           X            0.99599   0.04778  -0.07563
           Y           -0.01393   0.91792   0.39652
           Z            0.08837  -0.39388   0.91490
 This molecule is an asymmetric top.
 Rotational symmetry number  1.
 Warning -- assumption of classical behavior for rotation
           may cause significant error
 Rotational temperatures (Kelvin)      0.04666     0.01885     0.01431
 Rotational constants (GHZ):           0.97220     0.39272     0.29818
 Zero-point vibrational energy     628232.1 (Joules/Mol)
                                  150.15108 (Kcal/Mol)
 Warning -- explicit consideration of  23 degrees of freedom as
           vibrations may cause significant error
 Vibrational temperatures:     66.61    80.43   186.67   224.77   248.44
          (Kelvin)            293.66   305.40   368.40   385.03   406.77
                              419.54   463.76   478.79   522.52   553.97
                              583.74   620.45   640.95   685.25   695.41
                              774.04   793.73   890.66   921.79   963.59
                             1021.47  1038.97  1107.26  1136.91  1138.20
                             1200.60  1214.43  1235.80  1296.55  1325.27
                             1328.99  1365.33  1389.70  1410.65  1468.45
                             1487.31  1493.14  1566.00  1571.34  1631.90
                             1669.11  1732.70  1740.66  1744.02  1762.83
                             1801.20  1833.47  1896.65  1938.28  1953.53
                             1963.04  1980.29  2018.88  2041.38  2081.88
                             2104.75  2128.10  2135.70  2139.37  2153.13
                             2160.08  2177.27  2193.21  2282.41  2310.11
                             4300.67  4308.50  4331.64  4380.19  4384.75
                             4410.51  4426.64  4465.92  4474.53  4509.35
                             4530.32  4531.77  4555.75  4562.71

 Zero-point correction=                           0.239281 (Hartree/Particle)
 Thermal correction to Energy=                    0.253515
 Thermal correction to Enthalpy=                  0.254459
 Thermal correction to Gibbs Free Energy=         0.199047
 Sum of electronic and zero-point Energies=           -692.558747
 Sum of electronic and thermal Energies=              -692.544513
 Sum of electronic and thermal Enthalpies=            -692.543569
 Sum of electronic and thermal Free Energies=         -692.598982

                     E (Thermal)             CV                S
                      KCal/Mol        Cal/Mol-Kelvin    Cal/Mol-Kelvin
 Total                  159.083             57.302            116.626
 Electronic               0.000              0.000              0.000
 Translational            0.889              2.981             41.987
 Rotational               0.889              2.981             32.313
 Vibrational            157.306             51.340             42.326
 Vibration     1          0.595              1.979              4.970
 Vibration     2          0.596              1.975              4.597
 Vibration     3          0.612              1.924              2.950
 Vibration     4          0.620              1.896              2.595
 Vibration     5          0.626              1.876              2.406
 Vibration     6          0.640              1.834              2.096
 Vibration     7          0.643              1.822              2.024
 Vibration     8          0.666              1.753              1.689
 Vibration     9          0.673              1.733              1.612
 Vibration    10          0.682              1.706              1.517
 Vibration    11          0.687              1.689              1.465
 Vibration    12          0.707              1.631              1.298
 Vibration    13          0.715              1.610              1.247
 Vibration    14          0.737              1.548              1.109
 Vibration    15          0.754              1.502              1.019
 Vibration    16          0.771              1.458              0.942
 Vibration    17          0.792              1.402              0.855
 Vibration    18          0.805              1.371              0.810
 Vibration    19          0.833              1.303              0.720
 Vibration    20          0.840              1.287              0.701
 Vibration    21          0.893              1.166              0.570
 Vibration    22          0.907              1.136              0.541
 Vibration    23          0.979              0.992              0.418

                           ! Non-Optimized Parameters !
 Normal termination of Gaussian 16 at Sun Feb 11 03:55:54 2024.
