 Gaussian 16, Revision A.03,
 Gaussian 16:  ES64L-G16RevA.03 25-Dec-2016

 --------------------------------------
 #P UB3LYP/6-311++G(d,p) nosym opt freq
 --------------------------------------

 -------
 Radical
 -------
 Symbolic Z-matrix:
 Charge = -1 Multiplicity = 2

 SCF Done:  E(UB3LYP) =  -696.209811772     A.U. after   22 cycles
 SCF Done:  E(UB3LYP) =  -696.227121232     A.U. after   17 cycles
 SCF Done:  E(UB3LYP) =  -696.227946446     A.U. after   16 cycles
 SCF Done:  E(UB3LYP) =  -696.228091048     A.U. after   16 cycles
 SCF Done:  E(UB3LYP) =  -696.228158386     A.U. after   15 cycles
 SCF Done:  E(UB3LYP) =  -696.228126810     A.U. after   14 cycles
 SCF Done:  E(UB3LYP) =  -696.228200321     A.U. after   14 cycles
 SCF Done:  E(UB3LYP) =  -696.228204716     A.U. after   12 cycles
 SCF Done:  E(UB3LYP) =  -696.228205272     A.U. after   10 cycles
 SCF Done:  E(UB3LYP) =  -696.228205394     A.U. after    9 cycles
 Optimization completed.
    -- Stationary point found.
 Normal termination of Gaussian 16 at Sun Dec 17 22:13:30 2023.

 ----------------------------------------------------------------------
 #P Geom=AllCheck Guess=TCheck SCRF=Check GenChk UB3LYP/6-311++G(d,p) F
 req
 ----------------------------------------------------------------------

 Structure from the checkpoint file:  "045-rad.chk"
 -------
 Radical
 -------
 Charge = -1 Multiplicity = 2

                          Input orientation:
 ---------------------------------------------------------------------
 Center     Atomic      Atomic             Coordinates (Angstroms)
 Number     Number       Type             X           Y           Z
 ---------------------------------------------------------------------
      1          6           0       -1.464701    2.138850   -0.490874
      2          6           0       -2.726692    1.419464   -0.437322
      3          6           0       -2.907928    0.139824    0.019604
      4          6           0       -1.730534   -0.584002    0.502171
      5          6           0       -0.477902    0.130760    0.448355
      6          6           0       -0.289507    1.416079   -0.009381
      7          8           0       -1.450171    3.322608   -0.939949
      8          8           0       -1.772807   -1.771438    0.948600
      9          6           0        1.145203    1.999361    0.019932
     10          6           0        1.278088    3.441957   -0.511720
     11          6           0        1.664703    2.000345    1.479246
     12          6           0        2.075476    1.108086   -0.840094
     13          6           0       -4.284869   -0.545218    0.040356
     14          6           0       -5.402914    0.364286   -0.503076
     15          6           0       -4.652070   -0.932466    1.493604
     16          6           0       -4.244607   -1.822271   -0.833777
     17          1           0       -3.559720    2.006227   -0.807198
     18          1           0        0.361323   -0.451871    0.817714
     19          1           0        0.956152    3.524575   -1.549474
     20          1           0        2.332782    3.741786   -0.441083
     21          1           0        0.672077    4.144057    0.060214
     22          1           0        1.031059    2.632014    2.108793
     23          1           0        2.687915    2.394236    1.521002
     24          1           0        1.668024    0.996980    1.911181
     25          1           0        3.102219    1.494300   -0.818854
     26          1           0        2.092799    0.075158   -0.485081
     27          1           0        1.737578    1.097216   -1.880547
     28          1           0       -5.222479    0.654541   -1.542282
     29          1           0       -5.508270    1.278037    0.089125
     30          1           0       -6.357812   -0.171765   -0.465482
     31          1           0       -4.719166   -0.037896    2.121727
     32          1           0       -3.894590   -1.595686    1.910905
     33          1           0       -5.625841   -1.438356    1.518171
     34          1           0       -4.018997   -1.565729   -1.874245
     35          1           0       -5.218039   -2.328966   -0.812424
     36          1           0       -3.478212   -2.505932   -0.469058
 ---------------------------------------------------------------------

 SCF Done:  E(UB3LYP) =  -696.228205394     A.U. after    1 cycles

 Alpha  occ. eigenvalues --  -18.93324 -18.93224 -10.08168 -10.08015 -10.07211
 Alpha  occ. eigenvalues --  -10.06877 -10.04778 -10.04778 -10.04735 -10.03920
 Alpha  occ. eigenvalues --  -10.03812 -10.03612 -10.03612 -10.03249 -10.02474
 Alpha  occ. eigenvalues --  -10.02416  -0.85625  -0.85350  -0.71325  -0.70498
 Alpha  occ. eigenvalues --   -0.66329  -0.59962  -0.57510  -0.57251  -0.56515
 Alpha  occ. eigenvalues --   -0.56421  -0.54086  -0.48760  -0.44588  -0.42997
 Alpha  occ. eigenvalues --   -0.39310  -0.35089  -0.34432  -0.34400  -0.32314
 Alpha  occ. eigenvalues --   -0.32137  -0.31811  -0.30693  -0.29574  -0.28811
 Alpha  occ. eigenvalues --   -0.28408  -0.28101  -0.27140  -0.25822  -0.25676
 Alpha  occ. eigenvalues --   -0.25487  -0.25113  -0.24570  -0.22808  -0.22627
 Alpha  occ. eigenvalues --   -0.22035  -0.21841  -0.21388  -0.21268  -0.20427
 Alpha  occ. eigenvalues --   -0.20242  -0.13680  -0.11508  -0.09723  -0.09227
 Alpha  occ. eigenvalues --   -0.02153
 Alpha virt. eigenvalues --    0.07984   0.08176   0.10178   0.10356   0.10596
 Alpha virt. eigenvalues --    0.10659   0.10936   0.11929   0.12011   0.12658
 Alpha virt. eigenvalues --    0.13160   0.13387   0.13833   0.13879   0.14152

  Beta  occ. eigenvalues --  -18.92617 -18.92474 -10.08062 -10.07887 -10.07221
  Beta  occ. eigenvalues --  -10.06883 -10.04770 -10.04770 -10.04736 -10.03792
  Beta  occ. eigenvalues --  -10.03725 -10.03608 -10.03607 -10.03249 -10.02360
  Beta  occ. eigenvalues --  -10.02301  -0.84380  -0.84064  -0.71071  -0.70429
  Beta  occ. eigenvalues --   -0.65924  -0.59733  -0.57491  -0.57216  -0.56498
  Beta  occ. eigenvalues --   -0.56394  -0.53105  -0.48508  -0.44241  -0.42876
  Beta  occ. eigenvalues --   -0.39096  -0.34967  -0.34347  -0.34163  -0.32246
  Beta  occ. eigenvalues --   -0.32070  -0.31744  -0.30610  -0.29358  -0.28543
  Beta  occ. eigenvalues --   -0.28106  -0.27872  -0.27053  -0.25692  -0.25174
  Beta  occ. eigenvalues --   -0.25005  -0.24929  -0.23643  -0.22537  -0.21953
  Beta  occ. eigenvalues --   -0.21771  -0.21314  -0.21201  -0.20312  -0.20069
  Beta  occ. eigenvalues --   -0.19677  -0.10828  -0.10151  -0.09063  -0.08579
  Beta virt. eigenvalues --    0.05128   0.07985   0.08177   0.10208   0.10359
  Beta virt. eigenvalues --    0.10597   0.10670   0.10943   0.11930   0.12599
  Beta virt. eigenvalues --    0.12666   0.13390   0.13492   0.13854   0.13891

 Mulliken charges and spin densities:
               1          2
     1  C   -1.141336   0.058108
     2  C   -0.411486   0.064094
     3  C    1.112047   0.095496
     4  C   -1.081544   0.064657
     5  C   -0.462393   0.075742
     6  C    1.332408   0.129374
     7  O   -0.371002   0.270089
     8  O   -0.369567   0.256205
     9  C    0.532958   0.002398
    10  C   -0.406205   0.008053
    11  C   -0.645991  -0.001931
    12  C   -0.644965  -0.002027
    13  C    0.716893  -0.017323
    14  C   -0.553691  -0.002279
    15  C   -0.694131   0.013181
    16  C   -0.693876   0.013164
    17  H    0.176234  -0.009420
    18  H    0.154338  -0.010517
    19  H    0.164852  -0.001112
    20  H    0.096062  -0.000899
    21  H    0.165227  -0.001100
    22  H    0.138861   0.001649
    23  H    0.124178  -0.000672
    24  H    0.129067  -0.001433
    25  H    0.124319  -0.000681
    26  H    0.128563  -0.001425
    27  H    0.138659   0.001655
    28  H    0.121362  -0.000473
    29  H    0.121337  -0.000472
    30  H    0.143814  -0.000012
    31  H    0.114422   0.001254
    32  H    0.201005  -0.002524
    33  H    0.112083   0.000226
    34  H    0.114445   0.001256
    35  H    0.112107   0.000219
    36  H    0.200949  -0.002520
 Sum of Mulliken charges =  -1.00000   1.00000

 Dipole moment (field-independent basis, Debye):
    X=              7.7518    Y=             -3.6600    Z=             -0.0427  Tot=              8.5725
 Quadrupole moment (field-independent basis, Debye-Ang):
   XX=           -131.1115   YY=           -141.3059   ZZ=           -111.3239
   XY=             -0.3523   XZ=              0.4732   YZ=             10.8096

  Exact polarizability: 228.090  33.329 216.154   2.395 -22.568 150.794
 Approx polarizability: 282.886  20.183 368.720   4.893 -56.699 233.472

 ******    1 imaginary frequencies (negative Signs) ******

                      1                      2                      3
                      A                      A                      A
 Frequencies --    -26.6803                42.9814                66.5929
 Red. masses --      3.2700                 4.2115                 3.3678
 Frc consts  --      0.0014                 0.0046                 0.0088
 IR Inten    --      0.1786                 4.6841                 0.0003

                      4                      5                      6
                      A                      A                      A
 Frequencies --    138.6076               153.4825               157.7390
 Red. masses --      3.9485                 4.2788                 3.5601
 Frc consts  --      0.0447                 0.0594                 0.0522
 IR Inten    --      2.1696                 3.8285                 3.0660

                      7                      8                      9
                      A                      A                      A
 Frequencies --    227.8860               233.1587               235.1129
 Red. masses --      1.0825                 3.4958                 1.0912
 Frc consts  --      0.0331                 0.1120                 0.0355
 IR Inten    --      0.1275                 0.2653                 0.0852

                     10                     11                     12
                      A                      A                      A
 Frequencies --    246.6255               271.2097               273.0487
 Red. masses --      2.9258                 1.2978                 1.1112
 Frc consts  --      0.1049                 0.0562                 0.0488
 IR Inten    --      0.6247                 0.1279                 0.7641

                     13                     14                     15
                      A                      A                      A
 Frequencies --    284.8374               285.8114               297.0667
 Red. masses --      2.4368                 3.1583                 1.4955
 Frc consts  --      0.1165                 0.1520                 0.0778
 IR Inten    --      1.0452                 0.4010                 0.0068

                     16                     17                     18
                      A                      A                      A
 Frequencies --    321.6602               321.8921               327.7531
 Red. masses --      2.5994                 1.0494                 1.6136
 Frc consts  --      0.1585                 0.0641                 0.1021
 IR Inten    --      2.6786                 0.0665                 0.0587

                     19                     20                     21
                      A                      A                      A
 Frequencies --    357.4587               379.2001               390.7051
 Red. masses --      3.9879                 2.3514                 2.3261
 Frc consts  --      0.3002                 0.1992                 0.2092
 IR Inten    --     12.3595                 0.0828                 0.0277

                     22                     23                     24
                      A                      A                      A
 Frequencies --    409.8491               416.5877               462.2983
 Red. masses --      2.6538                 2.7863                 3.3377
 Frc consts  --      0.2626                 0.2849                 0.4203
 IR Inten    --      1.6269                 2.5160                 5.4972

                     25                     26                     27
                      A                      A                      A
 Frequencies --    476.9715               493.0208               524.3405
 Red. masses --      5.6571                 2.8788                 5.2201
 Frc consts  --      0.7583                 0.4123                 0.8456
 IR Inten    --      0.0209                 1.7816                 0.0423

                     28                     29                     30
                      A                      A                      A
 Frequencies --    527.1427               622.5563               645.9318
 Red. masses --      3.4370                 3.7007                 4.7926
 Frc consts  --      0.5627                 0.8451                 1.1781
 IR Inten    --      0.0053                 4.1921                 0.0339

                     31                     32                     33
                      A                      A                      A
 Frequencies --    700.7952               729.2140               759.3783
 Red. masses --      5.9515                 6.9365                 2.9320
 Frc consts  --      1.7221                 2.1732                 0.9962
 IR Inten    --      0.0458                 2.7486                 0.1411

                     34                     35                     36
                      A                      A                      A
 Frequencies --    809.9888               817.8887               860.0504
 Red. masses --      3.1345                 3.6206                 3.0534
 Frc consts  --      1.2117                 1.4270                 1.3307
 IR Inten    --      0.1910                13.2281                30.1566

                     37                     38                     39
                      A                      A                      A
 Frequencies --    880.9528               905.5474               919.0484
 Red. masses --      1.6900                 1.5810                 1.7452
 Frc consts  --      0.7728                 0.7638                 0.8685
 IR Inten    --      0.0007                25.2513                 1.2067

                     40                     41                     42
                      A                      A                      A
 Frequencies --    925.0083               931.7860               933.0670
 Red. masses --      1.7386                 1.7620                 1.7319
 Frc consts  --      0.8765                 0.9013                 0.8884
 IR Inten    --      1.4848                 0.2433                 3.1784

                     43                     44                     45
                      A                      A                      A
 Frequencies --    957.8274               958.4448              1007.7665
 Red. masses --      1.2046                 1.2000                 3.6128
 Frc consts  --      0.6511                 0.6495                 2.1618
 IR Inten    --      0.2674                 0.1909                 1.5581

                     46                     47                     48
                      A                      A                      A
 Frequencies --   1037.9200              1044.7275              1047.1280
 Red. masses --      1.5090                 1.3969                 1.3808
 Frc consts  --      0.9578                 0.8983                 0.8920
 IR Inten    --     19.1180                 0.3659                 0.2183

                     49                     50                     51
                      A                      A                      A
 Frequencies --   1048.7488              1097.9651              1175.2162
 Red. masses --      1.3823                 2.2115                 6.0501
 Frc consts  --      0.8957                 1.5708                 4.9232
 IR Inten    --      0.0907                64.2369                 4.0337

                     52                     53                     54
                      A                      A                      A
 Frequencies --   1211.8386              1214.5738              1215.1225
 Red. masses --      2.6033                 2.4250                 2.6690
 Frc consts  --      2.2525                 2.1077                 2.3218
 IR Inten    --      6.6462                 9.5627                 5.0350

                     55                     56                     57
                      A                      A                      A
 Frequencies --   1224.2102              1257.5637              1264.8102
 Red. masses --      2.4845                 2.1565                 2.1439
 Frc consts  --      2.1938                 2.0094                 2.0207
 IR Inten    --     12.1432                 0.8702                24.6297

                     58                     59                     60
                      A                      A                      A
 Frequencies --   1271.9733              1320.4225              1373.4083
 Red. masses --      1.8798                 2.4567                 1.2122
 Frc consts  --      1.7919                 2.5236                 1.3472
 IR Inten    --     10.5683                15.0518                11.8725

                     61                     62                     63
                      A                      A                      A
 Frequencies --   1379.9598              1384.9617              1394.0147
 Red. masses --      1.2538                 1.2097                 1.2208
 Frc consts  --      1.4068                 1.3671                 1.3978
 IR Inten    --     24.8090                 8.6851                 8.4764

                     64                     65                     66
                      A                      A                      A
 Frequencies --   1408.6417              1414.6949              1426.3342
 Red. masses --      1.3081                 2.7880                 1.5055
 Frc consts  --      1.5293                 3.2876                 1.8045
 IR Inten    --     28.7460                19.4535                 9.7954

                     67                     68                     69
                      A                      A                      A
 Frequencies --   1470.6434              1470.7058              1471.0093
 Red. masses --      1.0515                 1.0468                 1.2880
 Frc consts  --      1.3399                 1.3340                 1.6421
 IR Inten    --      0.1947                 0.2504                 2.3168

                     70                     71                     72
                      A                      A                      A
 Frequencies --   1476.9069              1485.4029              1493.2487
 Red. masses --      2.1899                 1.0460                 1.2968
 Frc consts  --      2.8143                 1.3597                 1.7037
 IR Inten    --    147.7516                 0.0041                26.2800

                     73                     74                     75
                      A                      A                      A
 Frequencies --   1494.4133              1494.6528              1495.4137
 Red. masses --      1.0467                 1.0534                 1.3977
 Frc consts  --      1.3773                 1.3866                 1.8415
 IR Inten    --      1.3886                 3.8992                51.1907

                     76                     77                     78
                      A                      A                      A
 Frequencies --   1499.1380              1499.9255              1510.4974
 Red. masses --      1.2807                 1.6371                 1.0518
 Frc consts  --      1.6959                 2.1700                 1.4139
 IR Inten    --     23.6363                92.3452                 3.4980

                     79                     80                     81
                      A                      A                      A
 Frequencies --   1514.7552              1527.2819              1530.9848
 Red. masses --      1.2438                 2.5338                 1.2443
 Frc consts  --      1.6815                 3.4823                 1.7184
 IR Inten    --     37.9301               122.7540                51.0204

                     82                     83                     84
                      A                      A                      A
 Frequencies --   1631.8188              2985.3394              2990.5103
 Red. masses --      6.8037                 1.0545                 1.0429
 Frc consts  --     10.6743                 5.5370                 5.4954
 IR Inten    --      0.7629                64.3134                47.7863

                     85                     86                     87
                      A                      A                      A
 Frequencies --   2995.6401              2996.5825              3005.4741
 Red. masses --      1.0419                 1.0418                 1.0425
 Frc consts  --      5.5089                 5.5119                 5.5480
 IR Inten    --    114.0709                36.6823               201.6607

                     88                     89                     90
                      A                      A                      A
 Frequencies --   3010.4015              3051.1458              3053.5207
 Red. masses --      1.0366                 1.0961                 1.0962
 Frc consts  --      5.5348                 6.0118                 6.0217
 IR Inten    --     83.0348                33.6698                25.6309

                     91                     92                     93
                      A                      A                      A
 Frequencies --   3061.6761              3065.6049              3065.9657
 Red. masses --      1.0930                 1.0940                 1.0981
 Frc consts  --      6.0363                 6.0577                 6.0817
 IR Inten    --     22.8457               130.3089                37.5595

                     94                     95                     96
                      A                      A                      A
 Frequencies --   3080.4169              3089.6641              3092.5276
 Red. masses --      1.1015                 1.1012                 1.0992
 Frc consts  --      6.1581                 6.1936                 6.1936
 IR Inten    --     43.5030                 6.8535                37.5806

                     97                     98                     99
                      A                      A                      A
 Frequencies --   3095.3839              3117.9592              3120.5374
 Red. masses --      1.0792                 1.0975                 1.0968
 Frc consts  --      6.0922                 6.2864                 6.2928
 IR Inten    --     28.5649                 0.0078                11.3991

                    100                    101                    102
                      A                      A                      A
 Frequencies --   3127.1817              3142.4305              3173.0924
 Red. masses --      1.1019                 1.0873                 1.0876
 Frc consts  --      6.3489                 6.3260                 6.4517
 IR Inten    --     27.2042                30.4549                13.7060

 - Thermochemistry -
 -------------------
 Temperature   298.150 Kelvin.  Pressure   1.00000 Atm.
 Atom     1 has atomic number  6 and mass  12.00000

 Molecular mass:   220.14633 amu.
 Principal axes and moments of inertia in atomic units:
                           1         2         3
     Eigenvalues --  1718.015775800.259846721.18691
           X            0.87220  -0.46173  -0.16148
           Y            0.48800   0.79872   0.35200
           Z           -0.03355  -0.38582   0.92196
 This molecule is an asymmetric top.
 Rotational symmetry number  1.
 Warning -- assumption of classical behavior for rotation
           may cause significant error
 Rotational temperatures (Kelvin)      0.05042     0.01493     0.01289
 Rotational constants (GHZ):           1.05048     0.31115     0.26852
    1 imaginary frequencies ignored.
 Zero-point vibrational energy     803234.9 (Joules/Mol)
                                  191.97774 (Kcal/Mol)
 Warning -- explicit consideration of  27 degrees of freedom as
           vibrations may cause significant error
 Vibrational temperatures:     61.84    95.81   199.43   220.83   226.95
          (Kelvin)            327.88   335.46   338.27   354.84   390.21
                              392.86   409.82   411.22   427.41   462.80
                              463.13   471.56   514.30   545.58   562.14
                              589.68   599.38   665.14   686.26   709.35
                              754.41   758.44   895.72   929.35  1008.29
                             1049.18  1092.58  1165.39  1176.76  1237.42
                             1267.49  1302.88  1322.31  1330.88  1340.63
                             1342.48  1378.10  1378.99  1449.95  1493.34
                             1503.13  1506.58  1508.92  1579.73  1690.87
                             1743.57  1747.50  1748.29  1761.37  1809.35
                             1819.78  1830.09  1899.79  1976.03  1985.45
                             1992.65  2005.68  2026.72  2035.43  2052.18
                             2115.93  2116.02  2116.45  2124.94  2137.16
                             2148.45  2150.13  2150.47  2151.57  2156.93
                             2158.06  2173.27  2179.39  2197.42  2202.75
                             2347.82  4295.24  4302.68  4310.06  4311.41
                             4324.21  4331.30  4389.92  4393.34  4405.07
                             4410.72  4411.24  4432.03  4445.34  4449.46
                             4453.57  4486.05  4489.76  4499.32  4521.26
                             4565.37

 Zero-point correction=                           0.305936 (Hartree/Particle)
 Thermal correction to Energy=                    0.322135
 Thermal correction to Enthalpy=                  0.323080
 Thermal correction to Gibbs Free Energy=         0.263753
 Sum of electronic and zero-point Energies=           -695.922269
 Sum of electronic and thermal Energies=              -695.906070
 Sum of electronic and thermal Enthalpies=            -695.905126
 Sum of electronic and thermal Free Energies=         -695.964452

                     E (Thermal)             CV                S
                      KCal/Mol        Cal/Mol-Kelvin    Cal/Mol-Kelvin
 Total                  202.143             65.244            124.863
 Electronic               0.000              0.000              1.377
 Translational            0.889              2.981             42.070
 Rotational               0.889              2.981             32.571
 Vibrational            200.366             59.283             48.845
 Vibration     1          0.595              1.980              5.117
 Vibration     2          0.598              1.970              4.252
 Vibration     3          0.614              1.915              2.823
 Vibration     4          0.619              1.899              2.629
 Vibration     5          0.621              1.894              2.577
 Vibration     6          0.651              1.798              1.896
 Vibration     7          0.654              1.790              1.854
 Vibration     8          0.655              1.787              1.840
 Vibration     9          0.661              1.768              1.755
 Vibration    10          0.675              1.726              1.588
 Vibration    11          0.676              1.723              1.577
 Vibration    12          0.683              1.702              1.504
 Vibration    13          0.684              1.700              1.499
 Vibration    14          0.691              1.679              1.433
 Vibration    15          0.707              1.632              1.302
 Vibration    16          0.707              1.632              1.300
 Vibration    17          0.711              1.620              1.271
 Vibration    18          0.733              1.560              1.133
 Vibration    19          0.749              1.514              1.042
 Vibration    20          0.758              1.490              0.997
 Vibration    21          0.774              1.449              0.927
 Vibration    22          0.780              1.434              0.904
 Vibration    23          0.820              1.334              0.759
 Vibration    24          0.834              1.301              0.718
 Vibration    25          0.849              1.266              0.676
 Vibration    26          0.879              1.196              0.600
 Vibration    27          0.882              1.190              0.594

                           ! Non-Optimized Parameters !
 Normal termination of Gaussian 16 at Sun Dec 17 23:36:59 2023.
