 Gaussian 16, Revision A.03,
 Gaussian 16:  ES64L-G16RevA.03 25-Dec-2016

 --------------------------------------
 #P UB3LYP/6-311++G(d,p) nosym opt freq
 --------------------------------------

 -------
 Reduced
 -------
 Symbolic Z-matrix:
 Charge = -2 Multiplicity = 1

 SCF Done:  E(UB3LYP) =  -809.293360108     A.U. after   53 cycles
 Optimization completed.
    -- Stationary point found.
 Normal termination of Gaussian 16 at Sat Jan  6 06:46:14 2024.

 ----------------------------------------------------------------------
 #P Geom=AllCheck Guess=TCheck SCRF=Check GenChk UB3LYP/6-311++G(d,p) F
 req
 ----------------------------------------------------------------------

 Structure from the checkpoint file:  "036-an.chk"
 -------
 Reduced
 -------
 Charge = -2 Multiplicity = 1

                          Input orientation:
 ---------------------------------------------------------------------
 Center     Atomic      Atomic             Coordinates (Angstroms)
 Number     Number       Type             X           Y           Z
 ---------------------------------------------------------------------
      1          6           0       -3.436388    1.760373    0.526985
      2          6           0       -4.006398    1.490906   -0.764299
      3          6           0       -3.593469    0.445235   -1.567462
      4          6           0       -2.552778   -0.464371   -1.182575
      5          6           0       -1.963812   -0.207660    0.117365
      6          6           0       -2.376470    0.852986    0.929978
      7          8           0       -3.844696    2.731365    1.265716
      8          8           0       -2.172779   -1.439999   -1.933878
      9          6           0       -1.749318    1.108607    2.281305
     10          6           0       -0.914899   -1.206625    0.581322
     11          6           0        0.527716   -0.889508    0.220808
     12          6           0        0.912707   -0.720626   -1.117017
     13          6           0        1.528213   -0.797395    1.195052
     14          6           0        2.860834   -0.552213    0.858050
     15          6           0        2.244799   -0.479702   -1.449457
     16          6           0        3.248957   -0.390877   -0.475349
     17          6           0        4.698566   -0.128957   -0.866637
     18          6           0        5.213315    1.221709   -0.333415
     19          6           0        5.637107   -1.275311   -0.445037
     20          1           0       -4.798646    2.162158   -1.092767
     21          1           0       -4.054831    0.274413   -2.538986
     22          1           0       -0.657706    1.202805    2.223536
     23          1           0       -1.961412    0.302922    3.001250
     24          1           0       -2.166602    2.035115    2.681801
     25          1           0       -1.165757   -2.159472    0.098736
     26          1           0       -0.973596   -1.348402    1.666098
     27          1           0        0.145806   -0.803066   -1.881330
     28          1           0        1.258978   -0.918153    2.241254
     29          1           0        3.602756   -0.487769    1.650186
     30          1           0        2.515811   -0.359011   -2.496137
     31          1           0        4.723899   -0.075432   -1.962052
     32          1           0        4.568200    2.043310   -0.659775
     33          1           0        6.232471    1.421967   -0.685251
     34          1           0        5.235343    1.231956    0.761305
     35          1           0        5.292802   -2.232801   -0.849455
     36          1           0        5.682515   -1.372525    0.645035
     37          1           0        6.659011   -1.102282   -0.800442
 ---------------------------------------------------------------------

 SCF Done:  E(UB3LYP) =  -809.293360108     A.U. after    9 cycles

 Alpha  occ. eigenvalues --  -18.81112 -18.80809 -10.00875  -9.99159  -9.99113
 Alpha  occ. eigenvalues --   -9.99063  -9.98476  -9.98155  -9.98146  -9.98019
 Alpha  occ. eigenvalues --   -9.96812  -9.96368  -9.96230  -9.95329  -9.93677
 Alpha  occ. eigenvalues --   -9.92651  -9.92551  -9.91747  -9.91687  -0.72468
 Alpha  occ. eigenvalues --   -0.72007  -0.67207  -0.62662  -0.58578  -0.55873
 Alpha  occ. eigenvalues --   -0.55255  -0.52443  -0.51694  -0.49454  -0.44652
 Alpha  occ. eigenvalues --   -0.42195  -0.41834  -0.40889  -0.37611  -0.33339
 Alpha  occ. eigenvalues --   -0.31342  -0.30590  -0.28705  -0.26459  -0.25750
 Alpha  occ. eigenvalues --   -0.24722  -0.24511  -0.23683  -0.22490  -0.21965
 Alpha  occ. eigenvalues --   -0.21527  -0.20047  -0.19208  -0.18433  -0.18111
 Alpha  occ. eigenvalues --   -0.17768  -0.16808  -0.15945  -0.15403  -0.15163
 Alpha  occ. eigenvalues --   -0.14369  -0.14306  -0.13654  -0.12955  -0.10637
 Alpha  occ. eigenvalues --   -0.10046  -0.09505  -0.06322  -0.04431  -0.01030
 Alpha  occ. eigenvalues --    0.00249   0.01557   0.02124   0.10761
 Alpha virt. eigenvalues --    0.11769   0.14191   0.14415   0.15393   0.16463
 Alpha virt. eigenvalues --    0.17024   0.17327   0.17398   0.17529   0.18457
 Alpha virt. eigenvalues --    0.18752   0.18954   0.19082   0.19594   0.19787

  Beta  occ. eigenvalues --  -18.81112 -18.80809 -10.00875  -9.99159  -9.99113
  Beta  occ. eigenvalues --   -9.99063  -9.98476  -9.98155  -9.98146  -9.98019
  Beta  occ. eigenvalues --   -9.96812  -9.96368  -9.96230  -9.95329  -9.93677
  Beta  occ. eigenvalues --   -9.92651  -9.92551  -9.91747  -9.91687  -0.72468
  Beta  occ. eigenvalues --   -0.72007  -0.67207  -0.62662  -0.58578  -0.55873
  Beta  occ. eigenvalues --   -0.55255  -0.52443  -0.51694  -0.49454  -0.44652
  Beta  occ. eigenvalues --   -0.42195  -0.41834  -0.40889  -0.37611  -0.33339
  Beta  occ. eigenvalues --   -0.31342  -0.30590  -0.28705  -0.26459  -0.25750
  Beta  occ. eigenvalues --   -0.24722  -0.24511  -0.23683  -0.22490  -0.21965
  Beta  occ. eigenvalues --   -0.21527  -0.20047  -0.19208  -0.18433  -0.18111
  Beta  occ. eigenvalues --   -0.17768  -0.16808  -0.15945  -0.15403  -0.15163
  Beta  occ. eigenvalues --   -0.14369  -0.14306  -0.13654  -0.12955  -0.10637
  Beta  occ. eigenvalues --   -0.10046  -0.09505  -0.06322  -0.04431  -0.01030
  Beta  occ. eigenvalues --    0.00249   0.01557   0.02124   0.10761
  Beta virt. eigenvalues --    0.11769   0.14191   0.14415   0.15393   0.16463
  Beta virt. eigenvalues --    0.17024   0.17327   0.17398   0.17529   0.18457
  Beta virt. eigenvalues --    0.18752   0.18954   0.19082   0.19594   0.19787

 Mulliken charges and spin densities:
               1          2
     1  C   -0.956291  -0.000000
     2  C    0.115281  -0.000000
     3  C   -0.102368   0.000000
     4  C   -0.677378   0.000000
     5  C    0.843934   0.000000
     6  C    0.473252  -0.000000
     7  O   -0.515548  -0.000000
     8  O   -0.485251  -0.000000
     9  C   -0.759990   0.000000
    10  C    0.348522  -0.000000
    11  C    1.351871  -0.000000
    12  C   -0.728471  -0.000000
    13  C   -0.051325   0.000000
    14  C   -0.665859  -0.000001
    15  C   -0.721691   0.000000
    16  C    2.947000   0.000001
    17  C   -4.128225  -0.000001
    18  C    0.918965  -0.000000
    19  C    1.273920   0.000000
    20  H    0.095698  -0.000000
    21  H    0.099892  -0.000000
    22  H    0.129904  -0.000000
    23  H    0.097008  -0.000000
    24  H    0.183067   0.000000
    25  H    0.190746   0.000000
    26  H    0.199477   0.000000
    27  H    0.185526   0.000000
    28  H   -0.009721   0.000000
    29  H    0.170477  -0.000000
    30  H    0.122793  -0.000000
    31  H   -0.083297   0.000000
    32  H    0.120243   0.000000
    33  H   -0.753091  -0.000000
    34  H   -0.131423  -0.000000
    35  H    0.070560   0.000000
    36  H   -0.222504  -0.000000
    37  H   -0.945703  -0.000000
 Sum of Mulliken charges =  -2.00000   0.00000

 Dipole moment (field-independent basis, Debye):
    X=             -0.1852    Y=             -4.0607    Z=              2.7454  Tot=              4.9052
 Quadrupole moment (field-independent basis, Debye-Ang):
   XX=           -339.5449   YY=           -171.3673   ZZ=           -152.9516
   XY=             26.8422   XZ=             12.2520   YZ=            -18.4666

  Exact polarizability:2544.757-127.6831005.430-110.203 -42.062 830.081
 Approx polarizability:****************1079.539********  84.085 896.615

                      1                      2                      3
                      A                      A                      A
 Frequencies --     22.2064                30.7416                46.2894
 Red. masses --      3.0362                 5.5838                 3.5510
 Frc consts  --      0.0009                 0.0031                 0.0045
 IR Inten    --      0.4381                 0.6108                 2.6066

                      4                      5                      6
                      A                      A                      A
 Frequencies --     53.6472                84.9704               115.5537
 Red. masses --      4.2049                 3.6774                 1.3065
 Frc consts  --      0.0071                 0.0156                 0.0103
 IR Inten    --      1.0714                 1.4613                 0.4563

                      7                      8                      9
                      A                      A                      A
 Frequencies --    124.5877               129.0398               160.0436
 Red. masses --      4.8223                 3.0179                 3.8531
 Frc consts  --      0.0441                 0.0296                 0.0581
 IR Inten    --      3.5331                 4.6516                 7.3660

                     10                     11                     12
                      A                      A                      A
 Frequencies --    206.2642               234.9688               244.3027
 Red. masses --      3.4522                 1.0927                 3.5227
 Frc consts  --      0.0865                 0.0355                 0.1239
 IR Inten    --      1.6016                 7.8052                 0.2655

                     13                     14                     15
                      A                      A                      A
 Frequencies --    261.7064               278.5043               311.2671
 Red. masses --      1.5069                 2.0267                 2.8447
 Frc consts  --      0.0608                 0.0926                 0.1624
 IR Inten    --      8.5395                14.8815                 5.3619

                     16                     17                     18
                      A                      A                      A
 Frequencies --    326.1175               346.3669               352.2618
 Red. masses --      3.1655                 5.6705                 3.0419
 Frc consts  --      0.1984                 0.4008                 0.2224
 IR Inten    --      9.0640                 5.0608                 7.3639

                     19                     20                     21
                      A                      A                      A
 Frequencies --    390.4113               401.5949               417.4108
 Red. masses --      2.5757                 6.1082                 2.9753
 Frc consts  --      0.2313                 0.5804                 0.3054
 IR Inten    --      6.2520                 4.8301                 1.9417

                     22                     23                     24
                      A                      A                      A
 Frequencies --    450.0554               465.5130               482.5277
 Red. masses --      3.2467                10.4574                 4.1815
 Frc consts  --      0.3875                 1.3352                 0.5736
 IR Inten    --      7.3457               998.3392                43.3182

                     25                     26                     27
                      A                      A                      A
 Frequencies --    516.8053               539.1744               574.0804
 Red. masses --      3.9913                 2.8242                 2.8735
 Frc consts  --      0.6281                 0.4837                 0.5580
 IR Inten    --      1.3316                 5.5331                43.3589

                     28                     29                     30
                      A                      A                      A
 Frequencies --    599.7753               614.3714               650.7111
 Red. masses --      3.2144                 2.8715                 6.6291
 Frc consts  --      0.6813                 0.6386                 1.6538
 IR Inten    --      2.7939                 3.3745                 2.0941

                     31                     32                     33
                      A                      A                      A
 Frequencies --    679.5234               703.3955               752.7017
 Red. masses --      3.7581                 3.2436                 4.0036
 Frc consts  --      1.0224                 0.9455                 1.3364
 IR Inten    --      3.7163                 6.3281                12.7307

                     34                     35                     36
                      A                      A                      A
 Frequencies --    764.5613               787.7573               809.5307
 Red. masses --      5.5510                 4.0455                 2.4431
 Frc consts  --      1.9118                 1.4791                 0.9433
 IR Inten    --     27.3915                12.0904                26.8774

                     37                     38                     39
                      A                      A                      A
 Frequencies --    821.4390               840.0870               845.8104
 Red. masses --      2.2515                 2.4425                 1.6906
 Frc consts  --      0.8951                 1.0156                 0.7126
 IR Inten    --      0.3577                14.5344                 4.6987

                     40                     41                     42
                      A                      A                      A
 Frequencies --    866.0418               893.1891               897.3462
 Red. masses --      1.7508                 2.4975                 1.3244
 Frc consts  --      0.7737                 1.1739                 0.6283
 IR Inten    --      0.5508                31.5157                 2.8775

                     43                     44                     45
                      A                      A                      A
 Frequencies --    926.6632               929.1200               953.8513
 Red. masses --      1.7012                 1.1878                 1.5461
 Frc consts  --      0.8607                 0.6042                 0.8288
 IR Inten    --      3.5680                32.1029                 9.4665

                     46                     47                     48
                      A                      A                      A
 Frequencies --    957.2702              1004.4153              1029.2601
 Red. masses --      1.4125                 1.3314                 3.0373
 Frc consts  --      0.7626                 0.7914                 1.8958
 IR Inten    --     43.9035                 2.0931                 6.6214

                     49                     50                     51
                      A                      A                      A
 Frequencies --   1037.0759              1040.7204              1066.4619
 Red. masses --      2.9715                 1.4734                 1.6340
 Frc consts  --      1.8830                 0.9403                 1.0949
 IR Inten    --      2.5556                 1.6408                33.3466

                     52                     53                     54
                      A                      A                      A
 Frequencies --   1072.3164              1119.6746              1120.7149
 Red. masses --      2.0432                 2.1361                 1.6678
 Frc consts  --      1.3842                 1.5778                 1.2342
 IR Inten    --     32.2663                26.5276               118.6704

                     55                     56                     57
                      A                      A                      A
 Frequencies --   1136.6988              1163.0591              1165.8254
 Red. masses --      1.5996                 2.2362                 2.1238
 Frc consts  --      1.2178                 1.7823                 1.7007
 IR Inten    --    571.3734                82.9836                63.7993

                     58                     59                     60
                      A                      A                      A
 Frequencies --   1193.7318              1201.4573              1208.3651
 Red. masses --      2.0971                 1.3153                 2.6035
 Frc consts  --      1.7607                 1.1186                 2.2398
 IR Inten    --     45.3000                31.2116                12.8736

                     61                     62                     63
                      A                      A                      A
 Frequencies --   1225.9796              1240.7614              1304.3143
 Red. masses --      2.1096                 1.7559                 2.4413
 Frc consts  --      1.8682                 1.5927                 2.4470
 IR Inten    --     17.3806                23.1332                21.2694

                     64                     65                     66
                      A                      A                      A
 Frequencies --   1309.2389              1334.3087              1344.6159
 Red. masses --      1.4496                 1.9663                 1.9807
 Frc consts  --      1.4640                 2.0626                 2.1099
 IR Inten    --     29.2938                84.2694                 7.3970

                     67                     68                     69
                      A                      A                      A
 Frequencies --   1344.9784              1365.5602              1370.2879
 Red. masses --      1.3143                 1.6397                 1.4757
 Frc consts  --      1.4008                 1.8015                 1.6326
 IR Inten    --     22.5568               709.0807                46.4058

                     70                     71                     72
                      A                      A                      A
 Frequencies --   1385.1481              1396.7023              1408.8420
 Red. masses --      1.2229                 3.9080                 1.2412
 Frc consts  --      1.3824                 4.4917                 1.4515
 IR Inten    --    434.0017              2726.6609                51.4527

                     73                     74                     75
                      A                      A                      A
 Frequencies --   1426.3084              1443.2492              1456.1876
 Red. masses --      5.4162                 2.3047                 1.1957
 Frc consts  --      6.4919                 2.8285                 1.4939
 IR Inten    --    353.9470                19.2128                39.4029

                     76                     77                     78
                      A                      A                      A
 Frequencies --   1463.8796              1477.8068              1483.1261
 Red. masses --      4.0734                 1.0421                 1.2622
 Frc consts  --      5.1430                 1.3409                 1.6358
 IR Inten    --    182.0454                74.7770               110.8659

                     79                     80                     81
                      A                      A                      A
 Frequencies --   1486.9722              1490.8171              1498.8410
 Red. masses --      1.0501                 1.0510                 2.3059
 Frc consts  --      1.3680                 1.3762                 3.0522
 IR Inten    --      9.1936               347.7877               192.1307

                     82                     83                     84
                      A                      A                      A
 Frequencies --   1500.5171              1503.2094              1533.6186
 Red. masses --      1.2107                 1.0780                 2.3585
 Frc consts  --      1.6061                 1.4352                 3.2683
 IR Inten    --     51.6774                26.5521               124.7795

                     85                     86                     87
                      A                      A                      A
 Frequencies --   1589.0011              1598.9327              1639.8072
 Red. masses --      6.5752                 5.9432                 5.6833
 Frc consts  --      9.7816                 8.9523                 9.0040
 IR Inten    --   5337.6705                46.7844                 5.9409

                     88                     89                     90
                      A                      A                      A
 Frequencies --   2950.4936              2993.6817              2994.9231
 Red. masses --      1.0559                 1.0373                 1.0576
 Frc consts  --      5.4159                 5.4775                 5.5893
 IR Inten    --    326.0510                16.9319               149.3349

                     91                     92                     93
                      A                      A                      A
 Frequencies --   2998.3760              3000.4681              3005.7753
 Red. masses --      1.0387                 1.0799                 1.0811
 Frc consts  --      5.5021                 5.7281                 5.7546
 IR Inten    --     33.7635                22.2008                33.1663

                     94                     95                     96
                      A                      A                      A
 Frequencies --   3037.5302              3054.2959              3061.2238
 Red. masses --      1.1016                 1.0994                 1.1002
 Frc consts  --      5.9885                 6.0426                 6.0744
 IR Inten    --     19.3588                38.0748                56.5697

                     97                     98                     99
                      A                      A                      A
 Frequencies --   3067.0388              3073.3281              3084.6911
 Red. masses --      1.1014                 1.1016                 1.0942
 Frc consts  --      6.1043                 6.1303                 6.1346
 IR Inten    --      7.6317                 4.4517                 9.9892

                    100                    101                    102
                      A                      A                      A
 Frequencies --   3095.6557              3121.7655              3122.2978
 Red. masses --      1.0836                 1.0930                 1.0855
 Frc consts  --      6.1184                 6.2761                 6.2347
 IR Inten    --     44.1824               609.0320                 0.4598

                    103                    104                    105
                      A                      A                      A
 Frequencies --   3124.0384              3142.6604              3161.3150
 Red. masses --      1.0877                 1.0928                 1.0945
 Frc consts  --      6.2546                 6.3587                 6.4447
 IR Inten    --      8.2369                55.3885                19.4639

 - Thermochemistry -
 -------------------
 Temperature   298.150 Kelvin.  Pressure   1.00000 Atm.
 Atom     1 has atomic number  6 and mass  12.00000

 Molecular mass:   254.13068 amu.
 Principal axes and moments of inertia in atomic units:
                           1         2         3
     Eigenvalues --  2291.44897********************
           X            0.98297   0.15148   0.10404
           Y           -0.17534   0.60367   0.77771
           Z           -0.05500   0.78271  -0.61995
 This molecule is an asymmetric top.
 Rotational symmetry number  1.
 Warning -- assumption of classical behavior for rotation
           may cause significant error
 Rotational temperatures (Kelvin)      0.03780     0.00834     0.00771
 Rotational constants (GHZ):           0.78760     0.17377     0.16066
 Zero-point vibrational energy     790324.3 (Joules/Mol)
                                  188.89204 (Kcal/Mol)
 Warning -- explicit consideration of  29 degrees of freedom as
           vibrations may cause significant error
 Vibrational temperatures:     31.95    44.23    66.60    77.19   122.25
          (Kelvin)            166.26   179.25   185.66   230.27   296.77
                              338.07   351.50   376.54   400.71   447.84
                              469.21   498.34   506.83   561.71   577.81
                              600.56   647.53   669.77   694.25   743.57
                              775.75   825.97   862.94   883.94   936.23
                              977.68  1012.03  1082.97  1100.03  1133.41
                             1164.73  1181.87  1208.70  1216.93  1246.04
                             1285.10  1291.08  1333.26  1336.80  1372.38
                             1377.30  1445.13  1480.88  1492.12  1497.36
                             1534.40  1542.82  1610.96  1612.46  1635.46
                             1673.38  1677.36  1717.51  1728.63  1738.57
                             1763.91  1785.18  1876.62  1883.70  1919.77
                             1934.60  1935.12  1964.74  1971.54  1992.92
                             2009.54  2027.01  2052.14  2076.51  2095.13
                             2106.20  2126.23  2133.89  2139.42  2144.95
                             2156.50  2158.91  2162.78  2206.54  2286.22
                             2300.51  2359.32  4245.10  4307.24  4309.03
                             4313.99  4317.00  4324.64  4370.33  4394.45
                             4404.42  4412.78  4421.83  4438.18  4453.96
                             4491.52  4492.29  4494.79  4521.59  4548.43

 Zero-point correction=                           0.301019 (Hartree/Particle)
 Thermal correction to Energy=                    0.319120
 Thermal correction to Enthalpy=                  0.320064
 Thermal correction to Gibbs Free Energy=         0.253546
 Sum of electronic and zero-point Energies=           -808.992341
 Sum of electronic and thermal Energies=              -808.974240
 Sum of electronic and thermal Enthalpies=            -808.973296
 Sum of electronic and thermal Free Energies=         -809.039814

                     E (Thermal)             CV                S
                      KCal/Mol        Cal/Mol-Kelvin    Cal/Mol-Kelvin
 Total                  200.251             69.735            139.998
 Electronic               0.000              0.000              0.000
 Translational            0.889              2.981             42.498
 Rotational               0.889              2.981             33.946
 Vibrational            198.473             63.773             63.554
 Vibration     1          0.593              1.985              6.426
 Vibration     2          0.594              1.984              5.781
 Vibration     3          0.595              1.979              4.970
 Vibration     4          0.596              1.976              4.678
 Vibration     5          0.601              1.960              3.773
 Vibration     6          0.608              1.937              3.173
 Vibration     7          0.610              1.928              3.028
 Vibration     8          0.612              1.924              2.960
 Vibration     9          0.622              1.891              2.549
 Vibration    10          0.641              1.831              2.076
 Vibration    11          0.655              1.787              1.841
 Vibration    12          0.660              1.772              1.771
 Vibration    13          0.669              1.743              1.650
 Vibration    14          0.679              1.713              1.543
 Vibration    15          0.700              1.652              1.356
 Vibration    16          0.710              1.623              1.279
 Vibration    17          0.724              1.583              1.183
 Vibration    18          0.729              1.571              1.156
 Vibration    19          0.758              1.491              0.999
 Vibration    20          0.767              1.467              0.957
 Vibration    21          0.780              1.432              0.901
 Vibration    22          0.809              1.361              0.796
 Vibration    23          0.823              1.327              0.750
 Vibration    24          0.839              1.289              0.703
 Vibration    25          0.872              1.213              0.617
 Vibration    26          0.894              1.163              0.567
 Vibration    27          0.930              1.087              0.496
 Vibration    28          0.958              1.032              0.450
 Vibration    29          0.974              1.001              0.426

 Optimization completed.
    -- Stationary point found.
 Normal termination of Gaussian 16 at Sat Jan  6 08:55:31 2024.
