 Gaussian 16, Revision A.03,
 Gaussian 16:  ES64L-G16RevA.03 25-Dec-2016

 ----------------------------------------------------------------
 #P UB3LYP/6-311++G(d,p) SCRF=(PCM,Solvent=n,n-DiMethylFormamide)
 ----------------------------------------------------------------

 -------
 Reduced
 -------
 Symbolic Z-matrix:
 Charge = -2 Multiplicity = 1

                         Standard orientation:
 ---------------------------------------------------------------------
 Center     Atomic      Atomic             Coordinates (Angstroms)
 Number     Number       Type             X           Y           Z
 ---------------------------------------------------------------------
      1          6           0        3.842868   -0.959400   -0.627217
      2          6           0        4.287669    0.318377   -1.111342
      3          6           0        3.661931    1.506885   -0.787444
      4          6           0        2.506527    1.569138    0.060922
      5          6           0        2.041409    0.288983    0.558409
      6          6           0        2.669908   -0.915772    0.228027
      7          8           0        4.448008   -2.053773   -0.929568
      8          8           0        1.927784    2.680352    0.362529
      9          6           0        2.169852   -2.242217    0.752653
     10          6           0        0.867318    0.337466    1.524104
     11          6           0       -0.519539    0.240902    0.908495
     12          6           0       -0.944011    1.168813   -0.053439
     13          6           0       -1.435252   -0.740788    1.303951
     14          6           0       -2.724578   -0.799413    0.771254
     15          6           0       -2.233277    1.109023   -0.579983
     16          6           0       -3.153152    0.128805   -0.182349
     17          6           0       -4.557827    0.087710   -0.772495
     18          6           0       -4.809100   -1.190061   -1.595752
     19          6           0       -5.650273    0.270584    0.297951
     20          1           0        5.161741    0.311757   -1.761020
     21          1           0        4.033921    2.454591   -1.173928
     22          1           0        1.107896   -2.405277    0.530197
     23          1           0        2.283500   -2.331224    1.844255
     24          1           0        2.757735   -3.036866    0.288038
     25          1           0        0.928192    1.308751    2.030696
     26          1           0        0.961184   -0.448311    2.281750
     27          1           0       -0.245046    1.942231   -0.357381
     28          1           0       -1.132752   -1.477453    2.043833
     29          1           0       -3.400432   -1.581407    1.108576
     30          1           0       -2.537564    1.845859   -1.320277
     31          1           0       -4.634206    0.937408   -1.462148
     32          1           0       -4.054583   -1.305531   -2.380025
     33          1           0       -5.798200   -1.166260   -2.068706
     34          1           0       -4.768708   -2.082500   -0.962567
     35          1           0       -5.493881    1.194778    0.863897
     36          1           0       -5.651134   -0.559854    1.012193
     37          1           0       -6.646831    0.312477   -0.155542
 ---------------------------------------------------------------------

 SCF Done:  E(UB3LYP) =  -809.553201299     A.U. after   19 cycles

 The electronic state is 1-A.
 Alpha  occ. eigenvalues --  -19.00378 -19.00318 -10.17481 -10.16887 -10.16592
 Alpha  occ. eigenvalues --  -10.16277 -10.16155 -10.16065 -10.15482 -10.15482
 Alpha  occ. eigenvalues --  -10.15467 -10.15465 -10.15367 -10.14315 -10.12989
 Alpha  occ. eigenvalues --  -10.11872 -10.11820 -10.10978 -10.10919  -0.92293
 Alpha  occ. eigenvalues --   -0.91975  -0.85199  -0.80034  -0.77616  -0.74305
 Alpha  occ. eigenvalues --   -0.73392  -0.71688  -0.68258  -0.68005  -0.63249
 Alpha  occ. eigenvalues --   -0.61401  -0.60073  -0.58840  -0.55371  -0.52523
 Alpha  occ. eigenvalues --   -0.50514  -0.48407  -0.46378  -0.44321  -0.43723
 Alpha  occ. eigenvalues --   -0.42304  -0.42137  -0.41243  -0.41051  -0.40526
 Alpha  occ. eigenvalues --   -0.39210  -0.38479  -0.38219  -0.37411  -0.36226
 Alpha  occ. eigenvalues --   -0.35642  -0.35062  -0.34735  -0.34304  -0.33469
 Alpha  occ. eigenvalues --   -0.33157  -0.32968  -0.31868  -0.31794  -0.30392
 Alpha  occ. eigenvalues --   -0.29765  -0.29385  -0.24628  -0.22870  -0.21458
 Alpha  occ. eigenvalues --   -0.19538  -0.18649  -0.18072  -0.10264
 Alpha virt. eigenvalues --   -0.00612  -0.00373  -0.00052   0.00610   0.01084
 Alpha virt. eigenvalues --    0.01726   0.01934   0.02306   0.02828   0.03177
 Alpha virt. eigenvalues --    0.03381   0.03838   0.04408   0.04885   0.04989

  Beta  occ. eigenvalues --  -19.00378 -19.00318 -10.17481 -10.16887 -10.16592
  Beta  occ. eigenvalues --  -10.16277 -10.16155 -10.16065 -10.15482 -10.15482
  Beta  occ. eigenvalues --  -10.15467 -10.15465 -10.15367 -10.14315 -10.12989
  Beta  occ. eigenvalues --  -10.11872 -10.11820 -10.10978 -10.10919  -0.92293
  Beta  occ. eigenvalues --   -0.91975  -0.85199  -0.80034  -0.77616  -0.74305
  Beta  occ. eigenvalues --   -0.73392  -0.71688  -0.68258  -0.68005  -0.63249
  Beta  occ. eigenvalues --   -0.61401  -0.60073  -0.58840  -0.55371  -0.52523
  Beta  occ. eigenvalues --   -0.50514  -0.48407  -0.46378  -0.44321  -0.43723
  Beta  occ. eigenvalues --   -0.42304  -0.42137  -0.41243  -0.41051  -0.40526
  Beta  occ. eigenvalues --   -0.39210  -0.38479  -0.38219  -0.37411  -0.36226
  Beta  occ. eigenvalues --   -0.35642  -0.35062  -0.34735  -0.34304  -0.33469
  Beta  occ. eigenvalues --   -0.33157  -0.32968  -0.31868  -0.31794  -0.30392
  Beta  occ. eigenvalues --   -0.29765  -0.29385  -0.24628  -0.22870  -0.21458
  Beta  occ. eigenvalues --   -0.19538  -0.18649  -0.18072  -0.10264
  Beta virt. eigenvalues --   -0.00612  -0.00373  -0.00052   0.00610   0.01084
  Beta virt. eigenvalues --    0.01726   0.01934   0.02306   0.02828   0.03177
  Beta virt. eigenvalues --    0.03381   0.03838   0.04408   0.04885   0.04989

 Mulliken charges and spin densities:
               1          2
     1  C   -0.680016   0.000000
     2  C   -0.107765  -0.000000
     3  C   -0.255291   0.000000
     4  C   -0.527923  -0.000000
     5  C    0.676754   0.000000
     6  C    0.303619  -0.000000
     7  O   -0.735927  -0.000000
     8  O   -0.697250   0.000000
     9  C   -0.667062   0.000000
    10  C   -0.040620  -0.000000
    11  C    0.910386  -0.000000
    12  C   -0.757765   0.000000
    13  C   -0.285587   0.000000
    14  C   -0.570230   0.000000
    15  C   -0.674571   0.000000
    16  C    0.566401   0.000000
    17  C    0.137344   0.000000
    18  C   -0.699309  -0.000000
    19  C   -0.688364   0.000000
    20  H    0.116766   0.000000
    21  H    0.118950  -0.000000
    22  H    0.137211  -0.000000
    23  H    0.133543   0.000000
    24  H    0.163428  -0.000000
    25  H    0.177487  -0.000000
    26  H    0.179953  -0.000000
    27  H    0.180453  -0.000000
    28  H    0.151523  -0.000000
    29  H    0.177553   0.000000
    30  H    0.181268  -0.000000
    31  H    0.180451   0.000000
    32  H    0.141127  -0.000000
    33  H    0.153080  -0.000000
    34  H    0.154983  -0.000000
    35  H    0.139014  -0.000000
    36  H    0.153440  -0.000000
    37  H    0.152947  -0.000000
 Sum of Mulliken charges =  -2.00000   0.00000

 Dipole moment (field-independent basis, Debye):
    X=            -29.4340    Y=             -2.6850    Z=              2.7611  Tot=             29.6849
 Quadrupole moment (field-independent basis, Debye-Ang):
   XX=           -233.7283   YY=           -170.0182   ZZ=           -129.6317
   XY=             14.8966   XZ=             19.2183   YZ=            -13.9400

 Normal termination of Gaussian 16 at Sun Jan 21 07:47:20 2024.
