 Gaussian 16, Revision A.03,
 Gaussian 16:  ES64L-G16RevA.03 25-Dec-2016

 --------------------------------------
 #P UB3LYP/6-311++G(d,p) nosym opt freq
 --------------------------------------

 --------
 Oxidized
 --------
 Symbolic Z-matrix:
 Charge =  0 Multiplicity = 1

 SCF Done:  E(UB3LYP) =  -994.876689674     A.U. after   17 cycles
 SCF Done:  E(UB3LYP) =  -994.878213142     A.U. after   14 cycles
 SCF Done:  E(UB3LYP) =  -994.878322216     A.U. after   12 cycles
 SCF Done:  E(UB3LYP) =  -994.878330262     A.U. after   11 cycles
 Optimization completed.
    -- Stationary point found.
 Normal termination of Gaussian 16 at Tue Dec 26 20:07:39 2023.

 ----------------------------------------------------------------------
 #P Geom=AllCheck Guess=TCheck SCRF=Check GenChk UB3LYP/6-311++G(d,p) F
 req
 ----------------------------------------------------------------------

 Structure from the checkpoint file:  "229.chk"
 --------
 Oxidized
 --------
 Charge =  0 Multiplicity = 1

                          Input orientation:
 ---------------------------------------------------------------------
 Center     Atomic      Atomic             Coordinates (Angstroms)
 Number     Number       Type             X           Y           Z
 ---------------------------------------------------------------------
      1          6           0        5.779543   -5.134512    1.238346
      2          6           0        6.791276   -5.041680    0.287970
      3          6           0        6.702131   -4.104657   -0.743723
      4          6           0        4.670223   -4.288555    1.161955
      5          6           0        4.581320   -3.345732    0.123333
      6          6           0        5.600496   -3.258776   -0.826345
      7          6           0        3.599575   -4.409802    2.194545
      8          6           0        2.435248   -3.470056    2.053874
      9          6           0        2.351427   -2.570657    1.062281
     10          6           0        3.403678   -2.436993    0.029915
     11          8           0        3.655795   -5.215472    3.099429
     12          8           0        3.289087   -1.605851   -0.855580
     13          1           0        5.830166   -5.854405    2.045736
     14          1           0        7.650596   -5.699363    0.349922
     15          1           0        5.510418   -2.524714   -1.617685
     16         17           0        1.191480   -3.611672    3.255043
     17          1           0        7.492430   -4.035416   -1.482300
     18          1           0        1.507901   -1.897503    0.969225
 ---------------------------------------------------------------------

 SCF Done:  E(UB3LYP) =  -994.878330262     A.U. after    2 cycles

 Alpha  occ. eigenvalues -- -101.57859 -19.14831 -19.14209 -10.30111 -10.29344
 Alpha  occ. eigenvalues --  -10.27980 -10.22559 -10.22314 -10.22091 -10.21309
 Alpha  occ. eigenvalues --  -10.21252 -10.21154 -10.21069  -9.49307  -7.25784
 Alpha  occ. eigenvalues --   -7.24818  -7.24706  -1.08417  -1.07428  -0.91534
 Alpha  occ. eigenvalues --   -0.89925  -0.83269  -0.79227  -0.78197  -0.71015
 Alpha  occ. eigenvalues --   -0.66549  -0.64768  -0.60411  -0.56243  -0.54613
 Alpha  occ. eigenvalues --   -0.51461  -0.50123  -0.47159  -0.47012  -0.46953
 Alpha  occ. eigenvalues --   -0.46428  -0.44759  -0.44712  -0.43065  -0.40105
 Alpha  occ. eigenvalues --   -0.39850  -0.38434  -0.37524  -0.33843  -0.30410
 Alpha  occ. eigenvalues --   -0.29933  -0.29139  -0.28956  -0.28782
 Alpha virt. eigenvalues --   -0.13797  -0.06871  -0.04958  -0.01416  -0.00266
 Alpha virt. eigenvalues --    0.00282   0.00813   0.01305   0.02161   0.03488
 Alpha virt. eigenvalues --    0.03688   0.03908   0.04495   0.05723   0.06392

  Beta  occ. eigenvalues -- -101.57859 -19.14831 -19.14209 -10.30111 -10.29344
  Beta  occ. eigenvalues --  -10.27980 -10.22559 -10.22314 -10.22091 -10.21309
  Beta  occ. eigenvalues --  -10.21252 -10.21154 -10.21069  -9.49307  -7.25784
  Beta  occ. eigenvalues --   -7.24818  -7.24706  -1.08417  -1.07428  -0.91534
  Beta  occ. eigenvalues --   -0.89925  -0.83269  -0.79227  -0.78197  -0.71015
  Beta  occ. eigenvalues --   -0.66549  -0.64768  -0.60411  -0.56243  -0.54613
  Beta  occ. eigenvalues --   -0.51461  -0.50123  -0.47159  -0.47012  -0.46953
  Beta  occ. eigenvalues --   -0.46428  -0.44759  -0.44712  -0.43065  -0.40105
  Beta  occ. eigenvalues --   -0.39850  -0.38434  -0.37524  -0.33843  -0.30410
  Beta  occ. eigenvalues --   -0.29933  -0.29139  -0.28956  -0.28782
  Beta virt. eigenvalues --   -0.13797  -0.06871  -0.04958  -0.01416  -0.00266
  Beta virt. eigenvalues --    0.00282   0.00813   0.01305   0.02161   0.03488
  Beta virt. eigenvalues --    0.03688   0.03908   0.04495   0.05723   0.06392

 Mulliken charges and spin densities:
               1          2
     1  C    0.033661   0.000000
     2  C   -0.334303  -0.000000
     3  C   -0.316222   0.000000
     4  C    0.288584  -0.000000
     5  C    0.350436  -0.000000
     6  C    0.178712   0.000000
     7  C   -1.481447   0.000000
     8  C    1.021045   0.000000
     9  C    0.209140  -0.000000
    10  C   -0.965818   0.000000
    11  O   -0.160670  -0.000000
    12  O   -0.219548  -0.000000
    13  H    0.180841  -0.000000
    14  H    0.187437  -0.000000
    15  H    0.185338  -0.000000
    16  Cl   0.425154   0.000000
    17  H    0.184081  -0.000000
    18  H    0.233578  -0.000000
 Sum of Mulliken charges =  -0.00000   0.00000

 Dipole moment (field-independent basis, Debye):
    X=              2.3817    Y=             -0.6199    Z=             -1.2490  Tot=              2.7599
 Quadrupole moment (field-independent basis, Debye-Ang):
   XX=            -52.3647   YY=            -80.8879   ZZ=            -89.9797
   XY=            -15.2074   XZ=             -6.5716   YZ=             11.5680

  Exact polarizability: 148.995 -25.692 114.089 -39.003 -35.869 140.343
 Approx polarizability: 216.141 -37.555 210.351 -49.501 -95.164 256.718

                      1                      2                      3
                      A                      A                      A
 Frequencies --     50.8326               118.4395               139.4708
 Red. masses --     11.8175                 4.6794                 8.6084
 Frc consts  --      0.0180                 0.0387                 0.0987
 IR Inten    --      4.3457                 0.1021                 4.7320

                      4                      5                      6
                      A                      A                      A
 Frequencies --    197.0710               208.7003               279.8759
 Red. masses --      4.9884                10.4422                 7.8261
 Frc consts  --      0.1141                 0.2680                 0.3612
 IR Inten    --      0.4109                 0.2914                 0.3666

                      7                      8                      9
                      A                      A                      A
 Frequencies --    332.1481               362.6862               379.8723
 Red. masses --     15.6980                 5.2745                11.0424
 Frc consts  --      1.0204                 0.4088                 0.9388
 IR Inten    --      1.0241                 0.0024                13.5259

                     10                     11                     12
                      A                      A                      A
 Frequencies --    430.2280               455.7846               479.6943
 Red. masses --      3.6534                 9.9955                 4.0541
 Frc consts  --      0.3984                 1.2234                 0.5496
 IR Inten    --      0.7357                 7.6369                 0.0555

                     13                     14                     15
                      A                      A                      A
 Frequencies --    496.7932               623.5156               664.7806
 Red. masses --      9.6723                 7.2706                 5.9891
 Frc consts  --      1.4065                 1.6654                 1.5594
 IR Inten    --      0.6488                27.5990                 0.1056

                     16                     17                     18
                      A                      A                      A
 Frequencies --    680.6033               714.7851               717.8062
 Red. masses --      3.7365                 6.6660                 3.3307
 Frc consts  --      1.0198                 2.0066                 1.0111
 IR Inten    --      5.5566                 3.3062                29.4032

                     19                     20                     21
                      A                      A                      A
 Frequencies --    790.3690               807.9062               808.1715
 Red. masses --      2.0615                 2.7791                 5.1838
 Frc consts  --      0.7587                 1.0688                 1.9948
 IR Inten    --     30.9324                13.8728                10.0058

                     22                     23                     24
                      A                      A                      A
 Frequencies --    860.3698               913.3134               917.0880
 Red. masses --      8.5904                 1.4630                 1.3796
 Frc consts  --      3.7466                 0.7190                 0.6836
 IR Inten    --    113.9706                19.4868                 0.5255

                     25                     26                     27
                      A                      A                      A
 Frequencies --   1002.6264              1020.7458              1045.4076
 Red. masses --      1.3833                 1.3311                 3.1739
 Frc consts  --      0.8193                 0.8172                 2.0437
 IR Inten    --      1.3321                 0.0057                 4.3023

                     28                     29                     30
                      A                      A                      A
 Frequencies --   1077.2920              1099.8887              1131.8361
 Red. masses --      3.6069                 2.9646                 1.7655
 Frc consts  --      2.4663                 2.1131                 1.3325
 IR Inten    --     39.6553                 3.3734                33.2191

                     31                     32                     33
                      A                      A                      A
 Frequencies --   1185.1052              1233.2243              1269.8748
 Red. masses --      1.1278                 2.2047                 2.1994
 Frc consts  --      0.9332                 1.9756                 2.0897
 IR Inten    --      4.2939                26.9590               158.6757

                     34                     35                     36
                      A                      A                      A
 Frequencies --   1308.5064              1326.3642              1359.6592
 Red. masses --      2.6024                 2.2016                 7.3777
 Frc consts  --      2.6253                 2.2819                 8.0359
 IR Inten    --    172.5783                12.9970                 7.7939

                     37                     38                     39
                      A                      A                      A
 Frequencies --   1482.2166              1505.6902              1610.8651
 Red. masses --      2.3518                 2.6042                 6.6188
 Frc consts  --      3.0442                 3.4786                10.1192
 IR Inten    --      0.5962                 3.0270                15.1427

                     40                     41                     42
                      A                      A                      A
 Frequencies --   1628.5045              1645.1374              1719.6242
 Red. masses --      5.8127                 8.7824                11.6128
 Frc consts  --      9.0824                14.0045                20.2327
 IR Inten    --     60.1793               113.4985               177.6543

                     43                     44                     45
                      A                      A                      A
 Frequencies --   1742.9437              3173.3907              3187.0335
 Red. masses --     12.8466                 1.0871                 1.0915
 Frc consts  --     22.9935                 6.4502                 6.5318
 IR Inten    --    243.1571                 2.7831                 6.3944

                     46                     47                     48
                      A                      A                      A
 Frequencies --   3199.3624              3200.0094              3203.3679
 Red. masses --      1.0932                 1.0930                 1.0953
 Frc consts  --      6.5927                 6.5945                 6.6219
 IR Inten    --      0.4168                 0.8108                 8.1386

 - Thermochemistry -
 -------------------
 Temperature   298.150 Kelvin.  Pressure   1.00000 Atm.
 Atom     1 has atomic number  6 and mass  12.00000

 Molecular mass:   191.99781 amu.
 Principal axes and moments of inertia in atomic units:
                           1         2         3
     Eigenvalues --  1402.926893267.004174669.93104
           X            0.80628  -0.35474   0.47336
           Y           -0.07021   0.73719   0.67203
           Z           -0.58735  -0.57508   0.56948
 This molecule is an asymmetric top.
 Rotational symmetry number  1.
 Warning -- assumption of classical behavior for rotation
           may cause significant error
 Rotational temperatures (Kelvin)      0.06174     0.02651     0.01855
 Rotational constants (GHZ):           1.28641     0.55241     0.38646
 Zero-point vibrational energy     321729.6 (Joules/Mol)
                                   76.89521 (Kcal/Mol)
 Warning -- explicit consideration of  13 degrees of freedom as
           vibrations may cause significant error
 Vibrational temperatures:     73.14   170.41   200.67   283.54   300.27
          (Kelvin)            402.68   477.89   521.82   546.55   619.00
                              655.77   690.17   714.77   897.10   956.47
                              979.24  1028.42  1032.76  1137.16  1162.40
                             1162.78  1237.88  1314.05  1319.49  1442.56
                             1468.63  1504.11  1549.98  1582.49  1628.46
                             1705.10  1774.33  1827.07  1882.65  1908.34
                             1956.25  2132.58  2166.35  2317.68  2343.05
                             2366.99  2474.16  2507.71  4565.80  4585.43
                             4603.17  4604.10  4608.93

 Zero-point correction=                           0.122540 (Hartree/Particle)
 Thermal correction to Energy=                    0.132470
 Thermal correction to Enthalpy=                  0.133414
 Thermal correction to Gibbs Free Energy=         0.086199
 Sum of electronic and zero-point Energies=           -994.755790
 Sum of electronic and thermal Energies=              -994.745860
 Sum of electronic and thermal Enthalpies=            -994.744916
 Sum of electronic and thermal Free Energies=         -994.792131

                     E (Thermal)             CV                S
                      KCal/Mol        Cal/Mol-Kelvin    Cal/Mol-Kelvin
 Total                   83.126             38.167             99.373
 Electronic               0.000              0.000              0.000
 Translational            0.889              2.981             41.662
 Rotational               0.889              2.981             31.438
 Vibrational             81.349             32.205             26.273
 Vibration     1          0.595              1.977              4.785
 Vibration     2          0.609              1.934              3.126
 Vibration     3          0.615              1.914              2.811
 Vibration     4          0.636              1.844              2.160
 Vibration     5          0.642              1.827              2.055
 Vibration     6          0.680              1.711              1.534
 Vibration     7          0.714              1.611              1.250
 Vibration     8          0.737              1.549              1.111
 Vibration     9          0.750              1.513              1.040
 Vibration    10          0.791              1.404              0.858
 Vibration    11          0.814              1.348              0.778
 Vibration    12          0.836              1.295              0.711
 Vibration    13          0.852              1.257              0.666

 Optimization completed.
    -- Stationary point found.
 Normal termination of Gaussian 16 at Tue Dec 26 20:16:33 2023.
