 Gaussian 16, Revision A.03,
 Gaussian 16:  ES64L-G16RevA.03 25-Dec-2016

 ----------------------------------------------------------------
 #P UB3LYP/6-311++G(d,p) SCRF=(PCM,Solvent=n,n-DiMethylFormamide)
 ----------------------------------------------------------------

 ------------------
 Quinone PCM in DMF
 ------------------
 Symbolic Z-matrix:
 Charge =  0 Multiplicity = 1

                         Standard orientation:
 ---------------------------------------------------------------------
 Center     Atomic      Atomic             Coordinates (Angstroms)
 Number     Number       Type             X           Y           Z
 ---------------------------------------------------------------------
      1          6           0        0.672640   -1.763071    0.000028
      2          6           0        2.009741   -1.390955   -0.000105
      3          6           0        2.389714   -0.038881   -0.000080
      4          6           0       -0.328018   -0.787233    0.000127
      5          6           0        0.036357    0.569648    0.000142
      6          6           0        1.385640    0.929802    0.000052
      7          6           0       -1.761299   -1.190527    0.000113
      8          6           0       -2.771677   -0.102357   -0.000096
      9          6           0       -2.427117    1.192495   -0.000089
     10          6           0       -1.010128    1.634105    0.000124
     11          8           0       -2.113389   -2.359531   -0.000020
     12          8           0       -0.733382    2.822704   -0.000046
     13          1           0        0.381168   -2.806422    0.000023
     14          1           0        2.777067   -2.158668   -0.000210
     15          1           0       -3.806932   -0.426284   -0.000242
     16          1           0       -3.164162    1.988368   -0.000239
     17          6           0        3.847692    0.345824   -0.000035
     18          1           0        1.634086    1.984907    0.000056
     19          1           0        4.359099   -0.056244   -0.879874
     20          1           0        4.358269   -0.053531    0.881537
     21          1           0        3.974286    1.429388   -0.001603
 ---------------------------------------------------------------------

 SCF Done:  E(UB3LYP) =  -574.596815903     A.U. after   14 cycles

 The electronic state is 1-A.
 Alpha  occ. eigenvalues --  -19.13984 -19.13851 -10.28762 -10.28658 -10.21437
 Alpha  occ. eigenvalues --  -10.21353 -10.20962 -10.20959 -10.20718 -10.19918
 Alpha  occ. eigenvalues --  -10.19636 -10.19611 -10.17505  -1.07217  -1.06999
 Alpha  occ. eigenvalues --   -0.89369  -0.84507  -0.79563  -0.77910  -0.71911
 Alpha  occ. eigenvalues --   -0.69560  -0.65003  -0.62620  -0.59345  -0.54179
 Alpha  occ. eigenvalues --   -0.52581  -0.51200  -0.48026  -0.46540  -0.46301
 Alpha  occ. eigenvalues --   -0.45610  -0.45132  -0.43265  -0.43054  -0.42519
 Alpha  occ. eigenvalues --   -0.42243  -0.39706  -0.37781  -0.37134  -0.36606
 Alpha  occ. eigenvalues --   -0.31219  -0.29193  -0.28090  -0.28060  -0.27194
 Alpha virt. eigenvalues --   -0.13001  -0.05662  -0.03673  -0.00598   0.00437
 Alpha virt. eigenvalues --    0.01085   0.02094   0.02199   0.02706   0.03141
 Alpha virt. eigenvalues --    0.03941   0.04695   0.05102   0.05849   0.06044

  Beta  occ. eigenvalues --  -19.13984 -19.13851 -10.28762 -10.28658 -10.21437
  Beta  occ. eigenvalues --  -10.21353 -10.20962 -10.20959 -10.20718 -10.19918
  Beta  occ. eigenvalues --  -10.19636 -10.19611 -10.17505  -1.07217  -1.06999
  Beta  occ. eigenvalues --   -0.89369  -0.84507  -0.79563  -0.77910  -0.71911
  Beta  occ. eigenvalues --   -0.69560  -0.65003  -0.62620  -0.59345  -0.54179
  Beta  occ. eigenvalues --   -0.52581  -0.51200  -0.48026  -0.46540  -0.46301
  Beta  occ. eigenvalues --   -0.45610  -0.45132  -0.43265  -0.43054  -0.42519
  Beta  occ. eigenvalues --   -0.42243  -0.39706  -0.37781  -0.37134  -0.36606
  Beta  occ. eigenvalues --   -0.31219  -0.29193  -0.28090  -0.28060  -0.27194
  Beta virt. eigenvalues --   -0.13001  -0.05662  -0.03673  -0.00598   0.00437
  Beta virt. eigenvalues --    0.01085   0.02094   0.02199   0.02706   0.03141
  Beta virt. eigenvalues --    0.03941   0.04695   0.05102   0.05849   0.06044

 Mulliken charges and spin densities:
               1          2
     1  C    0.240194   0.000000
     2  C   -0.378018   0.000000
     3  C    0.474355  -0.000000
     4  C    0.132171  -0.000000
     5  C    0.099001   0.000000
     6  C   -0.143243  -0.000000
     7  C   -0.829221  -0.000000
     8  C    0.263538   0.000000
     9  C    0.036375  -0.000000
    10  C   -0.472908  -0.000000
    11  O   -0.291930   0.000000
    12  O   -0.284330   0.000000
    13  H    0.184430   0.000000
    14  H    0.206759  -0.000000
    15  H    0.236278   0.000000
    16  H    0.238245   0.000000
    17  C   -0.388204   0.000000
    18  H    0.149876   0.000000
    19  H    0.175727   0.000000
    20  H    0.175955   0.000000
    21  H    0.174950  -0.000000
 Sum of Mulliken charges =  -0.00000   0.00000

 Dipole moment (field-independent basis, Debye):
    X=              2.7545    Y=             -0.3558    Z=              0.0004  Tot=              2.7774
 Quadrupole moment (field-independent basis, Debye-Ang):
   XX=            -59.2466   YY=            -91.0092   ZZ=            -76.3642
   XY=             -8.3450   XZ=              0.0008   YZ=              0.0004

 Normal termination of Gaussian 16 at Tue Jan 23 20:50:29 2024.
