 Gaussian 16, Revision A.03,
 Gaussian 16:  ES64L-G16RevA.03 25-Dec-2016

 --------------------------------------
 #P UB3LYP/6-311++G(d,p) nosym opt freq
 --------------------------------------

 --------
 Oxidized
 --------
 Symbolic Z-matrix:
 Charge =  0 Multiplicity = 1

 SCF Done:  E(UB3LYP) =  -574.578332999     A.U. after   16 cycles
 SCF Done:  E(UB3LYP) =  -574.586634654     A.U. after   13 cycles
 SCF Done:  E(UB3LYP) =  -574.587332027     A.U. after   12 cycles
 SCF Done:  E(UB3LYP) =  -574.587374670     A.U. after   11 cycles
 SCF Done:  E(UB3LYP) =  -574.587375457     A.U. after    9 cycles
 Optimization completed.
    -- Stationary point found.
 Normal termination of Gaussian 16 at Tue Jan 23 01:38:33 2024.

 ----------------------------------------------------------------------
 #P Geom=AllCheck Guess=TCheck SCRF=Check GenChk UB3LYP/6-311++G(d,p) F
 req
 ----------------------------------------------------------------------

 Structure from the checkpoint file:  "238.chk"
 --------
 Oxidized
 --------
 Charge =  0 Multiplicity = 1

                          Input orientation:
 ---------------------------------------------------------------------
 Center     Atomic      Atomic             Coordinates (Angstroms)
 Number     Number       Type             X           Y           Z
 ---------------------------------------------------------------------
      1          6           0        5.744538   -5.291196    1.374577
      2          6           0        6.699181   -5.185212    0.372711
      3          6           0        6.588523   -4.218162   -0.639738
      4          6           0        4.645677   -4.427611    1.391906
      5          6           0        4.521073   -3.454928    0.385796
      6          6           0        5.489141   -3.359491   -0.616207
      7          6           0        3.623637   -4.544635    2.468326
      8          6           0        2.482419   -3.595545    2.425591
      9          6           0        2.360983   -2.666922    1.467323
     10          6           0        3.358361   -2.518850    0.378200
     11          8           0        3.700418   -5.377759    3.357453
     12          8           0        3.215194   -1.661407   -0.478334
     13          1           0        5.831328   -6.037654    2.154837
     14          1           0        7.547748   -5.862045    0.370746
     15          1           0        1.754132   -3.704687    3.222063
     16          1           0        1.527857   -1.973019    1.434936
     17          6           0        7.636017   -4.118299   -1.719775
     18          1           0        5.364357   -2.598610   -1.378087
     19          1           0        7.713239   -5.055835   -2.278681
     20          1           0        8.622195   -3.914821   -1.291531
     21          1           0        7.404301   -3.321216   -2.427663
 ---------------------------------------------------------------------

 SCF Done:  E(UB3LYP) =  -574.587375457     A.U. after    1 cycles

 Alpha  occ. eigenvalues --  -19.13503 -19.13358 -10.28388 -10.28275 -10.21642
 Alpha  occ. eigenvalues --  -10.21559 -10.21418 -10.21112 -10.20882 -10.20199
 Alpha  occ. eigenvalues --  -10.20128 -10.19911 -10.18718  -1.06679  -1.06436
 Alpha  occ. eigenvalues --   -0.89607  -0.84748  -0.80029  -0.78161  -0.72463
 Alpha  occ. eigenvalues --   -0.69729  -0.65315  -0.62987  -0.59482  -0.54323
 Alpha  occ. eigenvalues --   -0.52780  -0.51098  -0.48458  -0.46528  -0.45958
 Alpha  occ. eigenvalues --   -0.45574  -0.45222  -0.43974  -0.43276  -0.42713
 Alpha  occ. eigenvalues --   -0.41743  -0.40659  -0.38257  -0.37409  -0.37016
 Alpha  occ. eigenvalues --   -0.31157  -0.28601  -0.28316  -0.27585  -0.27520
 Alpha virt. eigenvalues --   -0.12794  -0.05820  -0.04048  -0.01319  -0.00128
 Alpha virt. eigenvalues --    0.00709   0.01835   0.02072   0.02462   0.02710
 Alpha virt. eigenvalues --    0.03388   0.04330   0.04979   0.05719   0.05770

  Beta  occ. eigenvalues --  -19.13503 -19.13358 -10.28388 -10.28275 -10.21642
  Beta  occ. eigenvalues --  -10.21559 -10.21418 -10.21112 -10.20882 -10.20199
  Beta  occ. eigenvalues --  -10.20128 -10.19911 -10.18718  -1.06679  -1.06436
  Beta  occ. eigenvalues --   -0.89607  -0.84748  -0.80029  -0.78161  -0.72463
  Beta  occ. eigenvalues --   -0.69729  -0.65315  -0.62987  -0.59482  -0.54323
  Beta  occ. eigenvalues --   -0.52780  -0.51098  -0.48458  -0.46528  -0.45958
  Beta  occ. eigenvalues --   -0.45574  -0.45222  -0.43974  -0.43276  -0.42713
  Beta  occ. eigenvalues --   -0.41743  -0.40659  -0.38257  -0.37409  -0.37016
  Beta  occ. eigenvalues --   -0.31157  -0.28601  -0.28316  -0.27585  -0.27520
  Beta virt. eigenvalues --   -0.12794  -0.05820  -0.04048  -0.01319  -0.00128
  Beta virt. eigenvalues --    0.00709   0.01835   0.02072   0.02462   0.02710
  Beta virt. eigenvalues --    0.03388   0.04330   0.04979   0.05719   0.05770

 Mulliken charges and spin densities:
               1          2
     1  C    0.213538  -0.000000
     2  C   -0.300565   0.000000
     3  C    0.506235   0.000000
     4  C    0.136130  -0.000000
     5  C    0.082846   0.000000
     6  C   -0.175854  -0.000000
     7  C   -0.884198   0.000000
     8  C    0.274840   0.000000
     9  C    0.063928   0.000000
    10  C   -0.547374  -0.000000
    11  O   -0.227664   0.000000
    12  O   -0.221484  -0.000000
    13  H    0.183959   0.000000
    14  H    0.174767  -0.000000
    15  H    0.216716   0.000000
    16  H    0.219311  -0.000000
    17  C   -0.361143   0.000000
    18  H    0.146720   0.000000
    19  H    0.165433  -0.000000
    20  H    0.165671  -0.000000
    21  H    0.168187  -0.000000
 Sum of Mulliken charges =  -0.00000   0.00000

 Dipole moment (field-independent basis, Debye):
    X=              1.7928    Y=             -0.4767    Z=             -1.1018  Tot=              2.1576
 Quadrupole moment (field-independent basis, Debye-Ang):
   XX=            -48.4297   YY=            -77.9298   ZZ=            -81.8798
   XY=            -12.2475   XZ=            -10.6888   YZ=             12.7010

  Exact polarizability: 143.536 -29.185 120.822 -34.886 -32.646 138.915
 Approx polarizability: 208.246 -46.702 221.555 -37.639 -86.711 243.573

                      1                      2                      3
                      A                      A                      A
 Frequencies --     15.6831                75.6267                95.9772
 Red. masses --      1.0363                 5.7574                 4.7405
 Frc consts  --      0.0002                 0.0194                 0.0257
 IR Inten    --      0.2796                10.7154                 1.1071

                      4                      5                      6
                      A                      A                      A
 Frequencies --    151.2409               209.5527               251.7793
 Red. masses --      4.8941                 4.6605                 4.5024
 Frc consts  --      0.0660                 0.1206                 0.1682
 IR Inten    --      0.0021                 0.4603                 0.2088

                      7                      8                      9
                      A                      A                      A
 Frequencies --    281.5034               342.0356               372.3727
 Red. masses --      3.9657                 5.8059                 4.6802
 Frc consts  --      0.1852                 0.4002                 0.3824
 IR Inten    --      0.4970                 6.4176                 4.5362

                     10                     11                     12
                      A                      A                      A
 Frequencies --    422.7695               446.9946               451.6010
 Red. masses --      3.1503                 5.8309                10.8692
 Frc consts  --      0.3317                 0.6864                 1.3060
 IR Inten    --      1.6722                 6.6884                 6.1530

                     13                     14                     15
                      A                      A                      A
 Frequencies --    518.2257               531.2432               601.4423
 Red. masses --      3.7290                 7.2534                 4.5380
 Frc consts  --      0.5900                 1.2061                 0.9672
 IR Inten    --      5.8496                12.6312                 0.0320

                     16                     17                     18
                      A                      A                      A
 Frequencies --    615.1660               675.7437               692.4682
 Red. masses --      2.1809                 4.8678                 3.9040
 Frc consts  --      0.4863                 1.3096                 1.1030
 IR Inten    --      0.0068                 2.5997                 2.4854

                     19                     20                     21
                      A                      A                      A
 Frequencies --    718.8818               774.1071               793.0815
 Red. masses --      6.6449                 7.0011                 5.9730
 Frc consts  --      2.0233                 2.4718                 2.2135
 IR Inten    --      1.6802                 2.7549                 0.8373

                     22                     23                     24
                      A                      A                      A
 Frequencies --    842.5336               881.0312               902.3847
 Red. masses --      1.4262                 1.8565                 4.4265
 Frc consts  --      0.5965                 0.8490                 2.1237
 IR Inten    --     72.1606                 6.5849                 4.6831

                     25                     26                     27
                      A                      A                      A
 Frequencies --    936.1549              1005.3767              1014.9181
 Red. masses --      1.3554                 1.3498                 1.4415
 Frc consts  --      0.6999                 0.8038                 0.8748
 IR Inten    --      0.6884                 0.6630                 8.4413

                     28                     29                     30
                      A                      A                      A
 Frequencies --   1016.1388              1058.3204              1064.1285
 Red. masses --      1.2509                 3.3204                 1.5632
 Frc consts  --      0.7610                 2.1912                 1.0429
 IR Inten    --      0.0002                44.4912                 4.5020

                     31                     32                     33
                      A                      A                      A
 Frequencies --   1074.8825              1154.3808              1163.0885
 Red. masses --      2.5497                 1.3911                 1.4303
 Frc consts  --      1.7356                 1.0922                 1.1400
 IR Inten    --     12.7409                15.1091                21.6765

                     34                     35                     36
                      A                      A                      A
 Frequencies --   1214.2862              1255.1450              1301.2281
 Red. masses --      2.7655                 1.9253                 1.7760
 Frc consts  --      2.4025                 1.7870                 1.7718
 IR Inten    --      0.2477                 1.2274                 4.6167

                     37                     38                     39
                      A                      A                      A
 Frequencies --   1319.6459              1352.2248              1387.1285
 Red. masses --      4.0606                 6.9383                 1.7664
 Frc consts  --      4.1663                 7.4748                 2.0025
 IR Inten    --    314.4526                 0.6512                 4.0236

                     40                     41                     42
                      A                      A                      A
 Frequencies --   1416.0288              1442.8161              1486.5891
 Red. masses --      1.2501                 2.9808                 1.0430
 Frc consts  --      1.4768                 3.6560                 1.3581
 IR Inten    --      3.8939                 8.0202                 8.1544

                     43                     44                     45
                      A                      A                      A
 Frequencies --   1496.7906              1518.8701              1601.7967
 Red. masses --      1.1834                 2.9393                 6.5965
 Frc consts  --      1.5620                 3.9951                 9.9720
 IR Inten    --      3.2425                 0.2852                 5.2298

                     46                     47                     48
                      A                      A                      A
 Frequencies --   1636.1715              1662.4725              1721.5290
 Red. masses --      5.9695                 8.2057                10.4510
 Frc consts  --      9.4156                13.3621                18.2488
 IR Inten    --    125.6075                32.4525                47.4605

                     49                     50                     51
                      A                      A                      A
 Frequencies --   1726.8001              3027.4112              3076.8562
 Red. masses --     11.3270                 1.0375                 1.1002
 Frc consts  --     19.8998                 5.6024                 6.1364
 IR Inten    --    375.3777                20.2234                11.6407

                     52                     53                     54
                      A                      A                      A
 Frequencies --   3111.8746              3161.9908              3172.0090
 Red. masses --      1.1005                 1.0895                 1.0872
 Frc consts  --      6.2787                 6.4181                 6.4449
 IR Inten    --     12.4844                 9.9455                 1.1197

                     55                     56                     57
                      A                      A                      A
 Frequencies --   3185.8750              3189.9128              3196.7171
 Red. masses --      1.0906                 1.0986                 1.0928
 Frc consts  --      6.5216                 6.5865                 6.5799
 IR Inten    --      2.6895                 5.4970                 2.7122

 - Thermochemistry -
 -------------------
 Temperature   298.150 Kelvin.  Pressure   1.00000 Atm.
 Atom     1 has atomic number  6 and mass  12.00000

 Molecular mass:   172.05243 amu.
 Principal axes and moments of inertia in atomic units:
                           1         2         3
     Eigenvalues --  1395.493642525.833743910.16116
           X            0.79612  -0.31468   0.51689
           Y           -0.12215   0.75302   0.64656
           Z           -0.59269  -0.57788   0.56105
 This molecule is an asymmetric top.
 Rotational symmetry number  1.
 Warning -- assumption of classical behavior for rotation
           may cause significant error
 Rotational temperatures (Kelvin)      0.06207     0.03429     0.02215
 Rotational constants (GHZ):           1.29326     0.71451     0.46155
 Zero-point vibrational energy     417574.5 (Joules/Mol)
                                   99.80270 (Kcal/Mol)
 Warning -- explicit consideration of  16 degrees of freedom as
           vibrations may cause significant error
 Vibrational temperatures:     22.56   108.81   138.09   217.60   301.50
          (Kelvin)            362.25   405.02   492.11   535.76   608.27
                              643.13   649.75   745.61   764.34   865.34
                              885.09   972.24   996.31  1034.31  1113.77
                             1141.07  1212.22  1267.61  1298.33  1346.92
                             1446.51  1460.24  1462.00  1522.69  1531.04
                             1546.52  1660.90  1673.42  1747.09  1805.87
                             1872.18  1898.68  1945.55  1995.77  2037.35
                             2075.89  2138.87  2153.55  2185.32  2304.63
                             2354.09  2391.93  2476.90  2484.48  4355.77
                             4426.91  4477.29  4549.40  4563.81  4583.76
                             4589.57  4599.36

 Zero-point correction=                           0.159046 (Hartree/Particle)
 Thermal correction to Energy=                    0.169749
 Thermal correction to Enthalpy=                  0.170693
 Thermal correction to Gibbs Free Energy=         0.121013
 Sum of electronic and zero-point Energies=           -574.428330
 Sum of electronic and thermal Energies=              -574.417626
 Sum of electronic and thermal Enthalpies=            -574.416682
 Sum of electronic and thermal Free Energies=         -574.466363

                     E (Thermal)             CV                S
                      KCal/Mol        Cal/Mol-Kelvin    Cal/Mol-Kelvin
 Total                  106.519             40.678            104.561
 Electronic               0.000              0.000              0.000
 Translational            0.889              2.981             41.335
 Rotational               0.889              2.981             31.000
 Vibrational            104.742             34.717             32.226
 Vibration     1          0.593              1.986              7.117
 Vibration     2          0.599              1.965              4.001
 Vibration     3          0.603              1.952              3.534
 Vibration     4          0.619              1.901              2.657
 Vibration     5          0.642              1.826              2.048
 Vibration     6          0.664              1.760              1.718
 Vibration     7          0.681              1.708              1.525
 Vibration     8          0.721              1.591              1.203
 Vibration     9          0.744              1.529              1.070
 Vibration    10          0.785              1.421              0.883
 Vibration    11          0.806              1.368              0.805
 Vibration    12          0.810              1.357              0.791
 Vibration    13          0.873              1.210              0.614
 Vibration    14          0.886              1.181              0.584
 Vibration    15          0.960              1.029              0.447
 Vibration    16          0.975              1.000              0.424

                           ! Non-Optimized Parameters !
 Normal termination of Gaussian 16 at Tue Jan 23 01:48:42 2024.
