 Q-Chem 5.4, Q-Chem, Inc., Pleasanton, CA (2021)
 Q-Chem 5.4.0 for Intel X86 EM64T Linux

User input:
--------------------------------------------------------------
$molecule
-2 1
C                 -0.7279710000      3.1231580000      0.0026690000
C                 -1.8873510000      2.3264420000      0.2866540000
C                 -1.8991070000      0.9305480000      0.2689360000
C                  0.5493080000      2.3725510000     -0.3131740000
C                  0.4855940000      0.9285540000     -0.3099070000
C                 -0.7005400000      0.2481530000     -0.0252670000
O                  1.6283980000      2.9869750000     -0.5584840000
O                 -0.7537870000      4.3871130000      0.0152700000
C                  1.7534840000      0.1722040000     -0.6202860000
C                  2.7733220000      0.1209090000      0.5383310000
C                  4.0660100000     -0.6196020000      0.1781110000
C                  5.0810300000     -0.7018230000      1.3242380000
C                 -3.1633130000      0.1538280000      0.5595440000
C                 -4.2275040000      0.1624490000     -0.5643190000
C                 -5.4616090000     -0.6860780000     -0.2384990000
C                 -6.5495540000     -0.6638550000     -1.3175080000
H                 -2.7985210000      2.8790700000      0.5164590000
H                 -0.7021350000     -0.8427220000     -0.0302380000
H                  2.2520570000      0.6515690000     -1.4736480000
H                  1.5046610000     -0.8584370000     -0.9159620000
H                  2.3045390000     -0.3632150000      1.4057310000
H                  3.0006060000      1.1521080000      0.8267970000
H                  4.5328410000     -0.1225320000     -0.6822050000
H                  3.8220990000     -1.6377870000     -0.1584910000
H                  5.3800430000      0.2977260000      1.6581570000
H                  5.9923250000     -1.2406980000      1.0321330000
H                  4.6578050000     -1.2228400000      2.1907830000
H                 -3.6433060000      0.5460530000      1.4707380000
H                 -2.9013730000     -0.8919010000      0.7734490000
H                 -3.7643410000     -0.1982790000     -1.4904420000
H                 -4.5296800000      1.1987340000     -0.7567850000
H                 -5.8916350000     -0.3458260000      0.7131870000
H                 -5.1487230000     -1.7258980000     -0.0674950000
H                 -6.9221680000      0.3527930000     -1.4860880000
H                 -7.4118430000     -1.2873900000     -1.0468290000
H                 -6.1681600000     -1.0368880000     -2.2746470000
$end

$rem
BASIS  =  6-311++G(d,p)
GUI  =  2
JOB_TYPE  =  SP
METHOD  =  B3LYP
SCF_CONVERGENCE  = 5
SOLVENT_METHOD = sm12
$end

$smx
solvent dimethylformamide
charges CM5
$end

--------------------------------------------------------------

             Standard Nuclear Orientation (Angstroms)
    I     Atom           X                Y                Z
 ----------------------------------------------------------------
    1      C      -0.7279710000     3.1231580000     0.0026690000
    2      C      -1.8873510000     2.3264420000     0.2866540000
    3      C      -1.8991070000     0.9305480000     0.2689360000
    4      C       0.5493080000     2.3725510000    -0.3131740000
    5      C       0.4855940000     0.9285540000    -0.3099070000
    6      C      -0.7005400000     0.2481530000    -0.0252670000
    7      O       1.6283980000     2.9869750000    -0.5584840000
    8      O      -0.7537870000     4.3871130000     0.0152700000
    9      C       1.7534840000     0.1722040000    -0.6202860000
   10      C       2.7733220000     0.1209090000     0.5383310000
   11      C       4.0660100000    -0.6196020000     0.1781110000
   12      C       5.0810300000    -0.7018230000     1.3242380000
   13      C      -3.1633130000     0.1538280000     0.5595440000
   14      C      -4.2275040000     0.1624490000    -0.5643190000
   15      C      -5.4616090000    -0.6860780000    -0.2384990000
   16      C      -6.5495540000    -0.6638550000    -1.3175080000
   17      H      -2.7985210000     2.8790700000     0.5164590000
   18      H      -0.7021350000    -0.8427220000    -0.0302380000
   19      H       2.2520570000     0.6515690000    -1.4736480000
   20      H       1.5046610000    -0.8584370000    -0.9159620000
   21      H       2.3045390000    -0.3632150000     1.4057310000
   22      H       3.0006060000     1.1521080000     0.8267970000
   23      H       4.5328410000    -0.1225320000    -0.6822050000
   24      H       3.8220990000    -1.6377870000    -0.1584910000
   25      H       5.3800430000     0.2977260000     1.6581570000
   26      H       5.9923250000    -1.2406980000     1.0321330000
   27      H       4.6578050000    -1.2228400000     2.1907830000
   28      H      -3.6433060000     0.5460530000     1.4707380000
   29      H      -2.9013730000    -0.8919010000     0.7734490000
   30      H      -3.7643410000    -0.1982790000    -1.4904420000
   31      H      -4.5296800000     1.1987340000    -0.7567850000
   32      H      -5.8916350000    -0.3458260000     0.7131870000
   33      H      -5.1487230000    -1.7258980000    -0.0674950000
   34      H      -6.9221680000     0.3527930000    -1.4860880000
   35      H      -7.4118430000    -1.2873900000    -1.0468290000
   36      H      -6.1681600000    -1.0368880000    -2.2746470000
 ----------------------------------------------------------------

   12    -696.1086900343      7.79e-06  Convergence criterion met
 Total energy in the final basis set =     -696.4181153752

                    Orbital Energies (a.u.)
 --------------------------------------------------------------

 Alpha MOs
 -- Occupied --
-19.0251 -19.0206 -10.1787 -10.1757 -10.1748 -10.1732 -10.1731 -10.1722
-10.1671 -10.1667 -10.1656 -10.1654 -10.1466 -10.1409 -10.1296 -10.1276
 -0.9555  -0.9293  -0.8202  -0.8062  -0.7897  -0.7534  -0.7257  -0.6883
 -0.6668  -0.6354  -0.6132  -0.5877  -0.5852  -0.5382  -0.5327  -0.4843
 -0.4753  -0.4523  -0.4501  -0.4345  -0.4324  -0.4208  -0.4145  -0.4048
 -0.3997  -0.3822  -0.3805  -0.3696  -0.3633  -0.3592  -0.3558  -0.3491
 -0.3451  -0.3410  -0.3387  -0.3343  -0.3321  -0.3270  -0.3118  -0.2861
 -0.2762  -0.2085  -0.1912  -0.1780  -0.1236

          Ground-State Mulliken Net Atomic Charges

     Atom                 Charge (a.u.)
  ----------------------------------------
      1 C                    -1.769249
      2 C                    -2.964255
      3 C                     1.112599
      4 C                    -2.446833
      5 C                    -0.498032
      6 C                    -2.302180
      7 O                    -0.311392
      8 O                    -0.382304
      9 C                     1.136125
     10 C                    -0.525610
     11 C                     1.111216
     12 C                     0.973651
     13 C                     0.816891
     14 C                     0.073755
     15 C                     0.960547
     16 C                     0.880785
     17 H                    -0.631210
     18 H                    -0.225966
     19 H                     0.045468
     20 H                     0.250933
     21 H                     0.037000
     22 H                     0.012103
     23 H                     0.118375
     24 H                     0.135861
     25 H                     0.122565
     26 H                     0.418940
     27 H                     0.140703
     28 H                     0.140332
     29 H                     0.444022
     30 H                     0.043003
     31 H                     0.196097
     32 H                     0.149317
     33 H                     0.092101
     34 H                     0.110512
     35 H                     0.397156
     36 H                     0.136997
  ----------------------------------------
  Sum of atomic charges =    -1.999979

                    Cartesian Multipole Moments
 -----------------------------------------------------------------
    Charge (ESU x 10^10)
                -9.6063
    Dipole Moment (Debye)
         X       1.8451      Y     -24.8044      Z       1.0632
       Tot      24.8956
    Quadrupole Moments (Debye-Ang)
        XX    -145.1369     XY       5.2738     YY    -209.3875
        XZ       5.5018     YZ       2.2959     ZZ    -117.7835

 Total job time:  586.91s(wall), 4591.86s(cpu)
        *  Thank you very much for using Q-Chem.  Have a nice day.  *
