 Q-Chem 5.4, Q-Chem, Inc., Pleasanton, CA (2021)
 Q-Chem 5.4.0 for Intel X86 EM64T Linux

User input:
--------------------------------------------------------------
$molecule
-1 2
N                 -3.4375600000      1.5918770000      0.5957780000
C                 -2.8493550000      0.3475780000      0.3474420000
C                 -3.6699470000     -0.7769370000      0.2891700000
C                 -3.1462810000     -2.0510930000      0.0885550000
C                 -1.7742750000     -2.2659560000     -0.0239760000
N                 -1.3193230000     -3.5656990000     -0.2683530000
C                 -0.8862540000     -1.1441600000      0.0600280000
C                  0.5563070000     -1.3446670000      0.0392070000
O                  1.0466000000     -2.5296860000     -0.0182870000
C                  1.4360150000     -0.1846130000      0.0845740000
C                  2.8587470000     -0.3555370000      0.1068870000
N                  3.4611470000     -1.6119240000      0.2285420000
C                  3.6752730000      0.7724370000      0.0593560000
C                  3.1410350000      2.0555840000     -0.0181790000
C                  1.7649240000      2.2738830000     -0.0119820000
N                  1.2958840000      3.5854830000     -0.1366580000
C                  0.8831580000      1.1468550000      0.0667900000
C                 -0.5563200000      1.3447260000      0.1688710000
O                 -1.0466610000      2.5297790000      0.2255100000
C                 -1.4328530000      0.1819710000      0.2058660000
H                 -2.7945520000      2.3594490000      0.4008480000
H                 -4.3711950000      1.6888800000      0.2238420000
H                 -4.7428830000     -0.6476650000      0.4063280000
H                 -3.8166090000     -2.9036380000      0.0146260000
H                 -1.8933370000     -4.2879760000      0.1418660000
H                 -0.3143170000     -3.6493000000     -0.1146430000
H                  4.3630710000     -1.6823440000     -0.2198380000
H                  2.8030240000     -2.3666620000      0.0337930000
H                  4.7536890000      0.6384650000      0.0860220000
H                  3.8058730000      2.9127790000     -0.0877390000
H                  0.3056670000      3.6566680000      0.0979200000
H                  1.9013070000      4.2814430000      0.2738430000
$end
$rem
MAX_SCF_CYCLES=200
BASIS  =  6-311++G(d,p)
GUI  =  2
JOB_TYPE  =  SP
METHOD  =  B3LYP
SOLVENT_METHOD = COSMO
$end
$solvent
dielectric 37.219
opticaldielectric 1.43
$end

--------------------------------------------------------------

             Standard Nuclear Orientation (Angstroms)
    I     Atom           X                Y                Z
 ----------------------------------------------------------------
    1      N      -2.5755568624    -2.8042633498    -0.3081708070
    2      C      -2.5034877410    -1.4199265200    -0.1228239004
    3      C      -3.6907520200    -0.6926812272    -0.0697328691
    4      C      -3.6908074672     0.6924451445     0.0694465162
    5      C      -2.5036461791     1.4198057168     0.1225922855
    6      N      -2.5759571551     2.8042545460     0.3072700280
    7      C      -1.2557467797     0.7196790038     0.0411434752
    8      C      -0.0000275834     1.4566550694     0.0004692979
    9      O      -0.0000140621     2.7403850493     0.0008626986
   10      C       1.2557359690     0.7197552293    -0.0408361378
   11      C       2.5034950540     1.4199307196    -0.1228774443
   12      N       2.5755949103     2.8043903908    -0.3079909833
   13      C       3.6907451627     0.6926455819    -0.0700308994
   14      C       3.6908323766    -0.6924461161     0.0692857218
   15      C       2.5036242137    -1.4198165778     0.1226086069
   16      N       2.5758933409    -2.8041758637     0.3074429308
   17      C       1.2557805170    -0.7197114623     0.0410772913
   18      C       0.0000433393    -1.4566911667     0.0003902945
   19      O       0.0000180380    -2.7404328346     0.0008537541
   20      C      -1.2557033003    -0.7197488424    -0.0407716754
   21      H      -1.6832568916    -3.2585696057    -0.1131570739
   22      H      -3.3920235241    -3.2338485072     0.1020231302
   23      H      -4.6346502690    -1.2270129147    -0.1416679112
   24      H      -4.6347550622     1.2267162910     0.1412475019
   25      H      -3.3921072771     3.2335228505    -0.1039275716
   26      H      -1.6834699372     3.2584335760     0.1127425851
   27      H       3.3916894353     3.2338128105     0.1031739647
   28      H       1.6831499036     3.2584095112    -0.1128216897
   29      H       4.6346199133     1.2270115678    -0.1421009323
   30      H       4.6347674318    -1.2267241252     0.1411539934
   31      H       1.6834420361    -3.2585162595     0.1132025572
   32      H       3.3922294270    -3.2336602933    -0.1031017326
 ----------------------------------------------------------------

    9    -910.5276748930      7.05e-06  Convergence criterion met
 Total energy in the final basis set =     -910.5276748930
    4    -910.6165150794      4.78e-06  Convergence criterion met
 Total energy in the final basis set =     -910.6165150794

                    Orbital Energies (a.u.)
 --------------------------------------------------------------

 Alpha MOs
 -- Occupied --
-19.0751 -19.0751 -14.2951 -14.2951 -14.2951 -14.2950 -10.2274 -10.2274
-10.2042 -10.2042 -10.2042 -10.2042 -10.1710 -10.1710 -10.1706 -10.1706
-10.1612 -10.1612 -10.1606 -10.1606  -1.0047  -1.0020  -0.9107  -0.9049
 -0.8997  -0.8941  -0.8308  -0.8099  -0.7752  -0.7369  -0.7202  -0.7032
 -0.6594  -0.6320  -0.6297  -0.5757  -0.5555  -0.5551  -0.5322  -0.5116
 -0.5034  -0.4905  -0.4759  -0.4751  -0.4729  -0.4576  -0.4423  -0.4335
 -0.4303  -0.4247  -0.4067  -0.4048  -0.3883  -0.3865  -0.3812  -0.3806
 -0.3682  -0.3645  -0.3541  -0.3487  -0.3357  -0.3258  -0.2819  -0.2646
 -0.2586  -0.2461  -0.2447  -0.2347  -0.2029  -0.1819  -0.1282

 Beta MOs
 -- Occupied --
-19.0711 -19.0710 -14.2945 -14.2945 -14.2945 -14.2945 -10.2255 -10.2255
-10.2038 -10.2038 -10.2038 -10.2038 -10.1710 -10.1709 -10.1706 -10.1705
-10.1601 -10.1601 -10.1596 -10.1595  -0.9978  -0.9949  -0.9094  -0.9030
 -0.8986  -0.8925  -0.8286  -0.8084  -0.7715  -0.7353  -0.7166  -0.7012
 -0.6536  -0.6297  -0.6276  -0.5745  -0.5537  -0.5528  -0.5317  -0.5109
 -0.5025  -0.4891  -0.4749  -0.4739  -0.4702  -0.4567  -0.4411  -0.4322
 -0.4289  -0.4164  -0.4038  -0.4027  -0.3849  -0.3822  -0.3799  -0.3691
 -0.3657  -0.3631  -0.3476  -0.3418  -0.3321  -0.3166  -0.2730  -0.2595
 -0.2463  -0.2424  -0.2413  -0.2310  -0.1906  -0.1742

          Ground-State Mulliken Net Atomic Charges

     Atom                 Charge (a.u.)    Spin (a.u.)
  --------------------------------------------------------
      1 N                    -0.467861       0.024254
      2 C                    -0.175935       0.045040
      3 C                    -0.378750       0.085307
      4 C                    -0.380128       0.085104
      5 C                    -0.175051       0.045159
      6 N                    -0.467189       0.024303
      7 C                     0.534957      -0.011139
      8 C                    -0.599340       0.093371
      9 O                    -0.512865       0.138755
     10 C                     0.534145      -0.011165
     11 C                    -0.176368       0.045182
     12 N                    -0.467124       0.024324
     13 C                    -0.378887       0.085210
     14 C                    -0.379638       0.085239
     15 C                    -0.174861       0.045072
     16 N                    -0.467283       0.024317
     17 C                     0.534760      -0.011081
     18 C                    -0.600517       0.093148
     19 O                    -0.511962       0.138847
     20 C                     0.535182      -0.011001
     21 H                     0.329255      -0.002400
     22 H                     0.274085      -0.000728
     23 H                     0.190517      -0.006437
     24 H                     0.190589      -0.006425
     25 H                     0.273832      -0.000730
     26 H                     0.329168      -0.002400
     27 H                     0.273983      -0.000728
     28 H                     0.329186      -0.002401
     29 H                     0.190522      -0.006430
     30 H                     0.190588      -0.006434
     31 H                     0.329145      -0.002403
     32 H                     0.273847      -0.000732
  --------------------------------------------------------
  Sum of atomic charges =    -1.000000

                    Cartesian Multipole Moments
 -----------------------------------------------------------------
    Charge (ESU x 10^10)
                -4.8032
    Dipole Moment (Debye)
         X       0.0010      Y      -0.0070      Z      -0.0018
       Tot       0.0073
    Quadrupole Moments (Debye-Ang)
        XX    -107.9971     XY       0.0049     YY    -136.9469
        XZ       0.0086     YZ      -0.0001     ZZ    -131.2131

 Total job time:  209.06s(wall), 1128.56s(cpu)
        *  Thank you very much for using Q-Chem.  Have a nice day.  *
