 Gaussian 16, Revision A.03,
 Gaussian 16:  ES64L-G16RevA.03 25-Dec-2016

 ----------------------------------------------------------------
 #P UB3LYP/6-311++G(d,p) SCRF=(PCM,Solvent=n,n-DiMethylFormamide)
 ----------------------------------------------------------------

 -------
 Reduced
 -------
 Symbolic Z-matrix:
 Charge = -2 Multiplicity = 1

                         Standard orientation:
 ---------------------------------------------------------------------
 Center     Atomic      Atomic             Coordinates (Angstroms)
 Number     Number       Type             X           Y           Z
 ---------------------------------------------------------------------
      1          6           0       -5.802247    0.172039   -0.867921
      2          6           0       -6.465347   -1.036101   -0.959351
      3          6           0       -5.827308   -2.228109   -0.535639
      4          6           0       -4.482895    0.255913   -0.355281
      5          6           0       -3.831666   -0.957079    0.074289
      6          6           0       -4.536516   -2.170196   -0.032552
      7          6           0       -3.805490    1.515997   -0.262634
      8          6           0       -2.477611    1.474877    0.271122
      9          6           0       -1.816896    0.329477    0.700717
     10          6           0       -2.466076   -0.954160    0.615438
     11          8           0       -4.284727    2.668813   -0.612713
     12          8           0       -1.894735   -2.028558    0.993401
     13          1           0       -6.271632    1.097443   -1.186176
     14          1           0       -7.477497   -1.073261   -1.357007
     15          1           0       -6.346666   -3.180788   -0.606742
     16          1           0       -4.019847   -3.065565    0.298363
     17          8           0       -1.887942    2.715647    0.333612
     18          6           0       -0.421139    0.399066    1.267333
     19          6           0        0.691045    0.148383    0.228356
     20          6           0        2.101366    0.196338    0.830254
     21          6           0        3.228857   -0.036896   -0.184293
     22          6           0        4.636660    0.023109    0.423386
     23          1           0       -2.618907    3.271636   -0.031346
     24          1           0       -0.335254   -0.366601    2.046967
     25          1           0       -0.258865    1.381325    1.726403
     26          1           0        0.608485    0.896500   -0.569704
     27          1           0        0.517705   -0.831214   -0.230216
     28          1           0        2.175826   -0.554838    1.628558
     29          1           0        2.253821    1.171071    1.315408
     30          1           0        3.150854    0.709213   -0.986563
     31          1           0        3.083718   -1.013389   -0.665062
     32          1           0        4.715787   -0.724600    1.224081
     33          1           0        4.778210    0.998695    0.908065
     34          6           0        5.768380   -0.202668   -0.588224
     35          1           0        5.688227    0.542976   -1.390621
     36          1           0        5.631577   -1.179906   -1.070237
     37          6           0        7.173220   -0.134478    0.024441
     38          1           0        7.255913   -0.879965    0.826439
     39          1           0        7.311677    0.842351    0.506597
     40          6           0        8.306240   -0.358769   -0.985832
     41          6           0        9.706533   -0.290558   -0.368481
     42          1           0        8.226319    0.386663   -1.787486
     43          1           0        8.169526   -1.334863   -1.468758
     44          1           0        9.896526    0.687628    0.088330
     45          1           0       10.489963   -0.455440   -1.115878
     46          1           0        9.839122   -1.049376    0.411402
 ---------------------------------------------------------------------

 SCF Done:  E(UB3LYP) =  -964.686746084     A.U. after   17 cycles

 The electronic state is 1-A.
 Alpha  occ. eigenvalues --  -19.10815 -19.02155 -19.01367 -10.17145 -10.16831
 Alpha  occ. eigenvalues --  -10.15999 -10.15716 -10.15661 -10.15660 -10.15563
 Alpha  occ. eigenvalues --  -10.15393 -10.15387 -10.15068 -10.14519 -10.14458
 Alpha  occ. eigenvalues --  -10.14136 -10.14100 -10.14031 -10.13829 -10.13109
 Alpha  occ. eigenvalues --  -10.12719 -10.11899  -1.02250  -0.93711  -0.92829
 Alpha  occ. eigenvalues --   -0.82028  -0.80530  -0.78713  -0.76799  -0.74728
 Alpha  occ. eigenvalues --   -0.72056  -0.71773  -0.69230  -0.65916  -0.62931
 Alpha  occ. eigenvalues --   -0.61063  -0.58403  -0.57564  -0.57135  -0.56453
 Alpha  occ. eigenvalues --   -0.54985  -0.53068  -0.49894  -0.47851  -0.46727
 Alpha  occ. eigenvalues --   -0.45992  -0.44426  -0.43208  -0.42826  -0.42338
 Alpha  occ. eigenvalues --   -0.41810  -0.41184  -0.39912  -0.39752  -0.39557
 Alpha  occ. eigenvalues --   -0.38247  -0.38198  -0.36683  -0.36669  -0.35859
 Alpha  occ. eigenvalues --   -0.35290  -0.34658  -0.34401  -0.34310  -0.33630
 Alpha  occ. eigenvalues --   -0.33150  -0.32371  -0.32021  -0.31654  -0.31631
 Alpha  occ. eigenvalues --   -0.31414  -0.30764  -0.30626  -0.29939  -0.29382
 Alpha  occ. eigenvalues --   -0.28907  -0.22599  -0.22029  -0.21008  -0.19178
 Alpha  occ. eigenvalues --   -0.18769  -0.10187
 Alpha virt. eigenvalues --   -0.00253  -0.00122   0.00135   0.00823   0.01044
 Alpha virt. eigenvalues --    0.01164   0.01667   0.01938   0.02377   0.02484
 Alpha virt. eigenvalues --    0.02887   0.03171   0.04031   0.04215   0.04684

  Beta  occ. eigenvalues --  -19.10815 -19.02155 -19.01367 -10.17145 -10.16831
  Beta  occ. eigenvalues --  -10.15999 -10.15716 -10.15661 -10.15660 -10.15563
  Beta  occ. eigenvalues --  -10.15393 -10.15387 -10.15068 -10.14519 -10.14458
  Beta  occ. eigenvalues --  -10.14136 -10.14100 -10.14031 -10.13829 -10.13109
  Beta  occ. eigenvalues --  -10.12719 -10.11899  -1.02250  -0.93711  -0.92829
  Beta  occ. eigenvalues --   -0.82028  -0.80530  -0.78713  -0.76799  -0.74728
  Beta  occ. eigenvalues --   -0.72056  -0.71773  -0.69230  -0.65916  -0.62931
  Beta  occ. eigenvalues --   -0.61063  -0.58403  -0.57564  -0.57135  -0.56453
  Beta  occ. eigenvalues --   -0.54985  -0.53068  -0.49894  -0.47851  -0.46727
  Beta  occ. eigenvalues --   -0.45992  -0.44426  -0.43208  -0.42826  -0.42338
  Beta  occ. eigenvalues --   -0.41810  -0.41184  -0.39912  -0.39752  -0.39557
  Beta  occ. eigenvalues --   -0.38247  -0.38198  -0.36683  -0.36669  -0.35859
  Beta  occ. eigenvalues --   -0.35290  -0.34658  -0.34401  -0.34310  -0.33630
  Beta  occ. eigenvalues --   -0.33150  -0.32371  -0.32021  -0.31654  -0.31631
  Beta  occ. eigenvalues --   -0.31414  -0.30764  -0.30626  -0.29939  -0.29382
  Beta  occ. eigenvalues --   -0.28907  -0.22599  -0.22029  -0.21008  -0.19178
  Beta  occ. eigenvalues --   -0.18769  -0.10187
  Beta virt. eigenvalues --   -0.00253  -0.00122   0.00135   0.00823   0.01044
  Beta virt. eigenvalues --    0.01164   0.01667   0.01938   0.02377   0.02484
  Beta virt. eigenvalues --    0.02887   0.03171   0.04031   0.04215   0.04684

 Mulliken charges and spin densities:
               1          2
     1  C   -0.095581  -0.000000
     2  C   -0.384497   0.000000
     3  C   -0.507313  -0.000000
     4  C    0.524348  -0.000000
     5  C   -0.098727   0.000000
     6  C    0.010074   0.000000
     7  C   -1.015896   0.000000
     8  C   -0.653512   0.000000
     9  C    2.044424  -0.000000
    10  C   -0.758202   0.000000
    11  O   -0.730038  -0.000000
    12  O   -0.640779   0.000000
    13  H    0.139249   0.000000
    14  H    0.153037  -0.000000
    15  H    0.147167  -0.000000
    16  H    0.140703  -0.000000
    17  O   -0.338200  -0.000000
    18  C   -0.333530   0.000000
    19  C   -0.777452  -0.000000
    20  C   -0.209076   0.000000
    21  C    0.018158   0.000000
    22  C    0.019800   0.000000
    23  H    0.275880   0.000000
    24  H    0.173757  -0.000000
    25  H    0.200585  -0.000000
    26  H    0.152118  -0.000000
    27  H    0.177283  -0.000000
    28  H    0.110389  -0.000000
    29  H    0.103985  -0.000000
    30  H    0.122055  -0.000000
    31  H    0.122028  -0.000000
    32  H    0.130119  -0.000000
    33  H    0.128567  -0.000000
    34  C   -0.187801  -0.000000
    35  H    0.126735   0.000000
    36  H    0.127219   0.000000
    37  C   -0.391221  -0.000000
    38  H    0.123173   0.000000
    39  H    0.123109   0.000000
    40  C   -0.263071  -0.000000
    41  C   -0.697742   0.000000
    42  H    0.130854   0.000000
    43  H    0.130813   0.000000
    44  H    0.140311  -0.000000
    45  H    0.146439   0.000000
    46  H    0.140258  -0.000000
 Sum of Mulliken charges =  -2.00000   0.00000

 Dipole moment (field-independent basis, Debye):
    X=             30.7437    Y=             -2.1347    Z=             -1.4662  Tot=             30.8525
 Quadrupole moment (field-independent basis, Debye-Ang):
   XX=           -271.4374   YY=           -187.9778   ZZ=           -153.9027
   XY=             17.2115   XZ=             -5.3393   YZ=              9.2733

 Normal termination of Gaussian 16 at Sun Jan 21 09:14:36 2024.
