 Q-Chem 5.4, Q-Chem, Inc., Pleasanton, CA (2021)
 Q-Chem 5.4.0 for Intel X86 EM64T Linux

User input:
--------------------------------------------------------------
$molecule
0 1
C                 -7.1499260000      3.9330100000      0.8787830000
C                 -8.1278190000      3.1966280000      0.2172520000
C                 -7.7926660000      2.4483360000     -0.9127020000
C                 -5.8350700000      3.9188230000      0.4071860000
C                 -5.4948220000      3.1671860000     -0.7294720000
C                 -6.4816210000      2.4332700000     -1.3853200000
C                 -4.7875750000      4.6938820000      1.0965090000
C                 -3.3992060000      4.6405330000      0.5548230000
C                 -3.0484680000      3.9308780000     -0.5459490000
C                 -4.0841920000      3.1440780000     -1.2478500000
O                 -4.9858240000      5.3824770000      2.0913110000
O                 -3.8067950000      2.4833300000     -2.2391590000
O                 -2.5139620000      5.3699840000      1.2534030000
C                 -1.6379050000      3.8873260000     -1.0624860000
C                 -0.8283800000      2.7029880000     -0.4918380000
C                  0.6062960000      2.6603610000     -1.0277070000
C                  1.4284140000      1.4934550000     -0.4691350000
C                  2.8656970000      1.4479560000     -1.0002370000
C                  3.6887560000      0.2806730000     -0.4437030000
C                  5.1257710000      0.2355470000     -0.9752140000
C                  5.9485760000     -0.9321060000     -0.4185330000
C                  7.3859480000     -0.9686790000     -0.9542430000
C                  8.1939260000     -2.1375000000     -0.3892710000
S                  9.9033860000     -2.1281110000     -1.0627980000
C                 10.5857090000     -3.6059070000     -0.2107650000
C                 12.0453660000     -3.8304790000     -0.6070110000
C                 12.6611290000     -5.0552340000      0.0822190000
C                 14.1254210000     -5.2940940000     -0.3039480000
C                 14.7482410000     -6.5152170000      0.3819760000
C                 16.2126430000     -6.7547650000     -0.0026660000
C                 16.8367040000     -7.9751140000      0.6836850000
C                 18.3010940000     -8.2146910000      0.2997690000
C                 18.9265220000     -9.4345670000      0.9858190000
C                 20.3895200000     -9.6654000000      0.5961140000
H                 -7.3855500000      4.5215020000      1.7570430000
H                 -9.1491290000      3.2045870000      0.5799620000
H                 -8.5559940000      1.8751990000     -1.4266740000
H                 -6.2047200000      1.8584970000     -2.2603410000
H                 -3.0193460000      5.7877590000      1.9765680000
H                 -1.1346480000      4.8238150000     -0.8087230000
H                 -1.6703210000      3.8016420000     -2.1514480000
H                 -1.3410100000      1.7679060000     -0.7411370000
H                 -0.8099550000      2.7745050000      0.6015890000
H                  1.1104790000      3.6057360000     -0.7891690000
H                  0.5807790000      2.5947620000     -2.1227990000
H                  0.9239070000      0.5486790000     -0.7089400000
H                  1.4495630000      1.5575380000      0.6264930000
H                  3.3700720000      2.3929120000     -0.7602410000
H                  2.8443280000      1.3852210000     -2.0958710000
H                  3.1842770000     -0.6642060000     -0.6839070000
H                  3.7100650000      0.3432610000      0.6520700000
H                  5.6305130000      1.1800120000     -0.7348240000
H                  5.1048020000      0.1727540000     -2.0707180000
H                  5.4458370000     -1.8770570000     -0.6609430000
H                  5.9703090000     -0.8694720000      0.6769560000
H                  7.8911480000     -0.0276350000     -0.7092950000
H                  7.3668120000     -1.0368610000     -2.0477520000
H                  7.7211460000     -3.0889800000     -0.6503430000
H                  8.2484790000     -2.0708740000      0.7014150000
H                  9.9794690000     -4.4756310000     -0.4810420000
H                 10.5033940000     -3.4545570000      0.8696660000
H                 12.6297860000     -2.9379750000     -0.3566370000
H                 12.1109920000     -3.9513010000     -1.6941570000
H                 12.0714970000     -5.9470020000     -0.1658990000
H                 12.5892830000     -4.9342740000      1.1706560000
H                 14.7141110000     -4.4010980000     -0.0578430000
H                 14.1970010000     -5.4143950000     -1.3925080000
H                 14.1590970000     -7.4081860000      0.1357780000
H                 14.6755800000     -6.3947110000      1.4706920000
H                 16.8014890000     -5.8614530000      0.2428140000
H                 16.2852940000     -6.8756740000     -1.0912900000
H                 16.2479510000     -8.8685500000      0.4380190000
H                 16.7637480000     -7.8541790000      1.7723830000
H                 18.8907610000     -7.3216420000      0.5451760000
H                 18.3750860000     -8.3363010000     -0.7889000000
H                 18.3382640000    -10.3272080000      0.7401790000
H                 18.8534040000     -9.3131950000      2.0735320000
H                 20.4911710000     -9.8253100000     -0.4820440000
H                 20.8051140000    -10.5414750000      1.1018830000
H                 21.0102060000     -8.8035630000      0.8612810000
$end
$rem
MAX_SCF_CYCLES=200
BASIS  =  6-311++G(d,p)
GUI  =  2
JOB_TYPE  =  SP
METHOD  =  B3LYP
SCF_ALGORITHM = RCA_DIIS
THRESH = 14
SCF_CONVERGENCE = 8
scf_guess = GWH
SOLVENT_METHOD = PCM
$end
$pcm
theory = CPCM
$end
$solvent
dielectric 37.219
opticaldielectric 1.43
$end

--------------------------------------------------------------

             Standard Nuclear Orientation (Angstroms)
    I     Atom           X                Y                Z
 ----------------------------------------------------------------
    1      C      -7.1499260000     3.9330100000     0.8787830000
    2      C      -8.1278190000     3.1966280000     0.2172520000
    3      C      -7.7926660000     2.4483360000    -0.9127020000
    4      C      -5.8350700000     3.9188230000     0.4071860000
    5      C      -5.4948220000     3.1671860000    -0.7294720000
    6      C      -6.4816210000     2.4332700000    -1.3853200000
    7      C      -4.7875750000     4.6938820000     1.0965090000
    8      C      -3.3992060000     4.6405330000     0.5548230000
    9      C      -3.0484680000     3.9308780000    -0.5459490000
   10      C      -4.0841920000     3.1440780000    -1.2478500000
   11      O      -4.9858240000     5.3824770000     2.0913110000
   12      O      -3.8067950000     2.4833300000    -2.2391590000
   13      O      -2.5139620000     5.3699840000     1.2534030000
   14      C      -1.6379050000     3.8873260000    -1.0624860000
   15      C      -0.8283800000     2.7029880000    -0.4918380000
   16      C       0.6062960000     2.6603610000    -1.0277070000
   17      C       1.4284140000     1.4934550000    -0.4691350000
   18      C       2.8656970000     1.4479560000    -1.0002370000
   19      C       3.6887560000     0.2806730000    -0.4437030000
   20      C       5.1257710000     0.2355470000    -0.9752140000
   21      C       5.9485760000    -0.9321060000    -0.4185330000
   22      C       7.3859480000    -0.9686790000    -0.9542430000
   23      C       8.1939260000    -2.1375000000    -0.3892710000
   24      S       9.9033860000    -2.1281110000    -1.0627980000
   25      C      10.5857090000    -3.6059070000    -0.2107650000
   26      C      12.0453660000    -3.8304790000    -0.6070110000
   27      C      12.6611290000    -5.0552340000     0.0822190000
   28      C      14.1254210000    -5.2940940000    -0.3039480000
   29      C      14.7482410000    -6.5152170000     0.3819760000
   30      C      16.2126430000    -6.7547650000    -0.0026660000
   31      C      16.8367040000    -7.9751140000     0.6836850000
   32      C      18.3010940000    -8.2146910000     0.2997690000
   33      C      18.9265220000    -9.4345670000     0.9858190000
   34      C      20.3895200000    -9.6654000000     0.5961140000
   35      H      -7.3855500000     4.5215020000     1.7570430000
   36      H      -9.1491290000     3.2045870000     0.5799620000
   37      H      -8.5559940000     1.8751990000    -1.4266740000
   38      H      -6.2047200000     1.8584970000    -2.2603410000
   39      H      -3.0193460000     5.7877590000     1.9765680000
   40      H      -1.1346480000     4.8238150000    -0.8087230000
   41      H      -1.6703210000     3.8016420000    -2.1514480000
   42      H      -1.3410100000     1.7679060000    -0.7411370000
   43      H      -0.8099550000     2.7745050000     0.6015890000
   44      H       1.1104790000     3.6057360000    -0.7891690000
   45      H       0.5807790000     2.5947620000    -2.1227990000
   46      H       0.9239070000     0.5486790000    -0.7089400000
   47      H       1.4495630000     1.5575380000     0.6264930000
   48      H       3.3700720000     2.3929120000    -0.7602410000
   49      H       2.8443280000     1.3852210000    -2.0958710000
   50      H       3.1842770000    -0.6642060000    -0.6839070000
   51      H       3.7100650000     0.3432610000     0.6520700000
   52      H       5.6305130000     1.1800120000    -0.7348240000
   53      H       5.1048020000     0.1727540000    -2.0707180000
   54      H       5.4458370000    -1.8770570000    -0.6609430000
   55      H       5.9703090000    -0.8694720000     0.6769560000
   56      H       7.8911480000    -0.0276350000    -0.7092950000
   57      H       7.3668120000    -1.0368610000    -2.0477520000
   58      H       7.7211460000    -3.0889800000    -0.6503430000
   59      H       8.2484790000    -2.0708740000     0.7014150000
   60      H       9.9794690000    -4.4756310000    -0.4810420000
   61      H      10.5033940000    -3.4545570000     0.8696660000
   62      H      12.6297860000    -2.9379750000    -0.3566370000
   63      H      12.1109920000    -3.9513010000    -1.6941570000
   64      H      12.0714970000    -5.9470020000    -0.1658990000
   65      H      12.5892830000    -4.9342740000     1.1706560000
   66      H      14.7141110000    -4.4010980000    -0.0578430000
   67      H      14.1970010000    -5.4143950000    -1.3925080000
   68      H      14.1590970000    -7.4081860000     0.1357780000
   69      H      14.6755800000    -6.3947110000     1.4706920000
   70      H      16.8014890000    -5.8614530000     0.2428140000
   71      H      16.2852940000    -6.8756740000    -1.0912900000
   72      H      16.2479510000    -8.8685500000     0.4380190000
   73      H      16.7637480000    -7.8541790000     1.7723830000
   74      H      18.8907610000    -7.3216420000     0.5451760000
   75      H      18.3750860000    -8.3363010000    -0.7889000000
   76      H      18.3382640000   -10.3272080000     0.7401790000
   77      H      18.8534040000    -9.3131950000     2.0735320000
   78      H      20.4911710000    -9.8253100000    -0.4820440000
   79      H      20.8051140000   -10.5414750000     1.1018830000
   80      H      21.0102060000    -8.8035630000     0.8612810000
 ----------------------------------------------------------------

   96   -1795.2432563435      4.22E-09 Convergence criterion met
 Total energy in the final basis set = -1795.24325634

                    Orbital Energies (a.u.)
 --------------------------------------------------------------

 Alpha MOs
 -- Occupied --
-88.8348 -19.1779 -19.1495 -19.1299 -10.2934 -10.2811 -10.2668 -10.2104
-10.2092 -10.2032 -10.2004 -10.1984 -10.1968 -10.1967 -10.1914 -10.1914
-10.1748 -10.1666 -10.1666 -10.1654 -10.1607 -10.1607 -10.1591 -10.1583
-10.1577 -10.1576 -10.1573 -10.1567 -10.1565 -10.1565 -10.1560 -10.1559
-10.1557 -10.1520  -7.9212  -5.8849  -5.8817  -5.8749  -1.1081  -1.0671
 -1.0636  -0.8923  -0.8435  -0.8215  -0.8117  -0.8067  -0.7997  -0.7905
 -0.7806  -0.7791  -0.7685  -0.7526  -0.7373  -0.7189  -0.7024  -0.6886
 -0.6724  -0.6567  -0.6484  -0.6321  -0.6159  -0.6048  -0.5982  -0.5842
 -0.5797  -0.5781  -0.5737  -0.5725  -0.5710  -0.5706  -0.5678  -0.5422
 -0.5183  -0.4974  -0.4861  -0.4840  -0.4787  -0.4744  -0.4720  -0.4705
 -0.4679  -0.4570  -0.4521  -0.4512  -0.4444  -0.4395  -0.4348  -0.4303
 -0.4273  -0.4256  -0.4240  -0.4203  -0.4194  -0.4120  -0.4092  -0.4044
 -0.3987  -0.3955  -0.3919  -0.3895  -0.3854  -0.3792  -0.3773  -0.3722
 -0.3694  -0.3648  -0.3639  -0.3595  -0.3559  -0.3469  -0.3416  -0.3412
 -0.3376  -0.3327  -0.3303  -0.3272  -0.3268  -0.3244  -0.3217  -0.3202
 -0.3198  -0.3179  -0.3173  -0.3163  -0.3110  -0.3048  -0.3012  -0.2927
 -0.2893  -0.2800  -0.2794  -0.2560  -0.2257

          Ground-State Mulliken Net Atomic Charges

     Atom                 Charge (a.u.)
  ----------------------------------------
      1 C                     0.155977
      2 C                    -0.396859
      3 C                    -0.414731
      4 C                     0.506997
      5 C                    -0.136227
      6 C                     0.160608
      7 C                    -0.778236
      8 C                    -0.447878
      9 C                     1.833455
     10 C                    -0.747003
     11 O                    -0.323414
     12 O                    -0.294193
     13 O                    -0.235281
     14 C                    -0.361755
     15 C                    -0.735245
     16 C                    -0.280834
     17 C                    -0.098760
     18 C                    -0.102685
     19 C                    -0.273820
     20 C                    -0.118139
     21 C                    -0.346166
     22 C                    -0.210507
     23 C                    -0.817953
     24 S                    -0.420488
     25 C                    -0.732969
     26 C                    -0.006854
     27 C                     0.017719
     28 C                     0.014791
     29 C                     0.027346
     30 C                    -0.000122
     31 C                    -0.270098
     32 C                    -0.463907
     33 C                    -0.287442
     34 C                    -0.709277
     35 H                     0.203200
     36 H                     0.227187
     37 H                     0.223264
     38 H                     0.201646
     39 H                     0.321550
     40 H                     0.239375
     41 H                     0.223929
     42 H                     0.184079
     43 H                     0.184005
     44 H                     0.123967
     45 H                     0.127563
     46 H                     0.133143
     47 H                     0.132773
     48 H                     0.137456
     49 H                     0.137798
     50 H                     0.135594
     51 H                     0.135946
     52 H                     0.137593
     53 H                     0.137709
     54 H                     0.145113
     55 H                     0.145084
     56 H                     0.132867
     57 H                     0.133385
     58 H                     0.191891
     59 H                     0.191652
     60 H                     0.200677
     61 H                     0.200765
     62 H                     0.137888
     63 H                     0.138054
     64 H                     0.143465
     65 H                     0.142869
     66 H                     0.137754
     67 H                     0.137595
     68 H                     0.133565
     69 H                     0.133147
     70 H                     0.132937
     71 H                     0.132712
     72 H                     0.132663
     73 H                     0.132297
     74 H                     0.129155
     75 H                     0.128902
     76 H                     0.135436
     77 H                     0.135222
     78 H                     0.144627
     79 H                     0.151783
     80 H                     0.144671
  ----------------------------------------
  Sum of atomic charges =     0.000000

                    Cartesian Multipole Moments
 -----------------------------------------------------------------
    Charge (ESU x 10^10)
                 0.0000
    Dipole Moment (Debye)
         X      -3.9991      Y      -1.7766      Z       2.6471
       Tot       5.1143
    Quadrupole Moments (Debye-Ang)
        XX    -199.2450     XY     -19.1307     YY    -216.9387
        XZ      16.8142     YZ      -1.1563     ZZ    -231.8310

 Total job time:  6513.26s(wall), 37157.94s(cpu)
        *  Thank you very much for using Q-Chem.  Have a nice day.  *
