 Q-Chem 5.4, Q-Chem, Inc., Pleasanton, CA (2021)
 Q-Chem 5.4.0 for Intel X86 EM64T Linux

User input:
--------------------------------------------------------------
$molecule
-2 1
C                  0.2351460000      1.6921070000     -1.6391620000
C                 -1.1987230000      1.8038750000     -1.4530120000
C                 -2.0711420000      0.7667580000     -1.6706050000
C                 -1.6562370000     -0.5613280000     -2.0934550000
C                 -0.2559710000     -0.6927100000     -2.2367370000
C                  0.6899000000      0.3458910000     -1.9785570000
O                  0.9799600000      2.7234470000     -1.5545200000
O                 -2.5245710000     -1.4996990000     -2.2864240000
C                  3.1911950000      0.8038570000     -1.4460380000
C                  4.4631160000      0.8558630000     -2.0352170000
C                  3.0464440000      1.3312460000     -0.1548280000
C                  4.1323730000      1.8789360000      0.5220770000
C                  5.5492270000      1.4284750000     -1.3718580000
C                  5.3936360000      1.9393400000     -0.0834940000
H                 -1.5617310000      2.7898540000     -1.1643640000
H                 -3.1432480000      0.9134180000     -1.5300700000
H                  0.1357980000     -1.6615700000     -2.5295540000
H                  4.5817960000      0.4190190000     -3.0203490000
H                  2.0685590000      1.3084530000      0.3082930000
H                  3.9955830000      2.2729580000      1.5259900000
H                  6.5244350000      1.4634010000     -1.8544320000
H                  6.2420870000      2.3683800000      0.4456660000
C                  2.0969640000      0.0266190000     -2.1539330000
O                  2.5009210000     -0.9516900000     -2.8252610000
$end

$rem
BASIS  =  6-311++G(d,p)
GUI  =  2
JOB_TYPE  =  SP
METHOD  =  B3LYP
SCF_CONVERGENCE  = 8
SOLVENT_METHOD = sm12
$end

$smx
solvent dimethylformamide
charges CM5
$end

--------------------------------------------------------------

             Standard Nuclear Orientation (Angstroms)
    I     Atom           X                Y                Z
 ----------------------------------------------------------------
    1      C       0.2351460000     1.6921070000    -1.6391620000
    2      C      -1.1987230000     1.8038750000    -1.4530120000
    3      C      -2.0711420000     0.7667580000    -1.6706050000
    4      C      -1.6562370000    -0.5613280000    -2.0934550000
    5      C      -0.2559710000    -0.6927100000    -2.2367370000
    6      C       0.6899000000     0.3458910000    -1.9785570000
    7      O       0.9799600000     2.7234470000    -1.5545200000
    8      O      -2.5245710000    -1.4996990000    -2.2864240000
    9      C       3.1911950000     0.8038570000    -1.4460380000
   10      C       4.4631160000     0.8558630000    -2.0352170000
   11      C       3.0464440000     1.3312460000    -0.1548280000
   12      C       4.1323730000     1.8789360000     0.5220770000
   13      C       5.5492270000     1.4284750000    -1.3718580000
   14      C       5.3936360000     1.9393400000    -0.0834940000
   15      H      -1.5617310000     2.7898540000    -1.1643640000
   16      H      -3.1432480000     0.9134180000    -1.5300700000
   17      H       0.1357980000    -1.6615700000    -2.5295540000
   18      H       4.5817960000     0.4190190000    -3.0203490000
   19      H       2.0685590000     1.3084530000     0.3082930000
   20      H       3.9955830000     2.2729580000     1.5259900000
   21      H       6.5244350000     1.4634010000    -1.8544320000
   22      H       6.2420870000     2.3683800000     0.4456660000
   23      C       2.0969640000     0.0266190000    -2.1539330000
   24      O       2.5009210000    -0.9516900000    -2.8252610000
 ----------------------------------------------------------------

   19    -726.0283630955      1.99e-09  Convergence criterion met
 Total energy in the final basis set =     -726.3184962176

                    Orbital Energies (a.u.)
 --------------------------------------------------------------

 Alpha MOs
 -- Occupied --
-19.0825 -19.0400 -19.0226 -10.2358 -10.2045 -10.1868 -10.1866 -10.1862
-10.1849 -10.1837 -10.1821 -10.1809 -10.1616 -10.1561 -10.1480 -10.1339
 -1.0056  -0.9615  -0.9353  -0.8637  -0.7998  -0.7650  -0.7546  -0.7328
 -0.6704  -0.6362  -0.6141  -0.5960  -0.5630  -0.5433  -0.5033  -0.4670
 -0.4598  -0.4528  -0.4480  -0.4336  -0.4296  -0.4163  -0.4035  -0.3901
 -0.3772  -0.3691  -0.3645  -0.3528  -0.3514  -0.3424  -0.3357  -0.3251
 -0.2653  -0.2646  -0.2478  -0.2389  -0.2312  -0.2078  -0.1988  -0.1354

          Ground-State Mulliken Net Atomic Charges

     Atom                 Charge (a.u.)
  ----------------------------------------
      1 C                    -1.336973
      2 C                     0.060980
      3 C                    -0.098897
      4 C                    -1.644537
      5 C                    -1.575334
      6 C                    -0.789677
      7 O                    -0.237528
      8 O                    -0.442402
      9 C                     0.640269
     10 C                     0.420627
     11 C                    -1.166794
     12 C                     0.531162
     13 C                     1.756198
     14 C                     2.300109
     15 H                     0.179805
     16 H                     0.140035
     17 H                    -0.081940
     18 H                     0.229833
     19 H                     0.024220
     20 H                     0.354349
     21 H                     0.393930
     22 H                     0.474742
     23 C                    -1.952196
     24 O                    -0.179980
  ----------------------------------------
  Sum of atomic charges =    -2.000000

                    Cartesian Multipole Moments
 -----------------------------------------------------------------
    Charge (ESU x 10^10)
                -9.6064
    Dipole Moment (Debye)
         X       1.4139      Y      -0.9107      Z      19.9976
       Tot      20.0682
    Quadrupole Moments (Debye-Ang)
        XX    -148.0611     XY     -14.5043     YY    -139.4314
        XZ      -4.9221     YZ      -4.4974     ZZ    -145.2758

 Total job time:  541.05s(wall), 4057.33s(cpu)
        *  Thank you very much for using Q-Chem.  Have a nice day.  *
