 Gaussian 16, Revision A.03,
 Gaussian 16:  ES64L-G16RevA.03 25-Dec-2016

 ----------------------------------------------------------------------
 #P UB3LYP/6-311++G(d,p) nosym opt freq SCRF=(PCM,Solvent=n,n-DiMethylF
 ormamide)
 ----------------------------------------------------------------------

 -------
 Radical
 -------
 Symbolic Z-matrix:
 Charge = -1 Multiplicity = 2

 SCF Done:  E(UB3LYP) =  -3414.89498809     A.U. after   21 cycles
 SCF Done:  E(UB3LYP) =  -3414.89513129     A.U. after   14 cycles
 SCF Done:  E(UB3LYP) =  -3414.89515995     A.U. after   13 cycles
 SCF Done:  E(UB3LYP) =  -3414.89516008     A.U. after   11 cycles
 Optimization completed.
    -- Stationary point found.
 Normal termination of Gaussian 16 at Sat Feb 10 10:05:49 2024.

 ----------------------------------------------------------------------
 #P Geom=AllCheck Guess=TCheck SCRF=Check GenChk UB3LYP/6-311++G(d,p) F
 req
 ----------------------------------------------------------------------

 Structure from the checkpoint file:  "008-rad.chk"
 -------
 Radical
 -------
 Charge = -1 Multiplicity = 2

                          Input orientation:
 ---------------------------------------------------------------------
 Center     Atomic      Atomic             Coordinates (Angstroms)
 Number     Number       Type             X           Y           Z
 ---------------------------------------------------------------------
      1          6           0       -1.299040    2.054917    0.563503
      2          6           0       -2.554922    1.402263    0.223380
      3          6           0       -2.656862    0.147681   -0.302765
      4          6           0       -1.479480   -0.650959   -0.568864
      5          6           0       -0.208971   -0.042747   -0.243406
      6          6           0       -0.142257    1.214164    0.281757
      7          8           0       -1.559435   -1.815924   -1.054921
      8          1           0       -3.620428   -0.287775   -0.537002
      9          8           0       -1.214374    3.208680    1.046009
     10         17           0        1.436869    1.906432    0.660562
     11         35           0       -4.160863    2.413063    0.554420
     12          1           0        0.690076   -0.617425   -0.430004
 ---------------------------------------------------------------------

 SCF Done:  E(UB3LYP) =  -3414.89516008     A.U. after    1 cycles

 Alpha  occ. eigenvalues -- -482.82961-101.55433 -62.48239 -56.30265 -56.29901
 Alpha  occ. eigenvalues --  -56.29874 -19.09478 -19.09084 -10.24803 -10.23754
 Alpha  occ. eigenvalues --  -10.23660 -10.23075 -10.18200 -10.18122  -9.46884
 Alpha  occ. eigenvalues --   -8.69201  -7.23321  -7.22401  -7.22331  -6.52309
 Alpha  occ. eigenvalues --   -6.51092  -6.51018  -2.63409  -2.63071  -2.63016
 Alpha  occ. eigenvalues --   -2.62047  -2.62047  -1.02250  -1.01086  -0.87993
 Alpha  occ. eigenvalues --   -0.84405  -0.78957  -0.73198  -0.69775  -0.60158
 Alpha  occ. eigenvalues --   -0.58124  -0.50376  -0.48641  -0.45237  -0.43568
 Alpha  occ. eigenvalues --   -0.42810  -0.42101  -0.39902  -0.39213  -0.37874
 Alpha  occ. eigenvalues --   -0.35743  -0.32747  -0.31848  -0.29369  -0.28297
 Alpha  occ. eigenvalues --   -0.26256  -0.25533  -0.25364  -0.17875
 Alpha virt. eigenvalues --   -0.02765  -0.02080   0.00197   0.01424   0.01590
 Alpha virt. eigenvalues --    0.01817   0.02470   0.04258   0.04510   0.05478
 Alpha virt. eigenvalues --    0.06378   0.06875   0.07737   0.08183   0.08338

  Beta  occ. eigenvalues -- -482.82961-101.55431 -62.48239 -56.30267 -56.29898
  Beta  occ. eigenvalues --  -56.29874 -19.08782 -19.08345 -10.24661 -10.23654
  Beta  occ. eigenvalues --  -10.23558 -10.22979 -10.18064 -10.18000  -9.46882
  Beta  occ. eigenvalues --   -8.69201  -7.23325  -7.22388  -7.22330  -6.52312
  Beta  occ. eigenvalues --   -6.51087  -6.51018  -2.63410  -2.63070  -2.63018
  Beta  occ. eigenvalues --   -2.62044  -2.62044  -1.01058  -0.99796  -0.87688
  Beta  occ. eigenvalues --   -0.84098  -0.78700  -0.72961  -0.68731  -0.59745
  Beta  occ. eigenvalues --   -0.57697  -0.50153  -0.48202  -0.44950  -0.42591
  Beta  occ. eigenvalues --   -0.41895  -0.41509  -0.39443  -0.37675  -0.36444
  Beta  occ. eigenvalues --   -0.35217  -0.31804  -0.31405  -0.29325  -0.25706
  Beta  occ. eigenvalues --   -0.25603  -0.24888  -0.24705
  Beta virt. eigenvalues --   -0.10618  -0.01952  -0.01322   0.00230   0.01617
  Beta virt. eigenvalues --    0.01853   0.02522   0.03660   0.04536   0.04554
  Beta virt. eigenvalues --    0.05525   0.06419   0.06987   0.07752   0.08221

 Mulliken charges and spin densities:
               1          2
     1  C   -1.491975   0.037890
     2  C    0.669060   0.097214
     3  C   -0.024646   0.082932
     4  C   -0.609316   0.118366
     5  C   -0.423982   0.076249
     6  C    1.245148   0.084182
     7  O   -0.478076   0.258138
     8  H    0.239964  -0.008392
     9  O   -0.377979   0.254432
    10  Cl   0.204762   0.002202
    11  Br  -0.154700   0.003967
    12  H    0.201741  -0.007180
 Sum of Mulliken charges =  -1.00000   1.00000

 Dipole moment (field-independent basis, Debye):
    X=              6.6126    Y=             -5.3609    Z=             -0.8203  Tot=              8.5521
 Quadrupole moment (field-independent basis, Debye-Ang):
   XX=            -95.0791   YY=           -118.9345   ZZ=            -85.8287
   XY=              5.3265   XZ=             -0.0656   YZ=            -14.7258

  Exact polarizability: 197.767  -4.924 231.813   4.316  60.409 110.758
 Approx polarizability: 201.363  -0.679 271.790   5.625  72.588 127.092

                      1                      2                      3
                      A                      A                      A
 Frequencies --     83.5073               154.0224               158.1826
 Red. masses --     17.6581                11.0824                22.4269
 Frc consts  --      0.0726                 0.1549                 0.3306
 IR Inten    --      8.1633                11.3870                 2.3197

                      4                      5                      6
                      A                      A                      A
 Frequencies --    189.9046               238.1640               272.5945
 Red. masses --      5.0962                18.0891                17.7512
 Frc consts  --      0.1083                 0.6045                 0.7772
 IR Inten    --      0.4221                 0.1028                 0.2907

                      7                      8                      9
                      A                      A                      A
 Frequencies --    335.5512               346.1603               444.3283
 Red. masses --      6.6012                19.8268                 8.3315
 Frc consts  --      0.4379                 1.3998                 0.9691
 IR Inten    --      0.6955                 1.6223                33.4851

                     10                     11                     12
                      A                      A                      A
 Frequencies --    470.8675               487.9701               621.9955
 Red. masses --      5.3322                13.0749                 6.0886
 Frc consts  --      0.6966                 1.8343                 1.3878
 IR Inten    --      0.0858                 0.3727                11.2038

                     13                     14                     15
                      A                      A                      A
 Frequencies --    637.4231               726.1897               747.5726
 Red. masses --      3.0353                11.0493                 9.0300
 Frc consts  --      0.7266                 3.4331                 2.9734
 IR Inten    --      0.6781               164.5676                 6.7354

                     16                     17                     18
                      A                      A                      A
 Frequencies --    815.5997               854.4725               871.6679
 Red. masses --      6.8027                 1.3287                 1.6560
 Frc consts  --      2.6662                 0.5716                 0.7413
 IR Inten    --     95.5759                 0.0712                73.1174

                     19                     20                     21
                      A                      A                      A
 Frequencies --    908.1062              1012.9135              1124.7318
 Red. masses --      6.8355                 2.9812                 4.0981
 Frc consts  --      3.3212                 1.8021                 3.0544
 IR Inten    --     65.5431               217.9954                65.7904

                     22                     23                     24
                      A                      A                      A
 Frequencies --   1234.8049              1300.0952              1382.2477
 Red. masses --      1.7719                 1.7392                 6.1589
 Frc consts  --      1.5918                 1.7320                 6.9330
 IR Inten    --     11.0804                 0.3811               160.8547

                     25                     26                     27
                      A                      A                      A
 Frequencies --   1482.5214              1496.4527              1525.1850
 Red. masses --      6.1906                10.3905                10.3389
 Frc consts  --      8.0166                13.7092                14.1700
 IR Inten    --      3.5144               535.8224               841.1204

                     28                     29                     30
                      A                      A                      A
 Frequencies --   1618.4377              3190.4137              3191.2652
 Red. masses --      8.1892                 1.0917                 1.0917
 Frc consts  --     12.6381                 6.5473                 6.5504
 IR Inten    --     31.0287                 1.5936                 8.2231

 - Thermochemistry -
 -------------------
 Temperature   298.150 Kelvin.  Pressure   1.00000 Atm.
 Atom     1 has atomic number  6 and mass  12.00000

 Molecular mass:   219.89267 amu.
 Principal axes and moments of inertia in atomic units:
                           1         2         3
     Eigenvalues --  1552.114103380.167744932.27842
           X            0.95616   0.28819  -0.05197
           Y           -0.28560   0.87854  -0.38287
           Z           -0.06468   0.38093   0.92234
 This molecule is an asymmetric top.
 Rotational symmetry number  1.
 Warning -- assumption of classical behavior for rotation
           may cause significant error
 Rotational temperatures (Kelvin)      0.05580     0.02562     0.01756
 Rotational constants (GHZ):           1.16276     0.53392     0.36590
 Zero-point vibrational energy     167018.7 (Joules/Mol)
                                   39.91843 (Kcal/Mol)
 Warning -- explicit consideration of  11 degrees of freedom as
           vibrations may cause significant error
 Vibrational temperatures:    120.15   221.60   227.59   273.23   342.66
          (Kelvin)            392.20   482.78   498.05   639.29   677.47
                              702.08   894.91   917.11  1044.83  1075.59
                             1173.47  1229.40  1254.14  1306.56  1457.36
                             1618.24  1776.61  1870.55  1988.75  2133.02
                             2153.06  2194.40  2328.57  4590.29  4591.52

 Zero-point correction=                           0.063614 (Hartree/Particle)
 Thermal correction to Energy=                    0.072352
 Thermal correction to Enthalpy=                  0.073296
 Thermal correction to Gibbs Free Energy=         0.027395
 Sum of electronic and zero-point Energies=          -3414.831546
 Sum of electronic and thermal Energies=             -3414.822808
 Sum of electronic and thermal Enthalpies=           -3414.821864
 Sum of electronic and thermal Free Energies=        -3414.867765

                     E (Thermal)             CV                S
                      KCal/Mol        Cal/Mol-Kelvin    Cal/Mol-Kelvin
 Total                   45.401             31.245             96.607
 Electronic               0.000              0.000              1.377
 Translational            0.889              2.981             42.067
 Rotational               0.889              2.981             31.626
 Vibrational             43.624             25.284             21.537
 Vibration     1          0.600              1.961              3.807
 Vibration     2          0.620              1.898              2.622
 Vibration     3          0.621              1.893              2.571
 Vibration     4          0.633              1.854              2.229
 Vibration     5          0.656              1.782              1.817
 Vibration     6          0.676              1.724              1.580
 Vibration     7          0.717              1.605              1.233
 Vibration     8          0.724              1.583              1.184
 Vibration     9          0.804              1.373              0.813
 Vibration    10          0.828              1.315              0.735
 Vibration    11          0.844              1.277              0.689

                           ! Non-Optimized Parameters !
 Normal termination of Gaussian 16 at Sat Feb 10 10:10:59 2024.
