 Gaussian 16, Revision A.03,
 Gaussian 16:  ES64L-G16RevA.03 25-Dec-2016

 --------------------------------------
 #P UB3LYP/6-311++G(d,p) nosym opt freq
 --------------------------------------

 -------
 Radical
 -------
 Symbolic Z-matrix:
 Charge = -1 Multiplicity = 2

 SCF Done:  E(UB3LYP) =  -1219.12978934     A.U. after   22 cycles
 SCF Done:  E(UB3LYP) =  -1219.14728488     A.U. after   19 cycles
 SCF Done:  E(UB3LYP) =  -1219.14658125     A.U. after   18 cycles
 SCF Done:  E(UB3LYP) =  -1219.14959593     A.U. after   17 cycles
 SCF Done:  E(UB3LYP) =  -1219.15024624     A.U. after   17 cycles
 SCF Done:  E(UB3LYP) =  -1219.15047199     A.U. after   18 cycles
 SCF Done:  E(UB3LYP) =  -1219.15052030     A.U. after   17 cycles
 SCF Done:  E(UB3LYP) =  -1219.15082270     A.U. after   15 cycles
 SCF Done:  E(UB3LYP) =  -1219.15088172     A.U. after   16 cycles
 SCF Done:  E(UB3LYP) =  -1219.15091426     A.U. after   15 cycles
 SCF Done:  E(UB3LYP) =  -1219.15092758     A.U. after   14 cycles
 SCF Done:  E(UB3LYP) =  -1219.15093227     A.U. after   13 cycles
 SCF Done:  E(UB3LYP) =  -1219.15093634     A.U. after   13 cycles
 SCF Done:  E(UB3LYP) =  -1219.15093868     A.U. after   13 cycles
 SCF Done:  E(UB3LYP) =  -1219.15093947     A.U. after   13 cycles
 SCF Done:  E(UB3LYP) =  -1219.15093999     A.U. after   11 cycles
 SCF Done:  E(UB3LYP) =  -1219.15094017     A.U. after   11 cycles
 SCF Done:  E(UB3LYP) =  -1219.15094020     A.U. after   10 cycles
 SCF Done:  E(UB3LYP) =  -1219.15094022     A.U. after    9 cycles
 Optimization completed.
    -- Stationary point found.
 Normal termination of Gaussian 16 at Tue Dec 26 23:54:56 2023.

 ----------------------------------------------------------------------
 #P Geom=AllCheck Guess=TCheck SCRF=Check GenChk UB3LYP/6-311++G(d,p) F
 req
 ----------------------------------------------------------------------

 Structure from the checkpoint file:  "265-rad.chk"
 -------
 Radical
 -------
 Charge = -1 Multiplicity = 2

                          Input orientation:
 ---------------------------------------------------------------------
 Center     Atomic      Atomic             Coordinates (Angstroms)
 Number     Number       Type             X           Y           Z
 ---------------------------------------------------------------------
      1          6           0       -1.130851    2.973907   -0.539475
      2          6           0       -2.446913    2.551487   -0.395655
      3          6           0       -2.734875    1.247008    0.017799
      4          6           0       -0.073207    2.082768   -0.260713
      5          6           0       -0.365012    0.755714    0.142165
      6          6           0       -1.710060    0.347806    0.267941
      7          6           0        1.323842    2.564646   -0.407489
      8          6           0        2.369129    1.603617   -0.107150
      9          6           0        2.057114    0.304009    0.278920
     10          6           0        0.727929   -0.182571    0.458269
     11          8           0        1.517657    3.736422   -0.783518
     12          8           0        0.481324   -1.343560    0.880966
     13          1           0       -3.766632    0.930720    0.127024
     14          1           0        2.853113   -0.395065    0.501053
     15          6           0       -2.088647   -1.048691    0.672098
     16          8           0       -2.556970   -1.352183    1.744814
     17          8           0       -1.998546   -1.903404   -0.371598
     18          6           0       -2.157826   -3.288829   -0.044624
     19          1           0       -3.256912    3.236218   -0.621814
     20          1           0       -2.065024   -3.825391   -0.987893
     21          1           0       -3.133590   -3.476020    0.408746
     22          1           0       -1.367869   -3.590813    0.645592
     23          6           0        3.783778    2.027818   -0.166387
     24          8           0        4.228229    3.143426   -0.017757
     25          8           0        4.622836    0.957995   -0.392442
     26          6           0       -0.950294    4.377773   -1.078331
     27          8           0       -1.153368    4.636704   -2.238283
     28          8           0       -0.818488    5.400632   -0.193938
     29          6           0       -0.360971    5.158294    1.142777
     30          6           0        6.016028    1.268309   -0.395391
     31          1           0       -0.531774    6.090481    1.681447
     32          1           0        0.702367    4.918770    1.128267
     33          1           0       -0.923277    4.353102    1.621708
     34          1           0        6.527149    0.325021   -0.587494
     35          1           0        6.329544    1.679820    0.567505
     36          1           0        6.253796    1.994670   -1.176069
 ---------------------------------------------------------------------

 SCF Done:  E(UB3LYP) =  -1219.15094022     A.U. after    2 cycles

 Alpha  occ. eigenvalues --  -19.06683 -19.06179 -19.05724 -19.01143 -19.00134
 Alpha  occ. eigenvalues --  -18.99828 -18.97677 -18.97588 -10.20629 -10.20034
 Alpha  occ. eigenvalues --  -10.19254 -10.13441 -10.13120 -10.13118 -10.12324
 Alpha  occ. eigenvalues --  -10.12028 -10.09915 -10.09802 -10.09193 -10.09022
 Alpha  occ. eigenvalues --  -10.08902 -10.08852 -10.07628 -10.06823  -1.00863
 Alpha  occ. eigenvalues --   -0.99968  -0.99353  -0.92181  -0.91454  -0.91426
 Alpha  occ. eigenvalues --   -0.90590  -0.89965  -0.77736  -0.71954  -0.69116
 Alpha  occ. eigenvalues --   -0.66786  -0.63675  -0.62722  -0.62286  -0.58619
 Alpha  occ. eigenvalues --   -0.56012  -0.53823  -0.50944  -0.48418  -0.47147
 Alpha  occ. eigenvalues --   -0.45258  -0.43465  -0.42180  -0.41500  -0.39589
 Alpha  occ. eigenvalues --   -0.38745  -0.38559  -0.38237  -0.37779  -0.37267
 Alpha  occ. eigenvalues --   -0.37089  -0.36615  -0.35260  -0.34623  -0.32831
 Alpha  occ. eigenvalues --   -0.32505  -0.32234  -0.31645  -0.30837  -0.30066
 Alpha  occ. eigenvalues --   -0.29658  -0.29444  -0.28867  -0.28033  -0.27222
 Alpha  occ. eigenvalues --   -0.26564  -0.26321  -0.26123  -0.25845  -0.24507
 Alpha  occ. eigenvalues --   -0.20849  -0.20643  -0.19400  -0.19068  -0.18274
 Alpha  occ. eigenvalues --   -0.17849  -0.17607  -0.16229  -0.15332  -0.14164
 Alpha  occ. eigenvalues --   -0.13202  -0.05771
 Alpha virt. eigenvalues --    0.04778   0.05999   0.06944   0.07230   0.07973
 Alpha virt. eigenvalues --    0.08806   0.10186   0.10455   0.10559   0.10660
 Alpha virt. eigenvalues --    0.10969   0.11274   0.11393   0.11857   0.12031

  Beta  occ. eigenvalues --  -19.06683 -19.06174 -19.05724 -19.01139 -19.00065
  Beta  occ. eigenvalues --  -18.99829 -18.97133 -18.96812 -10.20630 -10.20034
  Beta  occ. eigenvalues --  -10.19249 -10.13442 -10.13119 -10.13056 -10.12324
  Beta  occ. eigenvalues --  -10.11937 -10.09932 -10.09788 -10.09185 -10.08984
  Beta  occ. eigenvalues --  -10.08867 -10.08800 -10.07488 -10.06542  -1.00860
  Beta  occ. eigenvalues --   -0.99922  -0.99352  -0.92176  -0.91427  -0.91223
  Beta  occ. eigenvalues --   -0.89811  -0.88642  -0.77596  -0.71394  -0.69037
  Beta  occ. eigenvalues --   -0.66621  -0.63641  -0.62574  -0.62276  -0.57724
  Beta  occ. eigenvalues --   -0.55956  -0.53552  -0.50726  -0.48370  -0.47066
  Beta  occ. eigenvalues --   -0.45208  -0.43349  -0.42065  -0.41357  -0.39448
  Beta  occ. eigenvalues --   -0.38535  -0.38459  -0.38217  -0.37753  -0.37164
  Beta  occ. eigenvalues --   -0.37078  -0.36573  -0.35179  -0.34529  -0.32630
  Beta  occ. eigenvalues --   -0.32375  -0.31901  -0.30973  -0.30703  -0.29498
  Beta  occ. eigenvalues --   -0.29441  -0.29184  -0.28793  -0.27606  -0.26439
  Beta  occ. eigenvalues --   -0.26345  -0.25851  -0.25215  -0.25039  -0.24289
  Beta  occ. eigenvalues --   -0.20794  -0.20469  -0.19390  -0.18908  -0.18016
  Beta  occ. eigenvalues --   -0.17683  -0.15648  -0.15011  -0.14592  -0.13503
  Beta  occ. eigenvalues --   -0.12673
  Beta virt. eigenvalues --    0.01017   0.05382   0.06943   0.07050   0.07246
  Beta virt. eigenvalues --    0.07985   0.08808   0.10199   0.10484   0.10576
  Beta virt. eigenvalues --    0.10780   0.10979   0.11285   0.11406   0.11933

 Mulliken charges and spin densities:
               1          2
     1  C    0.138780  -0.018201
     2  C    0.316381   0.033893
     3  C   -0.036063   0.007119
     4  C    0.254350   0.028069
     5  C    0.444661   0.026829
     6  C    0.634261   0.014343
     7  C   -0.879622   0.020859
     8  C    0.240677   0.083488
     9  C   -0.127670   0.206608
    10  C   -0.727966   0.061838
    11  O   -0.264710   0.207094
    12  O   -0.311877   0.287524
    13  H    0.158806  -0.000602
    14  H    0.191252  -0.016095
    15  C   -0.928971   0.000388
    16  O   -0.181173   0.000608
    17  O    0.058649  -0.001496
    18  C   -0.235331   0.001687
    19  H    0.183206  -0.002245
    20  H    0.137898   0.000089
    21  H    0.141415  -0.000112
    22  H    0.190118  -0.000543
    23  C    0.261985   0.033859
    24  O   -0.237476   0.024429
    25  O   -0.076324  -0.000206
    26  C   -0.470394   0.000570
    27  O   -0.226858  -0.000264
    28  O   -0.004708  -0.000037
    29  C   -0.358219  -0.000121
    30  C   -0.238790  -0.000294
    31  H    0.132008  -0.000908
    32  H    0.224849   0.000278
    33  H    0.129529   0.001356
    34  H    0.130870   0.000072
    35  H    0.168007  -0.000063
    36  H    0.168448   0.000187
 Sum of Mulliken charges =  -1.00000   1.00000

 Dipole moment (field-independent basis, Debye):
    X=             -2.1980    Y=            -10.0866    Z=              1.9449  Tot=             10.5049
 Quadrupole moment (field-independent basis, Debye-Ang):
   XX=           -154.2650   YY=           -200.2147   ZZ=           -157.4283
   XY=            -13.6857   XZ=              2.6264   YZ=             30.2401

  Exact polarizability: 304.156  14.183 281.176  -3.949 -26.690 156.261
 Approx polarizability: 425.290  17.877 446.145  -5.918 -60.491 262.099

                      1                      2                      3
                      A                      A                      A
 Frequencies --     29.4758                30.0685                37.4552
 Red. masses --      7.0128                 5.8260                 6.3404
 Frc consts  --      0.0036                 0.0031                 0.0052
 IR Inten    --      0.3282                 2.7212                 5.2186

                      4                      5                      6
                      A                      A                      A
 Frequencies --     47.3082                67.0468                84.4058
 Red. masses --      5.1815                 3.6180                 5.2803
 Frc consts  --      0.0068                 0.0096                 0.0222
 IR Inten    --      3.7347                 2.0966                 0.4048

                      7                      8                      9
                      A                      A                      A
 Frequencies --     91.7018                99.5139               122.8732
 Red. masses --      3.3565                 3.1627                 2.2194
 Frc consts  --      0.0166                 0.0185                 0.0197
 IR Inten    --      1.6489                 0.3360                 0.7295

                     10                     11                     12
                      A                      A                      A
 Frequencies --    135.6013               143.6308               147.0040
 Red. masses --      1.6994                 1.3770                 1.7380
 Frc consts  --      0.0184                 0.0167                 0.0221
 IR Inten    --      0.7232                 0.2983                 0.5102

                     13                     14                     15
                      A                      A                      A
 Frequencies --    153.0016               166.1599               182.3287
 Red. masses --      3.2805                 6.2257                 5.5172
 Frc consts  --      0.0452                 0.1013                 0.1081
 IR Inten    --      2.5504                 2.9043                 5.3581

                     16                     17                     18
                      A                      A                      A
 Frequencies --    197.6162               205.5253               227.3205
 Red. masses --      2.3400                 4.3496                 6.8991
 Frc consts  --      0.0538                 0.1083                 0.2100
 IR Inten    --      7.1558                 3.0066                 2.5877

                     19                     20                     21
                      A                      A                      A
 Frequencies --    251.9859               259.1000               288.7284
 Red. masses --      6.7702                 8.9048                 6.6253
 Frc consts  --      0.2533                 0.3522                 0.3254
 IR Inten    --      0.6968                 0.6679                 0.9245

                     22                     23                     24
                      A                      A                      A
 Frequencies --    306.2102               320.2964               335.4637
 Red. masses --      6.4323                 4.6057                 5.1657
 Frc consts  --      0.3553                 0.2784                 0.3425
 IR Inten    --      4.8589                 4.5360                17.1098

                     25                     26                     27
                      A                      A                      A
 Frequencies --    359.1682               366.7006               371.9190
 Red. masses --      6.5742                 8.0983                 8.4792
 Frc consts  --      0.4997                 0.6416                 0.6910
 IR Inten    --     20.5964                 7.4064                20.7985

                     28                     29                     30
                      A                      A                      A
 Frequencies --    400.4110               438.1805               467.9930
 Red. masses --      5.4695                 7.5381                 4.7562
 Frc consts  --      0.5167                 0.8527                 0.6137
 IR Inten    --      2.0959                 2.7042                 1.7034

                     31                     32                     33
                      A                      A                      A
 Frequencies --    490.1741               523.0919               556.3419
 Red. masses --     11.2098                 8.1409                 7.7170
 Frc consts  --      1.5869                 1.3124                 1.4073
 IR Inten    --      0.4022                 1.4198                12.8920

                     34                     35                     36
                      A                      A                      A
 Frequencies --    611.3304               620.1788               663.5043
 Red. masses --      4.6332                 7.5227                 7.9835
 Frc consts  --      1.0202                 1.7047                 2.0708
 IR Inten    --      3.6500                12.1949                 5.1404

                     37                     38                     39
                      A                      A                      A
 Frequencies --    690.6309               707.2526               717.3068
 Red. masses --      6.8690                 5.4048                 6.0596
 Frc consts  --      1.9303                 1.5929                 1.8370
 IR Inten    --      2.1520                12.1778                10.4704

                     40                     41                     42
                      A                      A                      A
 Frequencies --    737.1499               758.8942               779.6042
 Red. masses --      9.7154                 6.7242                 6.8759
 Frc consts  --      3.1104                 2.2817                 2.4622
 IR Inten    --     43.4858                48.1710                 9.2521

                     43                     44                     45
                      A                      A                      A
 Frequencies --    793.0203               796.0987               811.7080
 Red. masses --      6.7882                 6.2327                 8.5025
 Frc consts  --      2.5152                 2.3273                 3.3006
 IR Inten    --     14.6197                 5.1593                 7.6115

                     46                     47                     48
                      A                      A                      A
 Frequencies --    844.1242               846.2122               889.3033
 Red. masses --      1.6083                 6.0074                 4.0221
 Frc consts  --      0.6752                 2.5345                 1.8741
 IR Inten    --     27.9548                62.2031                14.1538

                     49                     50                     51
                      A                      A                      A
 Frequencies --    890.5528               910.0196               951.9397
 Red. masses --      1.8162                 5.7968                 1.3965
 Frc consts  --      0.8487                 2.8284                 0.7456
 IR Inten    --     16.2777                26.2055                 0.1634

                     52                     53                     54
                      A                      A                      A
 Frequencies --   1004.2097              1037.0102              1052.5683
 Red. masses --      7.6412                 7.1187                 6.2812
 Frc consts  --      4.5400                 4.5104                 4.1001
 IR Inten    --      5.0998                12.8776                77.4552

                     55                     56                     57
                      A                      A                      A
 Frequencies --   1112.9397              1115.9243              1141.1666
 Red. masses --      6.2709                 4.7445                 3.1808
 Frc consts  --      4.5764                 3.4810                 2.4405
 IR Inten    --    390.6819               124.2289               377.8623

                     58                     59                     60
                      A                      A                      A
 Frequencies --   1167.8176              1168.1582              1170.5107
 Red. masses --      1.3092                 1.3053                 1.2877
 Frc consts  --      1.0519                 1.0495                 1.0395
 IR Inten    --      2.1858                 8.5432                 2.1007

                     61                     62                     63
                      A                      A                      A
 Frequencies --   1176.3241              1195.0068              1200.3084
 Red. masses --      2.1664                 1.7617                 1.8026
 Frc consts  --      1.7663                 1.4823                 1.5302
 IR Inten    --     42.6723               317.8626                 8.4344

                     64                     65                     66
                      A                      A                      A
 Frequencies --   1211.9500              1218.9243              1238.5421
 Red. masses --      1.6160                 2.0901                 2.5407
 Frc consts  --      1.3985                 1.8296                 2.2962
 IR Inten    --     75.2179               213.0221               130.4540

                     67                     68                     69
                      A                      A                      A
 Frequencies --   1267.7844              1286.6383              1306.5238
 Red. masses --      3.8143                 2.7412                 3.9086
 Frc consts  --      3.6121                 2.6737                 3.9311
 IR Inten    --     43.8788               259.1989                92.2376

                     70                     71                     72
                      A                      A                      A
 Frequencies --   1330.4878              1382.2166              1406.0824
 Red. masses --      7.4693                 4.7033                 4.7773
 Frc consts  --      7.7903                 5.2943                 5.5649
 IR Inten    --      7.4166                13.8777               107.7690

                     73                     74                     75
                      A                      A                      A
 Frequencies --   1459.8642              1461.6778              1465.4562
 Red. masses --      1.2535                 1.2427                 1.1717
 Frc consts  --      1.5740                 1.5643                 1.4825
 IR Inten    --      3.6454                36.9659                29.6595

                     76                     77                     78
                      A                      A                      A
 Frequencies --   1472.7826              1477.7702              1480.0077
 Red. masses --      3.6301                 1.0463                 1.0675
 Frc consts  --      4.6393                 1.3463                 1.3777
 IR Inten    --    238.5406                 6.6522                 3.3052

                     79                     80                     81
                      A                      A                      A
 Frequencies --   1486.3274              1488.2357              1498.2744
 Red. masses --      1.5346                 2.1304                 1.0484
 Frc consts  --      1.9975                 2.7800                 1.3867
 IR Inten    --     41.1052               103.4251                 5.5895

                     82                     83                     84
                      A                      A                      A
 Frequencies --   1501.7574              1514.2102              1552.9648
 Red. masses --      1.0807                 1.0535                 5.2126
 Frc consts  --      1.4360                 1.4232                 7.4068
 IR Inten    --      7.9747                24.2338               215.3576

                     85                     86                     87
                      A                      A                      A
 Frequencies --   1579.0085              1599.5862              1631.6544
 Red. masses --      7.2182                 7.8078                 8.0304
 Frc consts  --     10.6035                11.7704                12.5962
 IR Inten    --     12.6103                48.6961                15.7919

                     88                     89                     90
                      A                      A                      A
 Frequencies --   1759.1747              1766.3123              1777.6950
 Red. masses --     11.9821                11.9563                12.8360
 Frc consts  --     21.8474                21.9776                23.8997
 IR Inten    --    574.4203               308.0000               374.9949

                     91                     92                     93
                      A                      A                      A
 Frequencies --   3028.3734              3034.7309              3036.7099
 Red. masses --      1.0300                 1.0308                 1.0294
 Frc consts  --      5.5655                 5.5933                 5.5930
 IR Inten    --     87.7934                45.5325                71.5531

                     94                     95                     96
                      A                      A                      A
 Frequencies --   3090.6006              3108.5273              3110.4258
 Red. masses --      1.1053                 1.1058                 1.1028
 Frc consts  --      6.2206                 6.2957                 6.2862
 IR Inten    --     32.9831                18.8621                39.0753

                     97                     98                     99
                      A                      A                      A
 Frequencies --   3124.1056              3130.4104              3135.3814
 Red. masses --      1.1047                 1.1072                 1.1057
 Frc consts  --      6.3526                 6.3924                 6.4043
 IR Inten    --     27.8151                12.1772                23.2439

                    100                    101                    102
                      A                      A                      A
 Frequencies --   3160.6935              3177.5874              3199.3153
 Red. masses --      1.0869                 1.0944                 1.0890
 Frc consts  --      6.3975                 6.5103                 6.5675
 IR Inten    --      6.5886                18.5419                 4.0799

 - Thermochemistry -
 -------------------
 Temperature   298.150 Kelvin.  Pressure   1.00000 Atm.
 Atom     1 has atomic number  6 and mass  12.00000

 Molecular mass:   332.05322 amu.
 Principal axes and moments of inertia in atomic units:
                           1         2         3
     Eigenvalues --  6421.400689049.58764**********
           X            0.79659  -0.60431   0.01619
           Y            0.59446   0.78791   0.16066
           Z           -0.10985  -0.11836   0.98688
 This molecule is an asymmetric top.
 Rotational symmetry number  1.
 Warning -- assumption of classical behavior for rotation
           may cause significant error
 Rotational temperatures (Kelvin)      0.01349     0.00957     0.00607
 Rotational constants (GHZ):           0.28105     0.19943     0.12652
 Zero-point vibrational energy     672441.0 (Joules/Mol)
                                  160.71725 (Kcal/Mol)
 Warning -- explicit consideration of  35 degrees of freedom as
           vibrations may cause significant error
 Vibrational temperatures:     42.41    43.26    53.89    68.07    96.47
          (Kelvin)            121.44   131.94   143.18   176.79   195.10
                              206.65   211.51   220.14   239.07   262.33
                              284.33   295.71   327.06   362.55   372.79
                              415.42   440.57   460.84   482.66   516.76
                              527.60   535.11   576.10   630.44   673.34
                              705.25   752.61   800.45   879.57   892.30
                              954.63   993.66  1017.58  1032.04  1060.59
                             1091.88  1121.68  1140.98  1145.41  1167.87
                             1214.51  1217.51  1279.51  1281.31  1309.32
                             1369.63  1444.83  1492.03  1514.41  1601.27
                             1605.57  1641.88  1680.23  1680.72  1684.10
                             1692.47  1719.35  1726.98  1743.73  1753.76
                             1781.99  1824.06  1851.19  1879.80  1914.28
                             1988.70  2023.04  2100.42  2103.03  2108.46
                             2119.01  2126.18  2129.40  2138.49  2141.24
                             2155.68  2160.69  2178.61  2234.37  2271.84
                             2301.45  2347.59  2531.06  2541.33  2557.71
                             4357.15  4366.30  4369.15  4446.68  4472.48
                             4475.21  4494.89  4503.96  4511.11  4547.53
                             4571.84  4603.10

 Zero-point correction=                           0.256119 (Hartree/Particle)
 Thermal correction to Energy=                    0.278741
 Thermal correction to Enthalpy=                  0.279685
 Thermal correction to Gibbs Free Energy=         0.201902
 Sum of electronic and zero-point Energies=          -1218.894821
 Sum of electronic and thermal Energies=             -1218.872199
 Sum of electronic and thermal Enthalpies=           -1218.871255
 Sum of electronic and thermal Free Energies=        -1218.949039

                     E (Thermal)             CV                S
                      KCal/Mol        Cal/Mol-Kelvin    Cal/Mol-Kelvin
 Total                  174.913             81.289            163.710
 Electronic               0.000              0.000              1.377
 Translational            0.889              2.981             43.295
 Rotational               0.889              2.981             35.071
 Vibrational            173.135             75.327             83.966
 Vibration     1          0.593              1.984              5.864
 Vibration     2          0.594              1.984              5.825
 Vibration     3          0.594              1.982              5.389
 Vibration     4          0.595              1.979              4.927
 Vibration     5          0.598              1.970              4.238
 Vibration     6          0.601              1.960              3.786
 Vibration     7          0.602              1.955              3.623
 Vibration     8          0.604              1.949              3.464
 Vibration     9          0.610              1.930              3.055
 Vibration    10          0.613              1.918              2.865
 Vibration    11          0.616              1.910              2.755
 Vibration    12          0.617              1.906              2.711
 Vibration    13          0.619              1.899              2.635
 Vibration    14          0.624              1.884              2.478
 Vibration    15          0.630              1.864              2.304
 Vibration    16          0.637              1.843              2.155
 Vibration    17          0.640              1.832              2.083
 Vibration    18          0.651              1.799              1.900
 Vibration    19          0.664              1.759              1.717
 Vibration    20          0.668              1.747              1.668
 Vibration    21          0.685              1.695              1.481
 Vibration    22          0.697              1.662              1.383
 Vibration    23          0.706              1.635              1.309
 Vibration    24          0.717              1.605              1.234
 Vibration    25          0.734              1.556              1.126
 Vibration    26          0.740              1.541              1.094
 Vibration    27          0.744              1.530              1.072
 Vibration    28          0.766              1.469              0.961
 Vibration    29          0.798              1.387              0.832
 Vibration    30          0.825              1.321              0.743
 Vibration    31          0.846              1.272              0.683
 Vibration    32          0.878              1.199              0.603
 Vibration    33          0.912              1.126              0.531
 Vibration    34          0.970              1.008              0.431
 Vibration    35          0.980              0.989              0.416

 Optimization completed.
    -- Stationary point found.
 Normal termination of Gaussian 16 at Wed Dec 27 02:15:44 2023.
