 Gaussian 16, Revision A.03,
 Gaussian 16:  ES64L-G16RevA.03 25-Dec-2016

 ----------------------------------------------
 #P UB3LYP/6-311++G(d,p) nosym opt freq SCF=YQC
 ----------------------------------------------

 -------
 Reduced
 -------
 Symbolic Z-matrix:
 Charge = -2 Multiplicity = 1

 SCF Done:  E(UB3LYP) =  -1077.75640024     a.u. after   19 cycles
 SCF Done:  E(UB3LYP) =  -1077.75723095     A.U. after   30 cycles
 SCF Done:  E(UB3LYP) =  -1077.77440434     a.u. after  112 cycles
 SCF Done:  E(UB3LYP) =  -1077.77526012     A.U. after   33 cycles
 SCF Done:  E(UB3LYP) =  -1077.77530943     a.u. after    4 cycles
 SCF Done:  E(UB3LYP) =  -1077.77871637     a.u. after   87 cycles
 SCF Done:  E(UB3LYP) =  -1077.77904183     A.U. after   25 cycles
 SCF Done:  E(UB3LYP) =  -1077.77949091     a.u. after  114 cycles
 SCF Done:  E(UB3LYP) =  -1077.77992286     A.U. after   24 cycles
 SCF Done:  E(UB3LYP) =  -1077.78103491     a.u. after  164 cycles
 SCF Done:  E(UB3LYP) =  -1077.78676365     a.u. after   10 cycles
 SCF Done:  E(UB3LYP) =  -1077.78685101     A.U. after   23 cycles
 SCF Done:  E(UB3LYP) =  -1077.78678198     a.u. after    6 cycles
 SCF Done:  E(UB3LYP) =  -1077.78685211     A.U. after   24 cycles
 SCF Done:  E(UB3LYP) =  -1077.78683599     a.u. after    3 cycles
 SCF Done:  E(UB3LYP) =  -1077.78685233     A.U. after   19 cycles
 SCF Done:  E(UB3LYP) =  -1077.78684615     a.u. after    1 cycles
 SCF Done:  E(UB3LYP) =  -1077.78685236     A.U. after   20 cycles
 Optimization completed.
    -- Stationary point found.
 Normal termination of Gaussian 16 at Sat Dec 30 03:13:40 2023.

 ----------------------------------------------------------------------
 #P Geom=AllCheck Guess=TCheck SCRF=Check GenChk UB3LYP/6-311++G(d,p) F
 req
 ----------------------------------------------------------------------

 Structure from the checkpoint file:  "305-an.chk"
 -------
 Reduced
 -------
 Charge = -2 Multiplicity = 1

                          Input orientation:
 ---------------------------------------------------------------------
 Center     Atomic      Atomic             Coordinates (Angstroms)
 Number     Number       Type             X           Y           Z
 ---------------------------------------------------------------------
      1          6           0        4.206182   -1.304305    3.882206
      2          6           0        3.413222   -0.974637    4.957937
      3          6           0        2.468877    0.076838    4.868722
      4          6           0        4.092730   -0.591920    2.652788
      5          6           0        3.134798    0.477666    2.548781
      6          6           0        2.350654    0.773655    3.677625
      7          6           0        4.919990   -0.935892    1.541791
      8          6           0        4.726005   -0.159458    0.356227
      9          6           0        3.816942    0.884789    0.212419
     10          6           0        2.966673    1.254214    1.314170
     11          8           0        5.820123   -1.877282    1.516648
     12          8           0        2.119450    2.204710    1.230240
     13          8           0        5.555806   -0.543673   -0.671917
     14          8           0        3.460398   -1.620818    6.197038
     15          6           0        4.377888   -2.680303    6.330659
     16          6           0        3.706755    1.656747   -1.079216
     17          6           0        2.591518    1.154097   -2.019153
     18          6           0        2.468971    1.994089   -3.299447
     19          6           0        1.320287    1.613110   -4.251559
     20          6           0        1.498433    0.217894   -4.881718
     21          6           0        1.135532    2.665657   -5.363239
     22          6           0       -0.002786    2.315119   -6.332194
     23          6           0        0.183709    0.922003   -6.943106
     24          6           0        0.362840   -0.141607   -5.852970
     25          1           0        4.939239   -2.100545    3.910907
     26          1           0        1.857686    0.312304    5.734106
     27          1           0        1.635143    1.583741    3.577505
     28          1           0        6.047362   -1.277138   -0.225692
     29          1           0        4.267036   -3.057820    7.350705
     30          1           0        5.413355   -2.347112    6.177666
     31          1           0        4.172800   -3.491397    5.618994
     32          1           0        4.663156    1.618947   -1.614049
     33          1           0        3.491867    2.702739   -0.829969
     34          1           0        1.644226    1.183335   -1.469430
     35          1           0        2.789564    0.105670   -2.266692
     36          1           0        3.417486    1.952331   -3.855985
     37          1           0        2.337446    3.044955   -3.007353
     38          1           0        0.391796    1.592975   -3.660077
     39          1           0        1.572512   -0.540580   -4.097227
     40          1           0        2.456011    0.198273   -5.422247
     41          1           0        2.075899    2.754310   -5.926323
     42          1           0        0.954411    3.648561   -4.910687
     43          1           0       -0.085173    3.070193   -7.124469
     44          1           0       -0.956781    2.339489   -5.787076
     45          1           0        1.074947    0.930289   -7.586500
     46          1           0       -0.660171    0.671766   -7.598737
     47          1           0        0.550603   -1.121856   -6.309758
     48          1           0       -0.575047   -0.239993   -5.289695
 ---------------------------------------------------------------------

 SCF Done:  E(UB3LYP) =  -1077.78685236     a.u. after    1 cycles
 SCF Done:  E(UB3LYP) =  -1077.78685236     A.U. after    3 cycles

 Alpha  occ. eigenvalues --  -18.96540 -18.91037 -18.82982 -18.82072 -10.05511
 Alpha  occ. eigenvalues --  -10.02066 -10.00718 -10.00673 -10.00639 -10.00273
 Alpha  occ. eigenvalues --  -10.00197  -9.99898  -9.98300  -9.98174  -9.97902
 Alpha  occ. eigenvalues --   -9.96914  -9.96125  -9.95507  -9.95430  -9.95140
 Alpha  occ. eigenvalues --   -9.94894  -9.94303  -9.93566  -9.92685  -0.87476
 Alpha  occ. eigenvalues --   -0.82437  -0.73930  -0.73004  -0.67398  -0.63351
 Alpha  occ. eigenvalues --   -0.61167  -0.58241  -0.58092  -0.56255  -0.53954
 Alpha  occ. eigenvalues --   -0.52978  -0.50484  -0.47340  -0.45159  -0.44221
 Alpha  occ. eigenvalues --   -0.42168  -0.39818  -0.39216  -0.38747  -0.36659
 Alpha  occ. eigenvalues --   -0.34593  -0.33124  -0.31571  -0.29440  -0.29277
 Alpha  occ. eigenvalues --   -0.28929  -0.28360  -0.28028  -0.27425  -0.26099
 Alpha  occ. eigenvalues --   -0.25264  -0.24326  -0.23055  -0.22639  -0.22064
 Alpha  occ. eigenvalues --   -0.21888  -0.20719  -0.20234  -0.19194  -0.18521
 Alpha  occ. eigenvalues --   -0.18451  -0.17795  -0.17344  -0.16886  -0.16609
 Alpha  occ. eigenvalues --   -0.16100  -0.15830  -0.15366  -0.15252  -0.14424
 Alpha  occ. eigenvalues --   -0.13733  -0.13176  -0.13019  -0.12210  -0.11365
 Alpha  occ. eigenvalues --   -0.10540  -0.10304  -0.08633  -0.03184  -0.01373
 Alpha  occ. eigenvalues --   -0.01260   0.00706   0.01092   0.10132
 Alpha virt. eigenvalues --    0.10997   0.12556   0.12902   0.13526   0.14491
 Alpha virt. eigenvalues --    0.15685   0.15817   0.16344   0.16515   0.16745
 Alpha virt. eigenvalues --    0.17119   0.17487   0.18094   0.18879   0.19080

  Beta  occ. eigenvalues --  -18.96540 -18.91037 -18.82982 -18.82072 -10.05511
  Beta  occ. eigenvalues --  -10.02066 -10.00718 -10.00673 -10.00639 -10.00273
  Beta  occ. eigenvalues --  -10.00197  -9.99898  -9.98300  -9.98174  -9.97902
  Beta  occ. eigenvalues --   -9.96914  -9.96125  -9.95507  -9.95430  -9.95140
  Beta  occ. eigenvalues --   -9.94894  -9.94303  -9.93566  -9.92685  -0.87476
  Beta  occ. eigenvalues --   -0.82437  -0.73930  -0.73004  -0.67398  -0.63351
  Beta  occ. eigenvalues --   -0.61167  -0.58241  -0.58092  -0.56255  -0.53954
  Beta  occ. eigenvalues --   -0.52978  -0.50484  -0.47340  -0.45159  -0.44221
  Beta  occ. eigenvalues --   -0.42168  -0.39818  -0.39216  -0.38747  -0.36659
  Beta  occ. eigenvalues --   -0.34593  -0.33124  -0.31571  -0.29440  -0.29277
  Beta  occ. eigenvalues --   -0.28929  -0.28360  -0.28028  -0.27425  -0.26099
  Beta  occ. eigenvalues --   -0.25264  -0.24326  -0.23055  -0.22639  -0.22064
  Beta  occ. eigenvalues --   -0.21888  -0.20719  -0.20234  -0.19194  -0.18521
  Beta  occ. eigenvalues --   -0.18451  -0.17795  -0.17344  -0.16886  -0.16609
  Beta  occ. eigenvalues --   -0.16100  -0.15830  -0.15366  -0.15252  -0.14424
  Beta  occ. eigenvalues --   -0.13733  -0.13176  -0.13019  -0.12210  -0.11365
  Beta  occ. eigenvalues --   -0.10540  -0.10304  -0.08633  -0.03184  -0.01373
  Beta  occ. eigenvalues --   -0.01260   0.00706   0.01092   0.10132
  Beta virt. eigenvalues --    0.10997   0.12556   0.12902   0.13526   0.14491
  Beta virt. eigenvalues --    0.15685   0.15817   0.16344   0.16515   0.16745
  Beta virt. eigenvalues --    0.17119   0.17487   0.18094   0.18879   0.19080

 Mulliken charges and spin densities:
               1          2
     1  C    0.879652  -0.000000
     2  C   -0.976227  -0.000000
     3  C   -0.352986   0.000000
     4  C    1.027745   0.000000
     5  C   -0.525664   0.000000
     6  C    0.175808  -0.000000
     7  C   -1.207997   0.000000
     8  C   -0.539210   0.000000
     9  C    1.790940  -0.000000
    10  C   -1.383453   0.000000
    11  O   -0.545480   0.000000
    12  O   -0.438134   0.000000
    13  O   -0.276946  -0.000000
    14  O   -0.193415   0.000000
    15  C   -0.319291  -0.000000
    16  C   -0.044460   0.000000
    17  C   -0.525114  -0.000000
    18  C   -0.432209  -0.000000
    19  C    1.190492   0.000000
    20  C   -0.360422   0.000000
    21  C   -0.340716   0.000000
    22  C   -0.272766  -0.000000
    23  C    1.082372   0.000000
    24  C   -0.527046   0.000000
    25  H    0.124934   0.000000
    26  H    0.122040   0.000000
    27  H    0.154676  -0.000000
    28  H    0.260909  -0.000000
    29  H    0.128894  -0.000000
    30  H    0.131105  -0.000000
    31  H    0.132435  -0.000000
    32  H    0.194627   0.000000
    33  H    0.194554  -0.000000
    34  H    0.178517   0.000000
    35  H    0.140891   0.000000
    36  H    0.077062  -0.000000
    37  H    0.117651  -0.000000
    38  H    0.073105  -0.000000
    39  H    0.165749   0.000000
    40  H    0.076834  -0.000000
    41  H    0.082055  -0.000000
    42  H    0.123148   0.000000
    43  H   -0.827905  -0.000000
    44  H    0.262930   0.000000
    45  H    0.182913   0.000000
    46  H   -1.027216  -0.000000
    47  H   -0.061450  -0.000000
    48  H    0.106071  -0.000000
 Sum of Mulliken charges =  -2.00000  -0.00000

 Dipole moment (field-independent basis, Debye):
    X=            -26.2542    Y=             -4.6273    Z=              5.9350  Tot=             27.3115
 Quadrupole moment (field-independent basis, Debye-Ang):
   XX=           -291.5145   YY=           -197.4433   ZZ=           -377.9179
   XY=             13.6738   XZ=            -56.4236   YZ=             34.2605

  Exact polarizability:1112.997-121.6781329.682 895.917-397.4002900.796
 Approx polarizability:7394.448********1948.006************************

                      1                      2                      3
                      A                      A                      A
 Frequencies --     13.6396                19.5903                22.8068
 Red. masses --      5.4800                 4.5386                 3.2714
 Frc consts  --      0.0006                 0.0010                 0.0010
 IR Inten    --      0.0807                 0.4977                 0.2297

                      4                      5                      6
                      A                      A                      A
 Frequencies --     53.8083                63.4527                76.9730
 Red. masses --      3.7214                 3.3304                 4.9971
 Frc consts  --      0.0063                 0.0079                 0.0174
 IR Inten    --      3.8707                 4.2459                 0.5517

                      7                      8                      9
                      A                      A                      A
 Frequencies --    104.2094               115.7713               127.6355
 Red. masses --      3.1217                 2.9418                 4.0924
 Frc consts  --      0.0200                 0.0232                 0.0393
 IR Inten    --      0.8390                 0.7049                 2.1057

                     10                     11                     12
                      A                      A                      A
 Frequencies --    139.2934               157.3782               174.8647
 Red. masses --      4.9340                 4.6311                 3.6951
 Frc consts  --      0.0564                 0.0676                 0.0666
 IR Inten    --      2.0640                 2.0944                 0.7543

                     13                     14                     15
                      A                      A                      A
 Frequencies --    175.0125               219.6597               228.3660
 Red. masses --      3.4214                 1.8070                 1.7713
 Frc consts  --      0.0617                 0.0514                 0.0544
 IR Inten    --      1.8485                 1.3092                 3.9532

                     16                     17                     18
                      A                      A                      A
 Frequencies --    240.0421               266.1427               293.6135
 Red. masses --      2.1762                 3.5566                 3.4696
 Frc consts  --      0.0739                 0.1484                 0.1762
 IR Inten    --      0.6015                 3.8123                 1.1194

                     19                     20                     21
                      A                      A                      A
 Frequencies --    298.4157               323.3017               339.5904
 Red. masses --      3.0763                 1.8808                 5.3214
 Frc consts  --      0.1614                 0.1158                 0.3616
 IR Inten    --      7.5233                 4.8941                18.7991

                     22                     23                     24
                      A                      A                      A
 Frequencies --    345.8448               351.2357               374.0276
 Red. masses --      4.3094                 8.2770                 4.1468
 Frc consts  --      0.3037                 0.6016                 0.3418
 IR Inten    --      1.5552                 1.4987                 8.0200

                     25                     26                     27
                      A                      A                      A
 Frequencies --    406.8710               434.6000               438.8771
 Red. masses --      5.9270                 3.1788                 3.4897
 Frc consts  --      0.5781                 0.3537                 0.3960
 IR Inten    --    100.2093                67.9500                53.7490

                     28                     29                     30
                      A                      A                      A
 Frequencies --    445.2913               461.7581               466.8382
 Red. masses --      2.8021                 3.4449                 2.9254
 Frc consts  --      0.3274                 0.4328                 0.3756
 IR Inten    --      4.1980                 3.5997                 8.4289

                     31                     32                     33
                      A                      A                      A
 Frequencies --    471.4027               495.4153               512.8811
 Red. masses --      5.0795                 5.4014                 6.5693
 Frc consts  --      0.6651                 0.7811                 1.0181
 IR Inten    --    327.9233               149.7764               295.4036

                     34                     35                     36
                      A                      A                      A
 Frequencies --    549.4715               589.3345               634.3411
 Red. masses --      1.9469                 4.2699                 4.2556
 Frc consts  --      0.3463                 0.8738                 1.0089
 IR Inten    --      9.8216                10.1281                11.2448

                     37                     38                     39
                      A                      A                      A
 Frequencies --    678.2449               688.6158               698.7989
 Red. masses --      4.3315                 5.9341                 4.5075
 Frc consts  --      1.1740                 1.6579                 1.2969
 IR Inten    --      6.3581                 2.9503                 1.2815

                     40                     41                     42
                      A                      A                      A
 Frequencies --    718.8455               729.2212               739.7770
 Red. masses --      4.7874                 1.4081                 1.8600
 Frc consts  --      1.4576                 0.4412                 0.5998
 IR Inten    --     11.7906                23.2613                12.6246

                     43                     44                     45
                      A                      A                      A
 Frequencies --    763.3881               778.8474               783.3941
 Red. masses --      2.4388                 2.0068                 1.5680
 Frc consts  --      0.8374                 0.7172                 0.5670
 IR Inten    --    130.5155                18.7864                38.8400

                     46                     47                     48
                      A                      A                      A
 Frequencies --    786.8539               789.3630               829.6281
 Red. masses --      2.2862                 1.7243                 1.9033
 Frc consts  --      0.8340                 0.6330                 0.7719
 IR Inten    --    170.8819                82.6284                74.2892

                     49                     50                     51
                      A                      A                      A
 Frequencies --    842.5762               864.4289               885.4065
 Red. masses --      2.2398                 1.4689                 2.0052
 Frc consts  --      0.9369                 0.6467                 0.9262
 IR Inten    --     21.1972                17.8966               189.0202

                     52                     53                     54
                      A                      A                      A
 Frequencies --    890.6387               920.0938               925.2546
 Red. masses --      1.9880                 1.8281                 2.1304
 Frc consts  --      0.9291                 0.9118                 1.0746
 IR Inten    --     15.3041               110.3642                60.6032

                     55                     56                     57
                      A                      A                      A
 Frequencies --    955.1449               962.4064               975.6942
 Red. masses --      3.3438                 1.2993                 2.8517
 Frc consts  --      1.7973                 0.7091                 1.5995
 IR Inten    --      8.8206                 0.6805                28.5639

                     58                     59                     60
                      A                      A                      A
 Frequencies --   1011.3819              1018.4995              1034.1553
 Red. masses --      1.8847                 3.6034                 1.9466
 Frc consts  --      1.1358                 2.2024                 1.2266
 IR Inten    --    148.1400                13.6865                25.3724

                     61                     62                     63
                      A                      A                      A
 Frequencies --   1035.6795              1048.9021              1067.3847
 Red. masses --      2.5644                 2.2025                 2.2704
 Frc consts  --      1.6206                 1.4277                 1.5240
 IR Inten    --     43.7676               163.0783                60.4062

                     64                     65                     66
                      A                      A                      A
 Frequencies --   1072.9598              1091.2050              1095.7279
 Red. masses --      1.6795                 1.4029                 1.9903
 Frc consts  --      1.1392                 0.9842                 1.4079
 IR Inten    --     11.6025                10.9531                11.3850

                     67                     68                     69
                      A                      A                      A
 Frequencies --   1102.1581              1103.8616              1132.1848
 Red. masses --      2.3533                 2.2587                 1.8288
 Frc consts  --      1.6842                 1.6216                 1.3812
 IR Inten    --     43.7509                 6.3344                73.6400

                     70                     71                     72
                      A                      A                      A
 Frequencies --   1159.0043              1166.2773              1182.6066
 Red. masses --      2.8376                 1.2832                 1.8012
 Frc consts  --      2.2458                 1.0283                 1.4842
 IR Inten    --    767.0872                 0.5732                42.1318

                     73                     74                     75
                      A                      A                      A
 Frequencies --   1188.0218              1195.2295              1205.4948
 Red. masses --      2.1801                 2.0629                 1.6772
 Frc consts  --      1.8129                 1.7363                 1.4360
 IR Inten    --    368.2817                54.0789                10.4528

                     76                     77                     78
                      A                      A                      A
 Frequencies --   1225.2425              1241.5253              1255.6222
 Red. masses --      2.5140                 3.0337                 1.3722
 Frc consts  --      2.2237                 2.7551                 1.2746
 IR Inten    --    421.3652                99.0594                75.9783

                     79                     80                     81
                      A                      A                      A
 Frequencies --   1267.9276              1275.3411              1281.2628
 Red. masses --      1.9484                 1.3165                 1.2462
 Frc consts  --      1.8455                 1.2616                 1.2054
 IR Inten    --    127.6480                57.5999                61.7207

                     82                     83                     84
                      A                      A                      A
 Frequencies --   1285.9703              1307.6919              1319.6575
 Red. masses --      1.2667                 1.2805                 1.2375
 Frc consts  --      1.2342                 1.2901                 1.2697
 IR Inten    --      4.3504                25.4827                29.5728

                     85                     86                     87
                      A                      A                      A
 Frequencies --   1328.6499              1337.1686              1341.8962
 Red. masses --      1.2159                 1.4383                 3.1280
 Frc consts  --      1.2646                 1.5152                 3.3186
 IR Inten    --    293.7462               365.2900              1064.2714

                     88                     89                     90
                      A                      A                      A
 Frequencies --   1347.6549              1361.1231              1363.7539
 Red. masses --      1.7582                 1.6263                 1.3971
 Frc consts  --      1.8814                 1.7752                 1.5309
 IR Inten    --     11.8724                65.0885                10.8284

                     91                     92                     93
                      A                      A                      A
 Frequencies --   1368.9957              1373.1066              1375.9797
 Red. masses --      1.4885                 1.5564                 1.4958
 Frc consts  --      1.6436                 1.7289                 1.6686
 IR Inten    --      4.2136               119.1009                53.7418

                     94                     95                     96
                      A                      A                      A
 Frequencies --   1383.0897              1390.7326              1410.2437
 Red. masses --      1.4640                 1.5077                 3.0028
 Frc consts  --      1.6500                 1.7181                 3.5185
 IR Inten    --     11.3776                25.6567              1613.0268

                     97                     98                     99
                      A                      A                      A
 Frequencies --   1433.5252              1443.0531              1463.5749
 Red. masses --      4.3672                 2.2447                 1.3237
 Frc consts  --      5.2877                 2.7540                 1.6705
 IR Inten    --   2304.8572               228.6165               575.5728

                    100                    101                    102
                      A                      A                      A
 Frequencies --   1473.4750              1473.9985              1474.5907
 Red. masses --      1.3200                 1.0474                 1.1411
 Frc consts  --      1.6885                 1.3408                 1.4618
 IR Inten    --    205.4525                 9.3294               300.7469

                    103                    104                    105
                      A                      A                      A
 Frequencies --   1476.6599              1481.3305              1486.4166
 Red. masses --      1.1647                 1.1000                 1.1081
 Frc consts  --      1.4963                 1.4222                 1.4425
 IR Inten    --     43.0681               100.7099                28.7692

                    106                    107                    108
                      A                      A                      A
 Frequencies --   1488.0519              1493.6539              1497.8137
 Red. masses --      1.0897                 3.0884                 1.1081
 Frc consts  --      1.4216                 4.0596                 1.4647
 IR Inten    --     19.2532               793.1818                56.9366

                    109                    110                    111
                      A                      A                      A
 Frequencies --   1503.9551              1506.9641              1516.4497
 Red. masses --      1.1366                 1.4105                 2.2908
 Frc consts  --      1.5147                 1.8873                 3.1037
 IR Inten    --    225.6541               745.9290               951.3095

                    112                    113                    114
                      A                      A                      A
 Frequencies --   1555.0389              1597.8736              1611.7673
 Red. masses --      4.3167                 4.8797                 5.9199
 Frc consts  --      6.1501                 7.3406                 9.0609
 IR Inten    --    682.2795               107.2577              4766.6750

                    115                    116                    117
                      A                      A                      A
 Frequencies --   2960.1414              2969.5118              2970.6589
 Red. masses --      1.0786                 1.0623                 1.0331
 Frc consts  --      5.5685                 5.5191                 5.3714
 IR Inten    --      0.7091                 7.7879               374.4034

                    118                    119                    120
                      A                      A                      A
 Frequencies --   2976.5452              2977.3940              2979.5345
 Red. masses --      1.0632                 1.0680                 1.0614
 Frc consts  --      5.5497                 5.5782                 5.5518
 IR Inten    --      3.2083                10.7896                 3.7359

                    121                    122                    123
                      A                      A                      A
 Frequencies --   2985.2872              2986.9843              2996.5201
 Red. masses --      1.0621                 1.0702                 1.0566
 Frc consts  --      5.5770                 5.6258                 5.5899
 IR Inten    --     21.2430                16.0039               115.1661

                    124                    125                    126
                      A                      A                      A
 Frequencies --   3001.9183              3006.8631              3012.5575
 Red. masses --      1.0969                 1.0929                 1.1041
 Frc consts  --      5.8238                 5.8217                 5.9036
 IR Inten    --      6.3932                 6.5244                65.4753

                    127                    128                    129
                      A                      A                      A
 Frequencies --   3012.9903              3018.6293              3020.1902
 Red. masses --      1.0986                 1.0609                 1.0997
 Frc consts  --      5.8759                 5.6957                 5.9098
 IR Inten    --     13.4694                20.2791                28.9694

                    130                    131                    132
                      A                      A                      A
 Frequencies --   3024.7398              3032.7667              3057.4007
 Red. masses --      1.1003                 1.1022                 1.0958
 Frc consts  --      5.9312                 5.9728                 6.0353
 IR Inten    --     94.5797                 0.2370                18.4438

                    133                    134                    135
                      A                      A                      A
 Frequencies --   3065.0819              3070.5987              3148.0672
 Red. masses --      1.1021                 1.0984                 1.0857
 Frc consts  --      6.1003                 6.1019                 6.3391
 IR Inten    --     25.4881               209.3672                18.7591

                    136                    137                    138
                      A                      A                      A
 Frequencies --   3167.7333              3192.0758              3363.8760
 Red. masses --      1.0928                 1.0882                 1.0637
 Frc consts  --      6.4611                 6.5329                 7.0914
 IR Inten    --    113.9365                81.4436                80.9364

 - Thermochemistry -
 -------------------
 Temperature   298.150 Kelvin.  Pressure   1.00000 Atm.
 Atom     1 has atomic number  6 and mass  12.00000

 Molecular mass:   328.16746 amu.
 Principal axes and moments of inertia in atomic units:
                           1         2         3
     Eigenvalues --  3162.70291********************
           X            0.27575   0.74888   0.60262
           Y           -0.23755  -0.55438   0.79764
           Z            0.93141  -0.36310   0.02502
 This molecule is an asymmetric top.
 Rotational symmetry number  1.
 Warning -- assumption of classical behavior for rotation
           may cause significant error
 Rotational temperatures (Kelvin)      0.02739     0.00376     0.00359
 Rotational constants (GHZ):           0.57063     0.07835     0.07482
 Zero-point vibrational energy    1048933.6 (Joules/Mol)
                                  250.70116 (Kcal/Mol)
 Warning -- explicit consideration of  35 degrees of freedom as
           vibrations may cause significant error
 Vibrational temperatures:     19.62    28.19    32.81    77.42    91.29
          (Kelvin)            110.75   149.93   166.57   183.64   200.41
                              226.43   251.59   251.80   316.04   328.57
                              345.37   382.92   422.44   429.35   465.16
                              488.59   497.59   505.35   538.14   585.40
                              625.29   631.45   640.67   664.37   671.68
                              678.24   712.79   737.92   790.57   847.92
                              912.68   975.84   990.76  1005.42  1034.26
                             1049.19  1064.37  1098.35  1120.59  1127.13
                             1132.11  1135.72  1193.65  1212.28  1243.72
                             1273.90  1281.43  1323.81  1331.23  1374.24
                             1384.69  1403.81  1455.15  1465.39  1487.92
                             1490.11  1509.14  1535.73  1543.75  1570.00
                             1576.51  1585.76  1588.21  1628.96  1667.55
                             1678.01  1701.51  1709.30  1719.67  1734.44
                             1762.85  1786.28  1806.56  1824.27  1834.93
                             1843.45  1850.22  1881.48  1898.69  1911.63
                             1923.89  1930.69  1938.97  1958.35  1962.14
                             1969.68  1975.59  1979.73  1989.96  2000.95
                             2029.03  2062.52  2076.23  2105.76  2120.00
                             2120.76  2121.61  2124.58  2131.30  2138.62
                             2140.97  2149.03  2155.02  2163.86  2168.19
                             2181.83  2237.35  2298.98  2318.97  4258.98
                             4272.47  4274.12  4282.58  4283.81  4286.89
                             4295.16  4297.60  4311.32  4319.09  4326.21
                             4334.40  4335.02  4343.13  4345.38  4351.93
                             4363.47  4398.92  4409.97  4417.91  4529.37
                             4557.66  4592.69  4839.87

 Zero-point correction=                           0.399518 (Hartree/Particle)
 Thermal correction to Energy=                    0.421954
 Thermal correction to Enthalpy=                  0.422899
 Thermal correction to Gibbs Free Energy=         0.345549
 Sum of electronic and zero-point Energies=          -1077.387335
 Sum of electronic and thermal Energies=             -1077.364898
 Sum of electronic and thermal Enthalpies=           -1077.363954
 Sum of electronic and thermal Free Energies=        -1077.441303

                     E (Thermal)             CV                S
                      KCal/Mol        Cal/Mol-Kelvin    Cal/Mol-Kelvin
 Total                  264.780             87.351            162.795
 Electronic               0.000              0.000              0.000
 Translational            0.889              2.981             43.260
 Rotational               0.889              2.981             35.817
 Vibrational            263.003             81.389             83.718
 Vibration     1          0.593              1.986              7.394
 Vibration     2          0.593              1.986              6.675
 Vibration     3          0.593              1.985              6.373
 Vibration     4          0.596              1.976              4.672
 Vibration     5          0.597              1.972              4.347
 Vibration     6          0.599              1.965              3.967
 Vibration     7          0.605              1.946              3.374
 Vibration     8          0.608              1.936              3.170
 Vibration     9          0.611              1.926              2.981
 Vibration    10          0.615              1.914              2.814
 Vibration    11          0.621              1.894              2.581
 Vibration    12          0.627              1.873              2.383
 Vibration    13          0.627              1.873              2.381
 Vibration    14          0.647              1.811              1.962
 Vibration    15          0.651              1.798              1.892
 Vibration    16          0.657              1.779              1.803
 Vibration    17          0.672              1.735              1.621
 Vibration    18          0.688              1.686              1.453
 Vibration    19          0.692              1.677              1.426
 Vibration    20          0.708              1.629              1.293
 Vibration    21          0.719              1.596              1.214
 Vibration    22          0.724              1.584              1.185
 Vibration    23          0.728              1.573              1.161
 Vibration    24          0.745              1.525              1.063
 Vibration    25          0.772              1.455              0.938
 Vibration    26          0.795              1.395              0.844
 Vibration    27          0.799              1.385              0.830
 Vibration    28          0.805              1.371              0.810
 Vibration    29          0.819              1.335              0.761
 Vibration    30          0.824              1.324              0.746
 Vibration    31          0.828              1.313              0.734
 Vibration    32          0.851              1.260              0.670
 Vibration    33          0.868              1.221              0.627
 Vibration    34          0.905              1.141              0.545
 Vibration    35          0.947              1.055              0.468

                           ! Non-Optimized Parameters !
 Normal termination of Gaussian 16 at Sat Dec 30 06:38:18 2023.
