 Q-Chem 5.4, Q-Chem, Inc., Pleasanton, CA (2021)
 Q-Chem 5.4.0 for Intel X86 EM64T Linux

User input:
--------------------------------------------------------------
$molecule
-2 1
C                  3.4809920000      2.6399170000      0.7568340000
C                  2.8073580000      1.3425670000      0.3899870000
C                  1.4181770000      1.2353720000      0.3488270000
C                  0.7423580000      0.0435960000      0.0212140000
C                  1.5697510000     -1.0602110000     -0.2641470000
C                  2.9620440000     -1.0047070000     -0.2271710000
C                  3.8017340000     -2.2135380000     -0.5513930000
C                  3.6564870000      0.2141080000      0.1030710000
O                  4.9400580000      0.2892090000      0.1391710000
C                 -0.7423900000     -0.0433160000     -0.0205230000
C                 -1.4410020000     -1.1976640000      0.3841500000
C                 -2.8303580000     -1.3047440000      0.3493630000
C                 -3.5295070000     -2.5601590000      0.8039180000
C                 -3.6564650000     -0.2142180000     -0.1034730000
O                 -4.9400130000     -0.2894700000     -0.1401040000
C                 -2.9390210000      0.9669000000     -0.5122190000
C                 -1.5469770000      1.0229680000     -0.4678830000
C                 -3.7532110000      2.1335820000     -1.0096980000
H                  4.1262590000      2.5203020000      1.6378060000
H                  2.7436180000      3.4247350000      0.9642910000
H                  4.1462080000      2.9856650000     -0.0462770000
H                  0.8255610000      2.1128880000      0.6048590000
H                  1.0986830000     -1.9999420000     -0.5501120000
H                  3.1736140000     -3.0781690000     -0.7975160000
H                  4.4772250000     -2.0165940000     -1.3950200000
H                  4.4564080000     -2.4822000000      0.2890020000
H                 -0.8682090000     -2.0425160000      0.7648250000
H                 -4.2287230000     -2.3532160000      1.6255240000
H                 -4.1436670000     -2.9887710000      0.0000830000
H                 -2.8089490000     -3.3169280000      1.1367700000
H                 -1.0560730000      1.9301910000     -0.8182280000
H                 -3.1084010000      2.9709450000     -1.3025020000
H                 -4.3749220000      1.8495580000     -1.8696940000
H                 -4.4586470000      2.4838600000     -0.2437340000
$end

$rem
BASIS  =  6-311++G(d,p)
GUI  =  2
JOB_TYPE  =  SP
METHOD  =  B3LYP
SCF_CONVERGENCE  = 8
SOLVENT_METHOD = sm12
$end

$smx
solvent dimethylformamide
charges CM5
$end

--------------------------------------------------------------

             Standard Nuclear Orientation (Angstroms)
    I     Atom           X                Y                Z
 ----------------------------------------------------------------
    1      C       3.4809920000     2.6399170000     0.7568340000
    2      C       2.8073580000     1.3425670000     0.3899870000
    3      C       1.4181770000     1.2353720000     0.3488270000
    4      C       0.7423580000     0.0435960000     0.0212140000
    5      C       1.5697510000    -1.0602110000    -0.2641470000
    6      C       2.9620440000    -1.0047070000    -0.2271710000
    7      C       3.8017340000    -2.2135380000    -0.5513930000
    8      C       3.6564870000     0.2141080000     0.1030710000
    9      O       4.9400580000     0.2892090000     0.1391710000
   10      C      -0.7423900000    -0.0433160000    -0.0205230000
   11      C      -1.4410020000    -1.1976640000     0.3841500000
   12      C      -2.8303580000    -1.3047440000     0.3493630000
   13      C      -3.5295070000    -2.5601590000     0.8039180000
   14      C      -3.6564650000    -0.2142180000    -0.1034730000
   15      O      -4.9400130000    -0.2894700000    -0.1401040000
   16      C      -2.9390210000     0.9669000000    -0.5122190000
   17      C      -1.5469770000     1.0229680000    -0.4678830000
   18      C      -3.7532110000     2.1335820000    -1.0096980000
   19      H       4.1262590000     2.5203020000     1.6378060000
   20      H       2.7436180000     3.4247350000     0.9642910000
   21      H       4.1462080000     2.9856650000    -0.0462770000
   22      H       0.8255610000     2.1128880000     0.6048590000
   23      H       1.0986830000    -1.9999420000    -0.5501120000
   24      H       3.1736140000    -3.0781690000    -0.7975160000
   25      H       4.4772250000    -2.0165940000    -1.3950200000
   26      H       4.4564080000    -2.4822000000     0.2890020000
   27      H      -0.8682090000    -2.0425160000     0.7648250000
   28      H      -4.2287230000    -2.3532160000     1.6255240000
   29      H      -4.1436670000    -2.9887710000     0.0000830000
   30      H      -2.8089490000    -3.3169280000     1.1367700000
   31      H      -1.0560730000     1.9301910000    -0.8182280000
   32      H      -3.1084010000     2.9709450000    -1.3025020000
   33      H      -4.3749220000     1.8495580000    -1.8696940000
   34      H      -4.4586470000     2.4838600000    -0.2437340000
 ----------------------------------------------------------------

   16    -770.0203982397      6.48e-09  Convergence criterion met
 Total energy in the final basis set =     -770.2789450078

                    Orbital Energies (a.u.)
 --------------------------------------------------------------

 Alpha MOs
 -- Occupied --
-19.0356 -19.0355 -10.1942 -10.1942 -10.1663 -10.1663 -10.1662 -10.1662
-10.1607 -10.1606 -10.1606 -10.1605 -10.1595 -10.1592 -10.1551 -10.1550
-10.1550 -10.1550  -0.9519  -0.9518  -0.8423  -0.8192  -0.7725  -0.7704
 -0.7548  -0.7177  -0.6796  -0.6742  -0.6664  -0.6485  -0.5817  -0.5693
 -0.5528  -0.5417  -0.4864  -0.4797  -0.4562  -0.4383  -0.4306  -0.4221
 -0.4208  -0.4098  -0.4071  -0.4071  -0.4005  -0.3992  -0.3935  -0.3910
 -0.3770  -0.3747  -0.3658  -0.3531  -0.3464  -0.3410  -0.3386  -0.3265
 -0.3264  -0.3120  -0.2847  -0.2359  -0.2345  -0.2088  -0.2075  -0.1893
 -0.1501

          Ground-State Mulliken Net Atomic Charges

     Atom                 Charge (a.u.)
  ----------------------------------------
      1 C                     1.157631
      2 C                     0.700575
      3 C                    -1.222903
      4 C                    -1.112609
      5 C                    -1.223856
      6 C                     0.703859
      7 C                     1.158396
      8 C                    -2.263372
      9 O                    -0.338176
     10 C                    -1.115065
     11 C                    -1.226647
     12 C                     0.702202
     13 C                     1.156628
     14 C                    -2.263067
     15 O                    -0.338893
     16 C                     0.701393
     17 C                    -1.226229
     18 C                     1.154623
     19 H                     0.188171
     20 H                     0.278747
     21 H                     0.198163
     22 H                     0.058618
     23 H                     0.058796
     24 H                     0.279203
     25 H                     0.188174
     26 H                     0.198155
     27 H                     0.058509
     28 H                     0.188159
     29 H                     0.198062
     30 H                     0.278913
     31 H                     0.058900
     32 H                     0.278837
     33 H                     0.188146
     34 H                     0.197958
  ----------------------------------------
  Sum of atomic charges =    -2.000000

                    Cartesian Multipole Moments
 -----------------------------------------------------------------
    Charge (ESU x 10^10)
                -9.6064
    Dipole Moment (Debye)
         X       0.0016      Y      -0.0021      Z      -0.0004
       Tot       0.0027
    Quadrupole Moments (Debye-Ang)
        XX    -284.8328     XY      -9.2719     YY    -127.2047
        XZ      -4.6163     YZ      -0.0237     ZZ    -122.0555

 Total job time:  1002.65s(wall), 7844.34s(cpu)
        *  Thank you very much for using Q-Chem.  Have a nice day.  *
