 Gaussian 16, Revision A.03,
 Gaussian 16:  ES64L-G16RevA.03 25-Dec-2016

 ----------------------------------------------
 #P UB3LYP/6-311++G(d,p) nosym opt freq SCF=YQC
 ----------------------------------------------

 -------
 Reduced
 -------
 Symbolic Z-matrix:
 Charge = -2 Multiplicity = 1

 SCF Done:  E(UB3LYP) =  -996.240535427     a.u. after    8 cycles
 SCF Done:  E(UB3LYP) =  -996.246487381     A.U. after   33 cycles
 SCF Done:  E(UB3LYP) =  -996.246609598     a.u. after    3 cycles
 SCF Done:  E(UB3LYP) =  -996.284023149     a.u. after   28 cycles
 SCF Done:  E(UB3LYP) =  -996.284330811     A.U. after   33 cycles
 SCF Done:  E(UB3LYP) =  -996.284330811     a.u. after    1 cycles
 SCF Done:  E(UB3LYP) =  -996.292134304     a.u. after   68 cycles
 SCF Done:  E(UB3LYP) =  -996.292625047     A.U. after   33 cycles
 SCF Done:  E(UB3LYP) =  -996.292625047     a.u. after    1 cycles
 SCF Done:  E(UB3LYP) =  -996.292851255     a.u. after    5 cycles
 SCF Done:  E(UB3LYP) =  -996.293015729     a.u. after    1 cycles
 SCF Done:  E(UB3LYP) =  -996.293040720     A.U. after   27 cycles
 SCF Done:  E(UB3LYP) =  -996.293032005     a.u. after    2 cycles
 SCF Done:  E(UB3LYP) =  -996.293052451     A.U. after   19 cycles
 SCF Done:  E(UB3LYP) =  -996.293026998     a.u. after    1 cycles
 SCF Done:  E(UB3LYP) =  -996.293056050     A.U. after   16 cycles
 SCF Done:  E(UB3LYP) =  -996.293052509     a.u. after    1 cycles
 SCF Done:  E(UB3LYP) =  -996.293056572     A.U. after   21 cycles
 Optimization completed.
    -- Stationary point found.
 Normal termination of Gaussian 16 at Thu Dec 21 21:40:41 2023.

 ----------------------------------------------------------------------
 #P Geom=AllCheck Guess=TCheck SCRF=Check GenChk UB3LYP/6-311++G(d,p) F
 req
 ----------------------------------------------------------------------

 Structure from the checkpoint file:  "136-an.chk"
 -------
 Reduced
 -------
 Charge = -2 Multiplicity = 1

                          Input orientation:
 ---------------------------------------------------------------------
 Center     Atomic      Atomic             Coordinates (Angstroms)
 Number     Number       Type             X           Y           Z
 ---------------------------------------------------------------------
      1          8           0       -0.050908   -1.560218   -2.393762
      2          6           0       -0.027517   -0.845658   -1.329868
      3          6           0        1.206298   -0.461415   -0.672340
      4          6           0        2.428050   -0.883696   -1.214481
      5          6           0        3.665298   -0.562589   -0.651071
      6          6           0        4.911699   -0.991253   -1.201541
      7          6           0        6.113198   -0.659911   -0.625514
      8          6           0        6.139251    0.140347    0.566008
      9          6           0        4.962908    0.572688    1.126532
     10          6           0        3.691754    0.250963    0.559549
     11          6           0        2.478983    0.675996    1.106775
     12          6           0        1.232874    0.358459    0.548319
     13          6           0        0.027604    0.846111    1.189520
     14          8           0        0.050727    1.560525    2.253830
     15          6           0       -1.206164    0.461615    0.532225
     16          6           0       -2.428146    0.883227    1.074889
     17          6           0       -3.665250    0.562207    0.511363
     18          6           0       -4.911954    0.990648    1.061896
     19          6           0       -6.113162    0.659365    0.485531
     20          6           0       -6.139250   -0.140718   -0.706143
     21          6           0       -4.962630   -0.572407   -1.266836
     22          6           0       -3.691801   -0.250375   -0.699706
     23          6           0       -2.478798   -0.675048   -1.247257
     24          6           0       -1.233069   -0.357840   -0.688419
     25          1           0        2.376894   -1.487879   -2.116113
     26          1           0        4.888494   -1.597775   -2.104564
     27          1           0        7.046461   -1.000695   -1.066551
     28          1           0        7.092207    0.401107    1.019437
     29          1           0        4.979421    1.179484    2.029515
     30          1           0        2.467153    1.282805    2.008018
     31          1           0       -2.376900    1.487105    1.976700
     32          1           0       -4.888913    1.596752    1.965182
     33          1           0       -7.046613    0.999316    0.926910
     34          1           0       -7.092190   -0.400936   -1.159841
     35          1           0       -4.978949   -1.178762   -2.170104
     36          1           0       -2.467062   -1.281545   -2.148688
 ---------------------------------------------------------------------

 SCF Done:  E(UB3LYP) =  -996.293056572     a.u. after    1 cycles
 SCF Done:  E(UB3LYP) =  -996.293056572     A.U. after    1 cycles

 Alpha  occ. eigenvalues --  -18.79806 -18.79776  -9.97220  -9.97217  -9.97217
 Alpha  occ. eigenvalues --   -9.97214  -9.97124  -9.97121  -9.97087  -9.97084
 Alpha  occ. eigenvalues --   -9.95820  -9.95797  -9.95553  -9.95550  -9.95518
 Alpha  occ. eigenvalues --   -9.95515  -9.93762  -9.93760  -9.93753  -9.93751
 Alpha  occ. eigenvalues --   -9.92617  -9.92615  -9.92584  -9.92582  -0.71801
 Alpha  occ. eigenvalues --   -0.71412  -0.65117  -0.65101  -0.59926  -0.59151
 Alpha  occ. eigenvalues --   -0.55659  -0.55620  -0.53818  -0.50694  -0.50017
 Alpha  occ. eigenvalues --   -0.49815  -0.43605  -0.42519  -0.39978  -0.39626
 Alpha  occ. eigenvalues --   -0.37802  -0.36265  -0.34530  -0.31244  -0.30022
 Alpha  occ. eigenvalues --   -0.29765  -0.29668  -0.26012  -0.24992  -0.23577
 Alpha  occ. eigenvalues --   -0.23279  -0.22636  -0.22137  -0.21187  -0.19562
 Alpha  occ. eigenvalues --   -0.18661  -0.18248  -0.17861  -0.17845  -0.17209
 Alpha  occ. eigenvalues --   -0.16008  -0.15668  -0.15055  -0.14399  -0.13453
 Alpha  occ. eigenvalues --   -0.13150  -0.10800  -0.10550  -0.10425  -0.10237
 Alpha  occ. eigenvalues --   -0.08273  -0.07407  -0.07311  -0.06754  -0.00994
 Alpha  occ. eigenvalues --   -0.00513   0.00135   0.00908   0.02248   0.02804
 Alpha  occ. eigenvalues --    0.11981
 Alpha virt. eigenvalues --    0.13683   0.13685   0.14650   0.15340   0.15342
 Alpha virt. eigenvalues --    0.17273   0.17412   0.17502   0.18559   0.18792
 Alpha virt. eigenvalues --    0.19162   0.20810   0.21128   0.21939   0.22160

  Beta  occ. eigenvalues --  -18.79806 -18.79776  -9.97220  -9.97217  -9.97217
  Beta  occ. eigenvalues --   -9.97214  -9.97124  -9.97121  -9.97087  -9.97084
  Beta  occ. eigenvalues --   -9.95820  -9.95797  -9.95553  -9.95550  -9.95518
  Beta  occ. eigenvalues --   -9.95515  -9.93762  -9.93760  -9.93753  -9.93751
  Beta  occ. eigenvalues --   -9.92617  -9.92615  -9.92584  -9.92582  -0.71801
  Beta  occ. eigenvalues --   -0.71412  -0.65117  -0.65101  -0.59926  -0.59151
  Beta  occ. eigenvalues --   -0.55659  -0.55620  -0.53818  -0.50694  -0.50017
  Beta  occ. eigenvalues --   -0.49815  -0.43605  -0.42519  -0.39978  -0.39626
  Beta  occ. eigenvalues --   -0.37802  -0.36265  -0.34530  -0.31244  -0.30022
  Beta  occ. eigenvalues --   -0.29765  -0.29668  -0.26012  -0.24992  -0.23577
  Beta  occ. eigenvalues --   -0.23279  -0.22636  -0.22137  -0.21187  -0.19562
  Beta  occ. eigenvalues --   -0.18661  -0.18248  -0.17861  -0.17845  -0.17209
  Beta  occ. eigenvalues --   -0.16008  -0.15668  -0.15055  -0.14399  -0.13453
  Beta  occ. eigenvalues --   -0.13150  -0.10800  -0.10550  -0.10425  -0.10237
  Beta  occ. eigenvalues --   -0.08273  -0.07407  -0.07311  -0.06754  -0.00994
  Beta  occ. eigenvalues --   -0.00513   0.00135   0.00908   0.02248   0.02804
  Beta  occ. eigenvalues --    0.11981
  Beta virt. eigenvalues --    0.13683   0.13685   0.14650   0.15340   0.15342
  Beta virt. eigenvalues --    0.17273   0.17412   0.17502   0.18559   0.18792
  Beta virt. eigenvalues --    0.19162   0.20810   0.21128   0.21939   0.22160

 Mulliken charges and spin densities:
               1          2
     1  O   -0.468965  -0.000000
     2  C   -0.961761   0.000000
     3  C    0.404588   0.000000
     4  C    0.009760   0.000000
     5  C    0.120226  -0.000000
     6  C   -0.266260  -0.000000
     7  C   -0.348576   0.000000
     8  C   -0.347923  -0.000000
     9  C   -0.267405   0.000000
    10  C    0.121555  -0.000000
    11  C    0.009895  -0.000000
    12  C    0.403533   0.000000
    13  C   -0.959861   0.000000
    14  O   -0.469743   0.000000
    15  C    0.403913   0.000000
    16  C    0.009948   0.000000
    17  C    0.121674  -0.000000
    18  C   -0.267448  -0.000000
    19  C   -0.347946  -0.000000
    20  C   -0.348582  -0.000000
    21  C   -0.266295   0.000000
    22  C    0.120162  -0.000000
    23  C    0.009623   0.000000
    24  C    0.404976   0.000000
    25  H    0.114618  -0.000000
    26  H    0.085139  -0.000000
    27  H    0.095393   0.000000
    28  H    0.095396   0.000000
    29  H    0.085142  -0.000000
    30  H    0.114706   0.000000
    31  H    0.114737  -0.000000
    32  H    0.085163   0.000000
    33  H    0.095408  -0.000000
    34  H    0.095404   0.000000
    35  H    0.085155   0.000000
    36  H    0.114651  -0.000000
 Sum of Mulliken charges =  -2.00000   0.00000

 Dipole moment (field-independent basis, Debye):
    X=             -0.0046    Y=             -0.0068    Z=              0.6628  Tot=              0.6629
 Quadrupole moment (field-independent basis, Debye-Ang):
   XX=           -261.9746   YY=           -166.8661   ZZ=           -180.4715
   XY=              4.1486   XZ=             -1.2485   YZ=            -16.7798

  Exact polarizability: 919.820 -30.269 221.482   8.070  93.933 297.144
 Approx polarizability:1684.181 -55.287 422.871  17.779 257.649 631.363

                      1                      2                      3
                      A                      A                      A
 Frequencies --     28.1737                66.0645                90.8314
 Red. masses --      7.0545                 3.9102                 5.5031
 Frc consts  --      0.0033                 0.0101                 0.0268
 IR Inten    --      2.9321                 0.0000                 0.0001

                      4                      5                      6
                      A                      A                      A
 Frequencies --    100.3990               115.8030               120.4527
 Red. masses --      5.9224                 5.7822                 8.7263
 Frc consts  --      0.0352                 0.0457                 0.0746
 IR Inten    --      0.0000                 9.8591                 5.0739

                      7                      8                      9
                      A                      A                      A
 Frequencies --    197.5959               226.5960               227.5508
 Red. masses --      6.5551                 4.2727                 7.7297
 Frc consts  --      0.1508                 0.1293                 0.2358
 IR Inten    --      0.0007                 0.0060                 6.4166

                     10                     11                     12
                      A                      A                      A
 Frequencies --    238.7818               255.3317               304.5952
 Red. masses --      4.6386                 7.1340                 6.1905
 Frc consts  --      0.1558                 0.2740                 0.3384
 IR Inten    --      0.0124                 0.0012                 0.0005

                     13                     14                     15
                      A                      A                      A
 Frequencies --    327.3034               334.6233               338.9872
 Red. masses --      7.7173                12.2308                 5.0275
 Frc consts  --      0.4871                 0.8069                 0.3404
 IR Inten    --      0.0002                12.4890                 4.4326

                     16                     17                     18
                      A                      A                      A
 Frequencies --    412.3691               412.5431               452.6886
 Red. masses --      6.7105                 3.8771                 2.8008
 Frc consts  --      0.6723                 0.3888                 0.3382
 IR Inten    --      0.0363                 0.0808                 0.0009

                     19                     20                     21
                      A                      A                      A
 Frequencies --    458.8155               473.4883               481.1596
 Red. masses --      2.6258                 3.0457                13.6026
 Frc consts  --      0.3257                 0.4023                 1.8555
 IR Inten    --     42.5594                 0.0002                 0.0055

                     22                     23                     24
                      A                      A                      A
 Frequencies --    491.7727               517.4434               532.7300
 Red. masses --      5.8893                 4.6656                 7.6804
 Frc consts  --      0.8392                 0.7360                 1.2843
 IR Inten    --      0.0009                 0.0000                 0.0051

                     25                     26                     27
                      A                      A                      A
 Frequencies --    569.4075               575.9756               588.6715
 Red. masses --      6.8765                 4.2738                 6.5836
 Frc consts  --      1.3136                 0.8354                 1.3442
 IR Inten    --     99.0895                 0.0014                 0.0003

                     28                     29                     30
                      A                      A                      A
 Frequencies --    619.3378               638.3917               666.2122
 Red. masses --      6.6259                 6.8046                 5.9778
 Frc consts  --      1.4974                 1.6339                 1.5632
 IR Inten    --      0.0000                21.8430                 0.0000

                     31                     32                     33
                      A                      A                      A
 Frequencies --    691.7522               695.4943               706.9496
 Red. masses --      6.7737                 1.5145                 1.2768
 Frc consts  --      1.9098                 0.4316                 0.3760
 IR Inten    --      0.0019                59.3973                 0.0203

                     34                     35                     36
                      A                      A                      A
 Frequencies --    709.2764               712.9191               731.7113
 Red. masses --      6.6645                 3.3507                 3.3176
 Frc consts  --      1.9754                 1.0034                 1.0465
 IR Inten    --    154.0336                 0.0003                80.1564

                     37                     38                     39
                      A                      A                      A
 Frequencies --    731.8325               755.1179               774.3332
 Red. masses --      2.6051                 5.1173                 1.6169
 Frc consts  --      0.8221                 1.7192                 0.5712
 IR Inten    --      0.0214                89.5580                 0.0288

                     40                     41                     42
                      A                      A                      A
 Frequencies --    774.4575               776.4308               776.7409
 Red. masses --      7.9217                 3.8982                 1.7042
 Frc consts  --      2.7994                 1.3846                 0.6058
 IR Inten    --      0.0005                 0.0006                 0.0001

                     43                     44                     45
                      A                      A                      A
 Frequencies --    824.3976               896.8353               906.0475
 Red. masses --      3.6934                 4.5730                 1.3249
 Frc consts  --      1.4789                 2.1671                 0.6408
 IR Inten    --      0.0005               723.5927                 0.0097

                     46                     47                     48
                      A                      A                      A
 Frequencies --    909.6777               911.8528               914.6574
 Red. masses --      1.3574                 1.2344                 1.2436
 Frc consts  --      0.6618                 0.6047                 0.6130
 IR Inten    --      5.6110                 0.0007                 0.0055

                     49                     50                     51
                      A                      A                      A
 Frequencies --    928.9708               933.2163               934.2632
 Red. masses --      1.3585                 4.6114                 1.5452
 Frc consts  --      0.6908                 2.3662                 0.7946
 IR Inten    --      0.0001                 0.0075                 0.0045

                     52                     53                     54
                      A                      A                      A
 Frequencies --    943.0947               947.7593               964.1364
 Red. masses --      1.4534                 1.5110                 7.5173
 Frc consts  --      0.7616                 0.7996                 4.1171
 IR Inten    --      0.0028                46.6480              2194.5181

                     55                     56                     57
                      A                      A                      A
 Frequencies --    967.3839               994.2323               998.5034
 Red. masses --      3.2554                 2.3266                 2.4164
 Frc consts  --      1.7949                 1.3550                 1.4194
 IR Inten    --     78.6682               415.4396                 0.0098

                     58                     59                     60
                      A                      A                      A
 Frequencies --   1095.6684              1130.4264              1134.7863
 Red. masses --      3.0238                 1.9462                 1.7375
 Frc consts  --      2.1388                 1.4653                 1.3183
 IR Inten    --    875.2060               324.3357                 0.0644

                     61                     62                     63
                      A                      A                      A
 Frequencies --   1135.9071              1160.2116              1164.4052
 Red. masses --      1.4853                 1.0974                 2.2700
 Frc consts  --      1.1291                 0.8704                 1.8133
 IR Inten    --      0.0256                 0.0075               627.1973

                     64                     65                     66
                      A                      A                      A
 Frequencies --   1165.0595              1175.2443              1227.0380
 Red. masses --      1.3108                 2.5048                 2.1706
 Frc consts  --      1.0483                 2.0384                 1.9255
 IR Inten    --     24.1364                 0.0170                 0.0017

                     67                     68                     69
                      A                      A                      A
 Frequencies --   1255.1720              1255.3945              1272.7887
 Red. masses --      2.7220                 1.5362                 1.8211
 Frc consts  --      2.5267                 1.4265                 1.7382
 IR Inten    --     27.1373               123.8354               240.1830

                     70                     71                     72
                      A                      A                      A
 Frequencies --   1273.5339              1278.1360              1356.5817
 Red. masses --      2.7207                 3.2601                 5.6933
 Frc consts  --      2.5998                 3.1378                 6.1732
 IR Inten    --      0.3554              1020.8837                 0.0952

                     73                     74                     75
                      A                      A                      A
 Frequencies --   1362.4047              1365.6505              1375.8251
 Red. masses --      2.0657                 6.6189                 2.7264
 Frc consts  --      2.2590                 7.2730                 3.0407
 IR Inten    --      0.8793               406.2421               407.4115

                     76                     77                     78
                      A                      A                      A
 Frequencies --   1395.3821              1397.7452              1440.5980
 Red. masses --      3.3858                 4.3938                 3.6679
 Frc consts  --      3.8842                 5.0577                 4.4849
 IR Inten    --    190.4580                 0.0982               625.5115

                     79                     80                     81
                      A                      A                      A
 Frequencies --   1453.4259              1454.8646              1457.1653
 Red. masses --      4.3057                 2.9959                 3.3950
 Frc consts  --      5.3589                 3.7361                 4.2473
 IR Inten    --      0.1596                 0.0126                68.4285

                     82                     83                     84
                      A                      A                      A
 Frequencies --   1495.0978              1499.9556              1523.0735
 Red. masses --      3.2293                 3.1891                 5.6507
 Frc consts  --      4.2530                 4.2274                 7.7231
 IR Inten    --      0.0020                23.5673                 0.0123

                     85                     86                     87
                      A                      A                      A
 Frequencies --   1531.5956              1536.4475              1546.4733
 Red. masses --      5.9638                 7.8266                 6.3664
 Frc consts  --      8.2425                10.8858                 8.9707
 IR Inten    --      0.0255               105.1319               135.2215

                     88                     89                     90
                      A                      A                      A
 Frequencies --   1570.4918              1600.0861              1603.6680
 Red. masses --      9.0138                 5.1913                 5.3106
 Frc consts  --     13.0987                 7.8309                 8.0468
 IR Inten    --      0.0127                 2.3901                 0.0063

                     91                     92                     93
                      A                      A                      A
 Frequencies --   3108.1503              3108.5695              3118.0560
 Red. masses --      1.0810                 1.0813                 1.0855
 Frc consts  --      6.1531                 6.1565                 6.2180
 IR Inten    --      5.5226                 0.0237                 0.0182

                     94                     95                     96
                      A                      A                      A
 Frequencies --   3118.2080              3132.2294              3132.3325
 Red. masses --      1.0856                 1.0927                 1.0927
 Frc consts  --      6.2189                 6.3162                 6.3166
 IR Inten    --      0.0101                44.7264               158.7185

                     97                     98                     99
                      A                      A                      A
 Frequencies --   3146.3031              3146.5411              3147.9346
 Red. masses --      1.0959                 1.0956                 1.0880
 Frc consts  --      6.3916                 6.3910                 6.3524
 IR Inten    --    230.4523                 0.8450                 1.8187

                    100                    101                    102
                      A                      A                      A
 Frequencies --   3148.3636              3149.9756              3151.0776
 Red. masses --      1.0883                 1.0886                 1.0889
 Frc consts  --      6.3556                 6.3641                 6.3705
 IR Inten    --     36.4023               136.7547                 0.6810

 - Thermochemistry -
 -------------------
 Temperature   298.150 Kelvin.  Pressure   1.00000 Atm.
 Atom     1 has atomic number  8 and mass  15.99491

 Molecular mass:   308.08373 amu.
 Principal axes and moments of inertia in atomic units:
                           1         2         3
     Eigenvalues --  2238.23291********************
           X            0.99908   0.01816   0.03880
           Y           -0.04233   0.55737   0.82918
           Z            0.00657   0.83006  -0.55763
 This molecule is an asymmetric top.
 Rotational symmetry number  1.
 Warning -- assumption of classical behavior for rotation
           may cause significant error
 Rotational temperatures (Kelvin)      0.03870     0.00562     0.00491
 Rotational constants (GHZ):           0.80632     0.11719     0.10232
 Zero-point vibrational energy     693679.7 (Joules/Mol)
                                  165.79342 (Kcal/Mol)
 Warning -- explicit consideration of  28 degrees of freedom as
           vibrations may cause significant error
 Vibrational temperatures:     40.54    95.05   130.69   144.45   166.61
          (Kelvin)            173.30   284.30   326.02   327.39   343.55
                              367.37   438.24   470.92   481.45   487.73
                              593.31   593.56   651.32   660.13   681.24
                              692.28   707.55   744.49   766.48   819.25
                              828.70   846.97   891.09   918.50   958.53
                              995.28  1000.66  1017.14  1020.49  1025.73
                             1052.77  1052.94  1086.45  1114.09  1114.27
                             1117.11  1117.56  1186.12  1290.35  1303.60
                             1308.82  1311.95  1315.99  1336.58  1342.69
                             1344.20  1356.90  1363.61  1387.18  1391.85
                             1430.48  1436.62  1576.42  1626.43  1632.70
                             1634.32  1669.29  1675.32  1676.26  1690.91
                             1765.43  1805.91  1806.23  1831.26  1832.33
                             1838.95  1951.82  1960.20  1964.87  1979.51
                             2007.64  2011.04  2072.70  2091.16  2093.23
                             2096.54  2151.11  2158.10  2191.36  2203.62
                             2210.61  2225.03  2259.59  2302.17  2307.32
                             4471.94  4472.54  4486.19  4486.41  4506.58
                             4506.73  4526.83  4527.17  4529.18  4529.79
                             4532.11  4533.70

 Zero-point correction=                           0.264209 (Hartree/Particle)
 Thermal correction to Energy=                    0.281201
 Thermal correction to Enthalpy=                  0.282145
 Thermal correction to Gibbs Free Energy=         0.219770
 Sum of electronic and zero-point Energies=           -996.028848
 Sum of electronic and thermal Energies=              -996.011856
 Sum of electronic and thermal Enthalpies=            -996.010912
 Sum of electronic and thermal Free Energies=         -996.073286

                     E (Thermal)             CV                S
                      KCal/Mol        Cal/Mol-Kelvin    Cal/Mol-Kelvin
 Total                  176.456             71.723            131.278
 Electronic               0.000              0.000              0.000
 Translational            0.889              2.981             43.072
 Rotational               0.889              2.981             34.763
 Vibrational            174.679             65.761             53.443
 Vibration     1          0.593              1.984              5.954
 Vibration     2          0.597              1.970              4.267
 Vibration     3          0.602              1.956              3.642
 Vibration     4          0.604              1.949              3.447
 Vibration     5          0.608              1.936              3.169
 Vibration     6          0.609              1.932              3.093
 Vibration     7          0.637              1.843              2.155
 Vibration     8          0.650              1.800              1.906
 Vibration     9          0.651              1.799              1.898
 Vibration    10          0.657              1.781              1.812
 Vibration    11          0.666              1.754              1.693
 Vibration    12          0.696              1.665              1.392
 Vibration    13          0.711              1.621              1.273
 Vibration    14          0.716              1.606              1.238
 Vibration    15          0.719              1.598              1.217
 Vibration    16          0.776              1.443              0.918
 Vibration    17          0.776              1.443              0.918
 Vibration    18          0.811              1.355              0.788
 Vibration    19          0.817              1.341              0.770
 Vibration    20          0.830              1.309              0.728
 Vibration    21          0.837              1.292              0.707
 Vibration    22          0.848              1.268              0.679
 Vibration    23          0.872              1.211              0.616
 Vibration    24          0.888              1.178              0.581
 Vibration    25          0.925              1.097              0.505
 Vibration    26          0.932              1.083              0.493
 Vibration    27          0.946              1.056              0.470
 Vibration    28          0.979              0.991              0.418

 Optimization completed.
    -- Stationary point found.
 Normal termination of Gaussian 16 at Fri Dec 22 00:43:52 2023.
