 Q-Chem 5.4, Q-Chem, Inc., Pleasanton, CA (2021)
 Q-Chem 5.4.0 for Intel X86 EM64T Linux

User input:
--------------------------------------------------------------
$molecule
-2 1
C                  4.8442370000     -2.8655350000     -0.3520580000
C                  5.5803240000     -1.9750800000     -1.1008990000
C                  4.9917370000     -0.7469320000     -1.5200780000
C                  3.4969770000     -2.5991900000      0.0212990000
C                  2.8985410000     -1.3540140000     -0.4015160000
C                  3.6888670000     -0.4606580000     -1.1688120000
C                  2.7661050000     -3.5339430000      0.8057930000
C                  1.4200180000     -3.1973520000      1.1370560000
C                  0.7931760000     -1.9663430000      0.6923220000
C                  1.5415210000     -0.9890190000     -0.0665040000
C                  0.6798940000     -4.1193020000      1.9730200000
C                 -0.6116970000     -3.8248330000      2.3555570000
C                 -0.5935520000     -1.7122910000      1.0555470000
C                 -1.2081120000     -2.6298350000      1.8772650000
O                  3.3144840000     -4.6695800000      1.2229300000
O                  1.0654010000      0.1633020000     -0.4346970000
O                  1.2780590000     -5.2586020000      2.3828080000
Br                -3.0685550000     -2.3063120000      2.4370020000
N                 -1.2519110000     -0.5964840000      0.5196450000
H                  5.2676900000     -3.8066850000     -0.0168300000
H                  6.6088270000     -2.2066180000     -1.3726280000
H                  5.5687040000     -0.0404910000     -2.1139580000
H                  3.2128080000      0.4668660000     -1.4698050000
H                 -1.1532580000     -4.5060330000      2.9988850000
H                  2.2598070000     -5.1817640000      1.9396270000
H                 -0.5450100000      0.0461540000      0.1210230000
H                 -1.9264100000     -0.1833970000      1.1494250000
$end

$rem
BASIS  =  6-311++G(d,p)
GUI  =  2
JOB_TYPE  =  SP
METHOD  =  B3LYP
SCF_CONVERGENCE  = 8
SOLVENT_METHOD = sm12
$end

$smx
solvent dimethylformamide
charges CM5
$end

--------------------------------------------------------------

             Standard Nuclear Orientation (Angstroms)
    I     Atom           X                Y                Z
 ----------------------------------------------------------------
    1      C       4.8442370000    -2.8655350000    -0.3520580000
    2      C       5.5803240000    -1.9750800000    -1.1008990000
    3      C       4.9917370000    -0.7469320000    -1.5200780000
    4      C       3.4969770000    -2.5991900000     0.0212990000
    5      C       2.8985410000    -1.3540140000    -0.4015160000
    6      C       3.6888670000    -0.4606580000    -1.1688120000
    7      C       2.7661050000    -3.5339430000     0.8057930000
    8      C       1.4200180000    -3.1973520000     1.1370560000
    9      C       0.7931760000    -1.9663430000     0.6923220000
   10      C       1.5415210000    -0.9890190000    -0.0665040000
   11      C       0.6798940000    -4.1193020000     1.9730200000
   12      C      -0.6116970000    -3.8248330000     2.3555570000
   13      C      -0.5935520000    -1.7122910000     1.0555470000
   14      C      -1.2081120000    -2.6298350000     1.8772650000
   15      O       3.3144840000    -4.6695800000     1.2229300000
   16      O       1.0654010000     0.1633020000    -0.4346970000
   17      O       1.2780590000    -5.2586020000     2.3828080000
   18      Br     -3.0685550000    -2.3063120000     2.4370020000
   19      N      -1.2519110000    -0.5964840000     0.5196450000
   20      H       5.2676900000    -3.8066850000    -0.0168300000
   21      H       6.6088270000    -2.2066180000    -1.3726280000
   22      H       5.5687040000    -0.0404910000    -2.1139580000
   23      H       3.2128080000     0.4668660000    -1.4698050000
   24      H      -1.1532580000    -4.5060330000     2.9988850000
   25      H       2.2598070000    -5.1817640000     1.9396270000
   26      H      -0.5450100000     0.0461540000     0.1210230000
   27      H      -1.9264100000    -0.1833970000     1.1494250000
 ----------------------------------------------------------------

   17   -3393.1309851442      9.53e-09  Convergence criterion met
 Total energy in the final basis set =    -3393.3951955962

                    Orbital Energies (a.u.)
 --------------------------------------------------------------

 Alpha MOs
 -- Occupied --
******** -62.4753 -56.2957 -56.2922 -56.2921 -19.0946 -19.0538 -19.0402
-14.2926 -10.2141 -10.2047 -10.2036 -10.2005 -10.1966 -10.1752 -10.1735
-10.1713 -10.1702 -10.1652 -10.1613 -10.1601 -10.1585 -10.1567  -8.6835
 -6.5139  -6.5025  -6.5022  -2.6248  -2.6217  -2.6214  -2.6124  -2.6123
 -1.0173  -0.9601  -0.9552  -0.8999  -0.8487  -0.8270  -0.7960  -0.7598
 -0.7469  -0.7216  -0.7062  -0.6570  -0.6254  -0.6139  -0.5715  -0.5571
 -0.5367  -0.5104  -0.5001  -0.4805  -0.4597  -0.4534  -0.4441  -0.4348
 -0.4212  -0.4124  -0.4085  -0.3989  -0.3849  -0.3793  -0.3776  -0.3683
 -0.3618  -0.3428  -0.3401  -0.3322  -0.3285  -0.3219  -0.2955  -0.2852
 -0.2677  -0.2512  -0.2425  -0.2319  -0.2297  -0.2157  -0.1885  -0.1257

          Ground-State Mulliken Net Atomic Charges

     Atom                 Charge (a.u.)
  ----------------------------------------
      1 C                     0.148182
      2 C                     1.513292
      3 C                     1.647977
      4 C                    -1.419273
      5 C                    -1.219320
      6 C                     0.097637
      7 C                    -1.941775
      8 C                    -1.519916
      9 C                    -3.088605
     10 C                    -1.824739
     11 C                    -0.727626
     12 C                     1.502248
     13 C                    -1.365694
     14 C                     4.494419
     15 O                    -0.386284
     16 O                    -0.296257
     17 O                    -0.376999
     18 Br                    0.559669
     19 N                    -0.086012
     20 H                     0.164373
     21 H                     0.400329
     22 H                     0.392665
     23 H                     0.144046
     24 H                     0.210434
     25 H                     0.409494
     26 H                     0.256060
     27 H                     0.311676
  ----------------------------------------
  Sum of atomic charges =    -2.000000

                    Cartesian Multipole Moments
 -----------------------------------------------------------------
    Charge (ESU x 10^10)
                -9.6064
    Dipole Moment (Debye)
         X     -14.5625      Y      24.4195      Z      -6.5319
       Tot      29.1727
    Quadrupole Moments (Debye-Ang)
        XX    -204.1698     XY      41.6576     YY    -235.0720
        XZ       1.2018     YZ      36.8032     ZZ    -156.7272

 Total job time:  891.93s(wall), 6507.27s(cpu)
        *  Thank you very much for using Q-Chem.  Have a nice day.  *
