 Q-Chem 5.4, Q-Chem, Inc., Pleasanton, CA (2021)
 Q-Chem 5.4.0 for Intel X86 EM64T Linux

User input:
--------------------------------------------------------------
$molecule
-2 1
C                  4.7030440000     -0.6737320000      0.9150810000
O                  4.2763600000      0.3023560000     -0.0120270000
C                  2.9038880000      0.4603190000     -0.1842460000
C                  2.5302160000      1.5479200000     -1.0191370000
C                  1.1949020000      1.7883950000     -1.2555830000
C                  0.1675370000      0.9899670000     -0.6965930000
C                 -1.2194520000      1.3065060000     -0.9909460000
O                 -1.5598310000      2.2887780000     -1.7361230000
C                 -2.1871510000      0.4164150000     -0.3767400000
C                 -3.5686590000      0.6316750000     -0.6017830000
C                 -4.5405400000     -0.1772920000     -0.0473310000
C                 -4.1542800000     -1.2670880000      0.7825410000
C                 -2.8164690000     -1.5054360000      1.0200150000
C                 -1.7927460000     -0.6954040000      0.4636720000
C                 -0.4079860000     -1.0056600000      0.7554900000
O                 -0.0598430000     -1.9910940000      1.4994470000
C                  0.5556400000     -0.1170770000      0.1402540000
C                  1.9425940000     -0.3478590000      0.3760830000
H                  4.4277970000     -1.6873570000      0.5964120000
H                  4.2719520000     -0.4990400000      1.9109400000
H                  5.7918260000     -0.6040390000      0.9780870000
H                  3.3100170000      2.1677950000     -1.4513530000
H                  0.8804570000      2.6123460000     -1.8883710000
H                 -3.8291580000      1.4717400000     -1.2384690000
H                 -5.5939980000      0.0163480000     -0.2406670000
H                 -4.9127030000     -1.9095050000      1.2267630000
H                 -2.4916090000     -2.3292670000      1.6479710000
H                  2.1781960000     -1.1907100000      1.0136870000
$end

$rem
BASIS  =  6-311++G(d,p)
GUI  =  2
JOB_TYPE  =  SP
METHOD  =  B3LYP
SCF_CONVERGENCE  = 8
SOLVENT_METHOD = sm12
$end

$smx
solvent dimethylformamide
charges CM5
$end

--------------------------------------------------------------

             Standard Nuclear Orientation (Angstroms)
    I     Atom           X                Y                Z
 ----------------------------------------------------------------
    1      C       4.7030440000    -0.6737320000     0.9150810000
    2      O       4.2763600000     0.3023560000    -0.0120270000
    3      C       2.9038880000     0.4603190000    -0.1842460000
    4      C       2.5302160000     1.5479200000    -1.0191370000
    5      C       1.1949020000     1.7883950000    -1.2555830000
    6      C       0.1675370000     0.9899670000    -0.6965930000
    7      C      -1.2194520000     1.3065060000    -0.9909460000
    8      O      -1.5598310000     2.2887780000    -1.7361230000
    9      C      -2.1871510000     0.4164150000    -0.3767400000
   10      C      -3.5686590000     0.6316750000    -0.6017830000
   11      C      -4.5405400000    -0.1772920000    -0.0473310000
   12      C      -4.1542800000    -1.2670880000     0.7825410000
   13      C      -2.8164690000    -1.5054360000     1.0200150000
   14      C      -1.7927460000    -0.6954040000     0.4636720000
   15      C      -0.4079860000    -1.0056600000     0.7554900000
   16      O      -0.0598430000    -1.9910940000     1.4994470000
   17      C       0.5556400000    -0.1170770000     0.1402540000
   18      C       1.9425940000    -0.3478590000     0.3760830000
   19      H       4.4277970000    -1.6873570000     0.5964120000
   20      H       4.2719520000    -0.4990400000     1.9109400000
   21      H       5.7918260000    -0.6040390000     0.9780870000
   22      H       3.3100170000     2.1677950000    -1.4513530000
   23      H       0.8804570000     2.6123460000    -1.8883710000
   24      H      -3.8291580000     1.4717400000    -1.2384690000
   25      H      -5.5939980000     0.0163480000    -0.2406670000
   26      H      -4.9127030000    -1.9095050000     1.2267630000
   27      H      -2.4916090000    -2.3292670000     1.6479710000
   28      H       2.1781960000    -1.1907100000     1.0136870000
 ----------------------------------------------------------------

   18    -803.4698906857      5.05e-09  Convergence criterion met
 Total energy in the final basis set =     -803.7564533147

                    Orbital Energies (a.u.)
 --------------------------------------------------------------

 Alpha MOs
 -- Occupied --
-19.1517 -19.0319 -19.0252 -10.2251 -10.2183 -10.1900 -10.1829 -10.1735
-10.1719 -10.1707 -10.1696 -10.1691 -10.1683 -10.1594 -10.1537 -10.1516
-10.1513 -10.1512  -1.0607  -0.9515  -0.9438  -0.8443  -0.8405  -0.7710
 -0.7428  -0.7425  -0.7338  -0.6921  -0.6496  -0.6241  -0.6024  -0.5809
 -0.5472  -0.5323  -0.5234  -0.4834  -0.4730  -0.4627  -0.4573  -0.4467
 -0.4298  -0.4228  -0.4179  -0.3994  -0.3962  -0.3896  -0.3813  -0.3670
 -0.3665  -0.3488  -0.3434  -0.3371  -0.3326  -0.3286  -0.3152  -0.2947
 -0.2534  -0.2409  -0.2351  -0.2182  -0.2092  -0.2012  -0.1150

          Ground-State Mulliken Net Atomic Charges

     Atom                 Charge (a.u.)
  ----------------------------------------
      1 C                     0.486845
      2 O                    -0.024850
      3 C                     2.827711
      4 C                     2.118609
      5 C                     0.173097
      6 C                    -2.073844
      7 C                    -3.654439
      8 O                    -0.301488
      9 C                    -1.897967
     10 C                    -0.344270
     11 C                     1.492007
     12 C                     1.416222
     13 C                    -0.405133
     14 C                    -0.984484
     15 C                    -2.526254
     16 O                    -0.323046
     17 C                    -0.145082
     18 C                    -0.112692
     19 H                     0.159062
     20 H                     0.148708
     21 H                     0.460498
     22 H                     0.393772
     23 H                     0.127073
     24 H                     0.116323
     25 H                     0.392208
     26 H                     0.393582
     27 H                     0.097840
     28 H                    -0.010008
  ----------------------------------------
  Sum of atomic charges =    -2.000000

                    Cartesian Multipole Moments
 -----------------------------------------------------------------
    Charge (ESU x 10^10)
                -9.6064
    Dipole Moment (Debye)
         X       9.3781      Y      -1.7570      Z       1.6649
       Tot       9.6854
    Quadrupole Moments (Debye-Ang)
        XX    -156.8005     XY      -0.3163     YY    -147.9872
        XZ      -0.0657     YZ      21.0310     ZZ    -134.7246

 Total job time:  755.71s(wall), 5741.18s(cpu)
        *  Thank you very much for using Q-Chem.  Have a nice day.  *
