 Q-Chem 5.4, Q-Chem, Inc., Pleasanton, CA (2021)
 Q-Chem 5.4.0 for Intel X86 EM64T Linux

User input:
--------------------------------------------------------------
$molecule
-2 1
C                  3.2747680000     -0.2589260000     -0.0971430000
C                  1.7747490000     -0.3856300000     -0.1446260000
C                  0.9824080000      0.7772110000      0.1175080000
O                  1.5133120000      1.9282830000      0.3769920000
C                 -0.4607950000      0.5728020000      0.0715690000
C                 -1.3304280000      1.6541820000      0.3196480000
C                 -2.7118780000      1.5289050000      0.2904290000
C                 -3.2871480000      0.2593910000     -0.0031280000
C                 -2.4725350000     -0.8259650000     -0.2538010000
C                 -1.0512130000     -0.7289730000     -0.2303950000
C                 -0.2288430000     -1.8570700000     -0.4913850000
O                 -0.6257600000     -3.0889240000     -0.7747880000
C                  1.1653670000     -1.6147480000     -0.4341840000
O                  1.9095080000     -2.7559310000     -0.6975720000
H                  3.7503960000     -1.2323220000      0.0608660000
H                  3.5604870000      0.4371010000      0.6999290000
H                  3.6885580000      0.1647710000     -1.0288090000
H                 -0.8576910000      2.6079350000      0.5391610000
H                 -3.3499620000      2.3889980000      0.4888900000
H                 -4.3711410000      0.1457190000     -0.0302380000
H                 -2.8931730000     -1.8020070000     -0.4800190000
H                  1.1485730000     -3.3848760000     -0.8383270000
$end
$rem
MAX_SCF_CYCLES=200
BASIS  =  6-311++G(d,p)
GUI  =  2
JOB_TYPE  =  SP
METHOD  =  B3LYP
SOLVENT_METHOD = COSMO
$end
$solvent
dielectric 37.219
opticaldielectric 1.43
$end

--------------------------------------------------------------

             Standard Nuclear Orientation (Angstroms)
    I     Atom           X                Y                Z
 ----------------------------------------------------------------
    1      C       2.9992112193    -1.3959725414    -0.0160139982
    2      C       1.6672632493    -0.6930828459    -0.0009733711
    3      C       0.4761288911    -1.4867423940     0.0036253235
    4      O       0.5102920914    -2.7801651170     0.0105742771
    5      C      -0.7742778090    -0.7362780517    -0.0002068630
    6      C      -2.0048370361    -1.4239635982    -0.0003706805
    7      C      -3.2295028901    -0.7719353751    -0.0025891378
    8      C      -3.2570866842     0.6521488931    -0.0030503589
    9      C      -2.0755629468     1.3651900685    -0.0013533652
   10      C      -0.8029700525     0.7243965788     0.0002420800
   11      C       0.4026834306     1.4750003885     0.0023956831
   12      O       0.5245761163     2.7942669940     0.0008337881
   13      C       1.5926594976     0.7070363817     0.0036896421
   14      O       2.7312820995     1.5001027738     0.0050947042
   15      H       3.7910643137    -0.7377169464    -0.3879775178
   16      H       2.9327751868    -2.2976649701    -0.6356507647
   17      H       3.3007115457    -1.7426189238     0.9878170067
   18      H      -1.9466192683    -2.5092836801     0.0010522416
   19      H      -4.1589087036    -1.3398274761    -0.0037396371
   20      H      -4.2119103835     1.1784639561    -0.0041716771
   21      H      -2.0767567754     2.4518213002    -0.0011596284
   22      H       2.2781884109     2.3884045070    -0.0005619035
 ----------------------------------------------------------------

   11    -649.8241751693      6.51e-06  Convergence criterion met
 Total energy in the final basis set =     -649.8241751693
    6    -650.1086179278      2.55e-06  Convergence criterion met
 Total energy in the final basis set =     -650.1086179278

                    Orbital Energies (a.u.)
 --------------------------------------------------------------

 Alpha MOs
 -- Occupied --
-19.1136 -19.0344 -19.0258 -10.1820 -10.1781 -10.1669 -10.1508 -10.1472
-10.1469 -10.1465 -10.1429 -10.1397 -10.1381 -10.1320  -1.0252  -0.9398
 -0.9286  -0.8254  -0.7737  -0.7253  -0.7234  -0.6666  -0.6334  -0.5844
 -0.5654  -0.5359  -0.5039  -0.4729  -0.4498  -0.4277  -0.4240  -0.4053
 -0.4010  -0.3823  -0.3760  -0.3719  -0.3594  -0.3577  -0.3509  -0.3394
 -0.3170  -0.3146  -0.3029  -0.2999  -0.2328  -0.2292  -0.2236  -0.2045
 -0.1952  -0.1190

          Ground-State Mulliken Net Atomic Charges

     Atom                 Charge (a.u.)
  ----------------------------------------
      1 C                    -0.254259
      2 C                     1.331427
      3 C                    -0.434182
      4 O                    -0.714082
      5 C                     0.013543
      6 C                     0.081983
      7 C                    -0.485279
      8 C                    -0.312577
      9 C                    -0.181985
     10 C                     0.471847
     11 C                    -0.857106
     12 O                    -0.782446
     13 C                    -0.918918
     14 O                    -0.383011
     15 H                     0.161310
     16 H                     0.153092
     17 H                     0.154613
     18 H                     0.149954
     19 H                     0.176143
     20 H                     0.178289
     21 H                     0.155137
     22 H                     0.296506
  ----------------------------------------
  Sum of atomic charges =    -2.000000

                    Cartesian Multipole Moments
 -----------------------------------------------------------------
    Charge (ESU x 10^10)
                -9.6064
    Dipole Moment (Debye)
         X      -3.9140      Y      -0.0151      Z      -0.0503
       Tot       3.9143
    Quadrupole Moments (Debye-Ang)
        XX    -108.3109     XY      -1.9502     YY    -145.0159
        XZ      -0.0792     YZ       0.0868     ZZ     -92.6048

 Total job time:  41.85s(wall), 309.44s(cpu)
        *  Thank you very much for using Q-Chem.  Have a nice day.  *
