 Q-Chem 5.4, Q-Chem, Inc., Pleasanton, CA (2021)
 Q-Chem 5.4.0 for Intel X86 EM64T Linux

User input:
--------------------------------------------------------------
$molecule
-2 1
C                  1.6886160000      1.0726940000     -0.8200970000
C                  0.4712960000      1.5476700000     -0.2173270000
C                 -0.5167290000      0.6843200000      0.2858020000
C                 -0.3827440000     -0.7483720000      0.2689080000
C                  0.8383390000     -1.2166560000     -0.3213040000
C                  1.8114870000     -0.3566090000     -0.8467310000
O                  2.5965560000      1.8631860000     -1.3174290000
O                 -1.2779990000     -1.5565500000      0.7607540000
O                  2.9145660000     -0.9350970000     -1.4839470000
C                  4.1529550000     -0.6432020000     -0.8603910000
C                  0.2772660000      3.0457970000     -0.1806140000
C                 -1.7748560000      1.2361540000      0.9150980000
H                  4.3014930000      0.4399700000     -0.7998270000
H                  4.9374940000     -1.0988710000     -1.4796760000
H                  4.1997790000     -1.0899520000      0.1472410000
O                  1.1161070000     -2.5878990000     -0.3181250000
C                  0.2141240000     -3.3557730000     -1.0955890000
H                 -0.8132110000     -3.1985110000     -0.7508440000
H                  0.4993240000     -4.4089020000     -0.9682100000
H                  0.2995400000     -3.0976100000     -2.1647740000
H                  1.1657950000      3.5143120000     -0.6123640000
H                  0.1331160000      3.4294940000      0.8421550000
H                 -0.6048430000      3.3729750000     -0.7573630000
H                 -2.3524100000      1.8694990000      0.2227040000
H                 -1.5666930000      1.8613240000      1.8003080000
H                 -2.3974500000      0.3928680000      1.2259740000
$end
$rem
MAX_SCF_CYCLES=200
BASIS  =  6-311++G(d,p)
GUI  =  2
JOB_TYPE  =  SP
METHOD  =  B3LYP
SOLVENT_METHOD = PCM
$end
$pcm
theory = CPCM
$end
$solvent
dielectric 37.219
opticaldielectric 1.43
$end

--------------------------------------------------------------

             Standard Nuclear Orientation (Angstroms)
    I     Atom           X                Y                Z
 ----------------------------------------------------------------
    1      C       1.6886160000     1.0726940000    -0.8200970000
    2      C       0.4712960000     1.5476700000    -0.2173270000
    3      C      -0.5167290000     0.6843200000     0.2858020000
    4      C      -0.3827440000    -0.7483720000     0.2689080000
    5      C       0.8383390000    -1.2166560000    -0.3213040000
    6      C       1.8114870000    -0.3566090000    -0.8467310000
    7      O       2.5965560000     1.8631860000    -1.3174290000
    8      O      -1.2779990000    -1.5565500000     0.7607540000
    9      O       2.9145660000    -0.9350970000    -1.4839470000
   10      C       4.1529550000    -0.6432020000    -0.8603910000
   11      C       0.2772660000     3.0457970000    -0.1806140000
   12      C      -1.7748560000     1.2361540000     0.9150980000
   13      H       4.3014930000     0.4399700000    -0.7998270000
   14      H       4.9374940000    -1.0988710000    -1.4796760000
   15      H       4.1997790000    -1.0899520000     0.1472410000
   16      O       1.1161070000    -2.5878990000    -0.3181250000
   17      C       0.2141240000    -3.3557730000    -1.0955890000
   18      H      -0.8132110000    -3.1985110000    -0.7508440000
   19      H       0.4993240000    -4.4089020000    -0.9682100000
   20      H       0.2995400000    -3.0976100000    -2.1647740000
   21      H       1.1657950000     3.5143120000    -0.6123640000
   22      H       0.1331160000     3.4294940000     0.8421550000
   23      H      -0.6048430000     3.3729750000    -0.7573630000
   24      H      -2.3524100000     1.8694990000     0.2227040000
   25      H      -1.5666930000     1.8613240000     1.8003080000
   26      H      -2.3974500000     0.3928680000     1.2259740000
 ----------------------------------------------------------------

    9    -689.5841082295      8.24e-06  Convergence criterion met
 Total energy in the final basis set =     -689.5841082295

                    Orbital Energies (a.u.)
 --------------------------------------------------------------

 Alpha MOs
 -- Occupied --
-19.1101 -19.1100 -19.0114 -19.0114 -10.1879 -10.1879 -10.1689 -10.1684
-10.1624 -10.1624 -10.1325 -10.1324 -10.1214 -10.1209  -1.0289  -1.0115
 -0.9227  -0.9199  -0.7830  -0.7345  -0.6939  -0.6766  -0.6647  -0.6123
 -0.6050  -0.5302  -0.5212  -0.4786  -0.4586  -0.4528  -0.4408  -0.4236
 -0.4179  -0.4085  -0.4002  -0.3800  -0.3685  -0.3590  -0.3565  -0.3561
 -0.3405  -0.3291  -0.3255  -0.3108  -0.3077  -0.3023  -0.2588  -0.2552
 -0.2145  -0.1928  -0.1896  -0.1832  -0.1130

          Ground-State Mulliken Net Atomic Charges

     Atom                 Charge (a.u.)
  ----------------------------------------
      1 C                    -0.658640
      2 C                     0.602816
      3 C                     0.606288
      4 C                    -0.658104
      5 C                    -0.120669
      6 C                    -0.110928
      7 O                    -0.746401
      8 O                    -0.746806
      9 O                    -0.233400
     10 C                    -0.254816
     11 C                    -0.462688
     12 C                    -0.461498
     13 H                     0.166940
     14 H                     0.148299
     15 H                     0.121507
     16 O                    -0.233304
     17 C                    -0.254136
     18 H                     0.166894
     19 H                     0.148104
     20 H                     0.121557
     21 H                     0.163513
     22 H                     0.130721
     23 H                     0.135102
     24 H                     0.130854
     25 H                     0.135142
     26 H                     0.163653
  ----------------------------------------
  Sum of atomic charges =    -2.000000

                    Cartesian Multipole Moments
 -----------------------------------------------------------------
    Charge (ESU x 10^10)
                -9.6064
    Dipole Moment (Debye)
         X      -7.6842      Y       0.4407      Z       3.2944
       Tot       8.3722
    Quadrupole Moments (Debye-Ang)
        XX    -127.2258     XY     -18.5530     YY    -121.5591
        XZ      22.4541     YZ      14.1859     ZZ    -105.5257

 Total job time:  38.85s(wall), 237.60s(cpu)
        *  Thank you very much for using Q-Chem.  Have a nice day.  *
