 Gaussian 16, Revision A.03,
 Gaussian 16:  ES64L-G16RevA.03 25-Dec-2016

 ----------------------------------------------------------------------
 #P UB3LYP/6-311++G(d,p) nosym opt freq SCRF=(PCM,Solvent=n,n-DiMethylF
 ormamide)
 ----------------------------------------------------------------------

 -------
 Radical
 -------
 Symbolic Z-matrix:
 Charge = -1 Multiplicity = 2

 SCF Done:  E(UB3LYP) =  -421.052991670     A.U. after   18 cycles
 SCF Done:  E(UB3LYP) =  -421.053218269     A.U. after   14 cycles
 SCF Done:  E(UB3LYP) =  -421.053245427     A.U. after   13 cycles
 SCF Done:  E(UB3LYP) =  -421.053246598     A.U. after   11 cycles
 Optimization completed.
    -- Stationary point found.
 Normal termination of Gaussian 16 at Sat Feb 10 10:06:48 2024.

 ----------------------------------------------------------------------
 #P Geom=AllCheck Guess=TCheck SCRF=Check GenChk UB3LYP/6-311++G(d,p) F
 req
 ----------------------------------------------------------------------

 Structure from the checkpoint file:  "032-rad.chk"
 -------
 Radical
 -------
 Charge = -1 Multiplicity = 2

                          Input orientation:
 ---------------------------------------------------------------------
 Center     Atomic      Atomic             Coordinates (Angstroms)
 Number     Number       Type             X           Y           Z
 ---------------------------------------------------------------------
      1          6           0       -2.206122   -0.374641    0.002751
      2          6           0       -0.725742   -0.103441   -0.000726
      3          6           0       -0.227369    1.175290   -0.039174
      4          6           0        1.185560    1.481419   -0.042627
      5          8           0        1.616489    2.679451   -0.078808
      6          6           0        2.075766    0.344661   -0.001825
      7          6           0        1.598175   -0.938454    0.036537
      8          6           0        0.186028   -1.242080    0.039145
      9          8           0       -0.240805   -2.439962    0.076996
     10          1           0       -2.503611   -0.934202    0.895412
     11          1           0       -2.499028   -0.986595   -0.856458
     12          1           0       -2.775391    0.556700   -0.026725
     13          1           0       -0.908854    2.021970   -0.069027
     14          1           0        3.143770    0.542592   -0.002563
     15          1           0        2.281135   -1.782705    0.067092
 ---------------------------------------------------------------------

 SCF Done:  E(UB3LYP) =  -421.053246598     A.U. after    1 cycles

 Alpha  occ. eigenvalues --  -19.07525 -19.07457 -10.21656 -10.21595 -10.17214
 Alpha  occ. eigenvalues --  -10.16162 -10.16064 -10.15750 -10.15729  -0.99318
 Alpha  occ. eigenvalues --   -0.98996  -0.82340  -0.76329  -0.69614  -0.66332
 Alpha  occ. eigenvalues --   -0.58967  -0.55314  -0.47469  -0.46510  -0.43758
 Alpha  occ. eigenvalues --   -0.42289  -0.40636  -0.39811  -0.38716  -0.38664
 Alpha  occ. eigenvalues --   -0.36603  -0.36025  -0.35047  -0.27849  -0.25134
 Alpha  occ. eigenvalues --   -0.24052  -0.23642  -0.16139
 Alpha virt. eigenvalues --   -0.00654  -0.00014   0.01211   0.01721   0.02699
 Alpha virt. eigenvalues --    0.03669   0.04025   0.04077   0.06041   0.07193
 Alpha virt. eigenvalues --    0.07352   0.07660   0.08213   0.09613   0.11115

  Beta  occ. eigenvalues --  -19.06817 -19.06752 -10.21519 -10.21440 -10.17101
  Beta  occ. eigenvalues --  -10.16051 -10.15938 -10.15758 -10.15652  -0.98077
  Beta  occ. eigenvalues --   -0.97731  -0.81735  -0.76056  -0.69157  -0.65513
  Beta  occ. eigenvalues --   -0.58556  -0.54906  -0.47252  -0.46040  -0.43407
  Beta  occ. eigenvalues --   -0.41518  -0.40477  -0.39207  -0.38495  -0.37115
  Beta  occ. eigenvalues --   -0.35712  -0.34817  -0.33750  -0.24674  -0.24112
  Beta  occ. eigenvalues --   -0.23389  -0.23008
  Beta virt. eigenvalues --   -0.08814   0.00010   0.00683   0.01226   0.01755
  Beta virt. eigenvalues --    0.03687   0.04061   0.04080   0.04904   0.06106
  Beta virt. eigenvalues --    0.07235   0.07689   0.07758   0.08345   0.09651

 Mulliken charges and spin densities:
               1          2
     1  C   -0.429523   0.007540
     2  C    1.295983   0.097825
     3  C   -0.739588   0.014863
     4  C   -0.391683   0.132568
     5  O   -0.526869   0.244179
     6  C    0.075084   0.091828
     7  C    0.128022   0.086854
     8  C   -0.898445   0.083965
     9  O   -0.504571   0.253590
    10  H    0.161848   0.004304
    11  H    0.161971   0.004301
    12  H    0.147115  -0.000446
    13  H    0.154896  -0.006269
    14  H    0.182781  -0.007281
    15  H    0.182980  -0.007820
 Sum of Mulliken charges =  -1.00000   1.00000

 Dipole moment (field-independent basis, Debye):
    X=             -3.8569    Y=             -0.9600    Z=              0.0155  Tot=              3.9746
 Quadrupole moment (field-independent basis, Debye-Ang):
   XX=            -60.1013   YY=            -93.6392   ZZ=            -57.1344
   XY=            -15.0386   XZ=              0.4707   YZ=              1.1035

  Exact polarizability: 155.417  36.618 221.549  -0.805  -4.420  77.598
 Approx polarizability: 160.865  43.798 251.244  -1.052  -5.083  86.101

                      1                      2                      3
                      A                      A                      A
 Frequencies --    116.0011               148.1926               199.7205
 Red. masses --      6.8146                 1.1264                 2.8473
 Frc consts  --      0.0540                 0.0146                 0.0669
 IR Inten    --     23.8971                 0.8119                 0.0416

                      4                      5                      6
                      A                      A                      A
 Frequencies --    294.0515               324.0313               384.5274
 Red. masses --      3.1985                 5.3120                 9.7810
 Frc consts  --      0.1629                 0.3286                 0.8521
 IR Inten    --      4.4709                 0.3363                25.0557

                      7                      8                      9
                      A                      A                      A
 Frequencies --    422.7893               459.6999               507.7912
 Red. masses --      3.0212                 7.6886                 6.1463
 Frc consts  --      0.3182                 0.9573                 0.9338
 IR Inten    --      3.4880                 0.6332                 2.4560

                     10                     11                     12
                      A                      A                      A
 Frequencies --    591.2007               591.6202               714.2644
 Red. masses --      2.2537                 4.3942                 6.2507
 Frc consts  --      0.4641                 0.9062                 1.8789
 IR Inten    --      4.5553                 0.7446                12.0063

                     13                     14                     15
                      A                      A                      A
 Frequencies --    747.6156               796.8472               803.8615
 Red. masses --      4.3033                 4.4919                 1.5883
 Frc consts  --      1.4171                 1.6805                 0.6047
 IR Inten    --      0.0114                65.3005                33.3448

                     16                     17                     18
                      A                      A                      A
 Frequencies --    877.7014               926.1411               943.6924
 Red. masses --      1.6059                 3.3065                 1.2721
 Frc consts  --      0.7289                 1.6710                 0.6675
 IR Inten    --     68.9021                17.2362                 0.2323

                     19                     20                     21
                      A                      A                      A
 Frequencies --   1013.2211              1048.9343              1103.5837
 Red. masses --      1.6374                 1.5121                 1.7696
 Frc consts  --      0.9904                 0.9802                 1.2698
 IR Inten    --     68.9152                 2.6402                19.2327

                     22                     23                     24
                      A                      A                      A
 Frequencies --   1160.2676              1226.5489              1262.4779
 Red. masses --      1.9041                 2.8758                 1.6065
 Frc consts  --      1.5102                 2.5490                 1.5087
 IR Inten    --     44.0442                20.5800                 3.7885

                     25                     26                     27
                      A                      A                      A
 Frequencies --   1354.2952              1401.8215              1436.9598
 Red. masses --      2.1036                 1.2878                 3.8334
 Frc consts  --      2.2732                 1.4910                 4.6637
 IR Inten    --     99.9990                 5.1777               171.4387

                     28                     29                     30
                      A                      A                      A
 Frequencies --   1462.3754              1465.7627              1476.4440
 Red. masses --      1.0527                 5.0240                 1.5129
 Frc consts  --      1.3263                 6.3595                 1.9432
 IR Inten    --      9.0817                 2.2276                 6.2109

                     31                     32                     33
                      A                      A                      A
 Frequencies --   1503.6881              1525.2012              1645.0284
 Red. masses --      3.7761                 4.2585                 6.5279
 Frc consts  --      5.0305                 5.8366                10.4081
 IR Inten    --   1264.9036                38.4432                15.6539

                     34                     35                     36
                      A                      A                      A
 Frequencies --   3017.8344              3061.4034              3097.5472
 Red. masses --      1.0364                 1.0994                 1.1013
 Frc consts  --      5.5614                 6.0706                 6.2260
 IR Inten    --     62.8164                35.3133                32.8472

                     37                     38                     39
                      A                      A                      A
 Frequencies --   3138.3522              3141.1704              3160.7771
 Red. masses --      1.0895                 1.0859                 1.0952
 Frc consts  --      6.3222                 6.3127                 6.4467
 IR Inten    --     53.1811                30.5661                32.4359

 - Thermochemistry -
 -------------------
 Temperature   298.150 Kelvin.  Pressure   1.00000 Atm.
 Atom     1 has atomic number  6 and mass  12.00000

 Molecular mass:   122.03678 amu.
 Principal axes and moments of inertia in atomic units:
                           1         2         3
     Eigenvalues --   595.473211290.468811874.88631
           X            0.57750   0.81638  -0.00432
           Y            0.81605  -0.57710   0.03194
           Z           -0.02358   0.02197   0.99948
 This molecule is an asymmetric top.
 Rotational symmetry number  1.
 Warning -- assumption of classical behavior for rotation
           may cause significant error
 Rotational temperatures (Kelvin)      0.14545     0.06712     0.04620
 Rotational constants (GHZ):           3.03077     1.39852     0.96259
 Zero-point vibrational energy     290414.1 (Joules/Mol)
                                   69.41063 (Kcal/Mol)
 Warning -- explicit consideration of  11 degrees of freedom as
           vibrations may cause significant error
 Vibrational temperatures:    166.90   213.22   287.35   423.07   466.21
          (Kelvin)            553.25   608.30   661.41   730.60   850.61
                              851.21  1027.67  1075.65  1146.49  1156.58
                             1262.82  1332.51  1357.76  1457.80  1509.18
                             1587.81  1669.37  1764.73  1816.42  1948.53
                             2016.91  2067.46  2104.03  2108.91  2124.27
                             2163.47  2194.42  2366.83  4341.99  4404.68
                             4456.68  4515.39  4519.44  4547.65

 Zero-point correction=                           0.110613 (Hartree/Particle)
 Thermal correction to Energy=                    0.118294
 Thermal correction to Enthalpy=                  0.119238
 Thermal correction to Gibbs Free Energy=         0.077785
 Sum of electronic and zero-point Energies=           -420.942634
 Sum of electronic and thermal Energies=              -420.934953
 Sum of electronic and thermal Enthalpies=            -420.934009
 Sum of electronic and thermal Free Energies=         -420.975461

                     E (Thermal)             CV                S
                      KCal/Mol        Cal/Mol-Kelvin    Cal/Mol-Kelvin
 Total                   74.230             29.150             87.244
 Electronic               0.000              0.000              1.377
 Translational            0.889              2.981             40.312
 Rotational               0.889              2.981             28.756
 Vibrational             72.453             23.188             16.798
 Vibration     1          0.608              1.936              3.166
 Vibration     2          0.618              1.905              2.695
 Vibration     3          0.638              1.840              2.136
 Vibration     4          0.689              1.685              1.451
 Vibration     5          0.709              1.627              1.290
 Vibration     6          0.753              1.503              1.021
 Vibration     7          0.785              1.421              0.883
 Vibration     8          0.818              1.339              0.767
 Vibration     9          0.863              1.233              0.639
 Vibration    10          0.949              1.051              0.465
 Vibration    11          0.949              1.050              0.464

                           ! Non-Optimized Parameters !
 Normal termination of Gaussian 16 at Sat Feb 10 10:13:14 2024.
