 Q-Chem 5.4, Q-Chem, Inc., Pleasanton, CA (2021)
 Q-Chem 5.4.0 for Intel X86 EM64T Linux

User input:
--------------------------------------------------------------
$molecule
-1 2
C                  1.1413500000      1.5576690000     -0.2807800000
C                 -0.0081400000      1.0749360000      0.4661510000
C                 -0.1816360000     -0.2354430000      0.7803110000
C                  0.7744080000     -1.2601300000      0.4068210000
C                  1.9315070000     -0.8138550000     -0.3610340000
C                  2.0645040000      0.5168410000     -0.7217070000
O                  1.3218300000      2.7777870000     -0.4979360000
O                  0.6216690000     -2.4680540000      0.7256150000
S                  3.4063640000      1.0343810000     -1.8054260000
C                  4.5009270000      2.0401140000     -0.7707030000
C                  4.3150900000      3.4186270000     -0.7098430000
C                  5.5185460000      1.4041010000     -0.0625990000
C                  6.3739280000      2.1740330000      0.7233110000
C                  5.1809510000      4.1770700000      0.0759530000
C                  6.2078810000      3.5579280000      0.7893000000
O                  2.9018960000      1.8849720000     -2.8904480000
O                  4.1677380000     -0.1785410000     -2.1618880000
H                 -0.7201080000      1.8342360000      0.7750240000
H                 -1.0442230000     -0.5732340000      1.3470950000
H                  3.4932620000      3.8652130000     -1.2526840000
H                  5.6270890000      0.3283260000     -0.1296020000
H                  7.1694420000      1.6924330000      1.2815000000
H                  5.0484010000      5.2519900000      0.1354060000
H                  6.8760660000      4.1538020000      1.4026480000
C                  2.9560730000     -1.9117680000     -0.5936240000
C                  2.7346870000     -2.8826650000     -1.7144090000
C                  1.7284040000     -2.6958040000     -2.6648920000
C                  3.5671750000     -4.0028160000     -1.8094980000
C                  1.5566550000     -3.6141490000     -3.6978670000
C                  2.3882530000     -4.7293930000     -3.7862350000
C                  3.3951160000     -4.9223680000     -2.8378270000
O                  3.8778680000     -2.0458730000      0.1877190000
H                  1.0841860000     -1.8274920000     -2.5971060000
H                  4.3427920000     -4.1305330000     -1.0640500000
H                  0.7754440000     -3.4582570000     -4.4340920000
H                  2.2540660000     -5.4454890000     -4.5906930000
H                  4.0438270000     -5.7898260000     -2.9040890000
$end
$rem
MAX_SCF_CYCLES=200
BASIS  =  6-311++G(d,p)
GUI  =  2
JOB_TYPE  =  SP
METHOD  =  B3LYP
SOLVENT_METHOD = COSMO
$end
$solvent
dielectric 37.219
opticaldielectric 1.43
$end

--------------------------------------------------------------

             Standard Nuclear Orientation (Angstroms)
    I     Atom           X                Y                Z
 ----------------------------------------------------------------
    1      C       1.1914275594    -2.2438254719     0.4685060630
    2      C       0.5992995973    -3.4517987356    -0.0814479339
    3      C      -0.5538668442    -3.4425065589    -0.7997872025
    4      C      -1.2829667202    -2.2224485053    -1.0885259679
    5      C      -0.7273201925    -0.9925002061    -0.5352404268
    6      C       0.4182810726    -1.0268054495     0.2425422878
    7      O       2.2923906599    -2.2615297269     1.0651504323
    8      O      -2.3354670679    -2.2175210521    -1.7786404110
    9      S       1.0082630204     0.4670641424     1.0568872552
   10      C       2.5579340943     0.8916169911     0.2211282251
   11      C       3.7641569622     0.4088829599     0.7216596120
   12      C       2.5047393862     1.7076491864    -0.9070269147
   13      C       3.6948742696     2.0507586730    -1.5457623985
   14      C       4.9471872016     0.7640291530     0.0761078764
   15      C       4.9137024505     1.5831559243    -1.0529165199
   16      O       1.3127220445     0.2056777131     2.4690655690
   17      O       0.0516615477     1.5433425760     0.7336634018
   18      H       1.1474836639    -4.3703163082     0.1047163784
   19      H      -0.9742938074    -4.3563521689    -1.2090921801
   20      H       3.7545698613    -0.2460883308     1.5821463139
   21      H       1.5463337947     2.0578876833    -1.2708325671
   22      H       3.6687165876     2.6837622435    -2.4260909164
   23      H       5.8950649142     0.3946979320     0.4525111964
   24      H       5.8381854626     1.8525533736    -1.5534052430
   25      C      -1.4612895820     0.2563683401    -0.9944384686
   26      C      -2.7261709234     0.6514882430    -0.2931773074
   27      C      -3.1442687495     0.0255881224     0.8834210479
   28      C      -3.5026117026     1.6817025693    -0.8341159446
   29      C      -4.3210800384     0.4242039753     1.5127962942
   30      C      -5.0914690222     1.4502185866     0.9678851569
   31      C      -4.6793067097     2.0786675669    -0.2092572700
   32      O      -1.0698782585     0.8530869363    -1.9787713134
   33      H      -2.5437083208    -0.7699284389     1.3077535531
   34      H      -3.1619705745     2.1561903447    -1.7464815820
   35      H      -4.6353924179    -0.0645774013     2.4287224303
   36      H      -6.0089043352     1.7604493439     1.4578051805
   37      H      -5.2772372142     2.8775716950    -0.6357913270
 ----------------------------------------------------------------

    9   -1505.8690655560      8.08e-06  Convergence criterion met
 Total energy in the final basis set =    -1505.8690655560
    4   -1505.9609011063      9.23e-06  Convergence criterion met
 Total energy in the final basis set =    -1505.9609011063

                    Orbital Energies (a.u.)
 --------------------------------------------------------------

 Alpha MOs
 -- Occupied --
-89.0587 -19.1261 -19.1256 -19.1236 -19.1000 -19.0983 -10.2816 -10.2500
-10.2449 -10.2162 -10.2135 -10.2084 -10.1939 -10.1917 -10.1894 -10.1882
-10.1866 -10.1860 -10.1855 -10.1852 -10.1829 -10.1824 -10.1815 -10.1814
-10.1814  -8.1225  -6.0854  -6.0842  -6.0833  -1.1192  -1.0621  -1.0269
 -1.0234  -1.0141  -0.8775  -0.8694  -0.8533  -0.7918  -0.7807  -0.7657
 -0.7634  -0.7566  -0.7265  -0.6805  -0.6565  -0.6273  -0.6225  -0.6175
 -0.6054  -0.5798  -0.5593  -0.5428  -0.5270  -0.5082  -0.5033  -0.4886
 -0.4855  -0.4787  -0.4679  -0.4648  -0.4573  -0.4545  -0.4474  -0.4442
 -0.4367  -0.4312  -0.4298  -0.4242  -0.4182  -0.3992  -0.3980  -0.3927
 -0.3857  -0.3802  -0.3712  -0.3674  -0.3597  -0.3506  -0.3499  -0.3369
 -0.3194  -0.3113  -0.3075  -0.2880  -0.2828  -0.2717  -0.2716  -0.2672
 -0.2658  -0.2625  -0.2511  -0.1859

 Beta MOs
 -- Occupied --
-89.0587 -19.1260 -19.1253 -19.1236 -19.0925 -19.0920 -10.2818 -10.2492
-10.2439 -10.2150 -10.2135 -10.2057 -10.1939 -10.1916 -10.1894 -10.1882
-10.1866 -10.1860 -10.1855 -10.1852 -10.1829 -10.1819 -10.1815 -10.1814
-10.1805  -8.1225  -6.0854  -6.0842  -6.0834  -1.1190  -1.0613  -1.0174
 -1.0128  -1.0103  -0.8774  -0.8692  -0.8471  -0.7902  -0.7797  -0.7649
 -0.7634  -0.7565  -0.7198  -0.6762  -0.6548  -0.6258  -0.6224  -0.6169
 -0.6037  -0.5781  -0.5581  -0.5419  -0.5256  -0.5066  -0.5010  -0.4875
 -0.4847  -0.4785  -0.4670  -0.4630  -0.4571  -0.4542  -0.4456  -0.4423
 -0.4364  -0.4298  -0.4242  -0.4160  -0.4096  -0.3955  -0.3915  -0.3868
 -0.3802  -0.3728  -0.3676  -0.3660  -0.3596  -0.3505  -0.3488  -0.3366
 -0.3184  -0.3091  -0.2896  -0.2808  -0.2724  -0.2693  -0.2672  -0.2655
 -0.2646  -0.2575  -0.2464

          Ground-State Mulliken Net Atomic Charges

     Atom                 Charge (a.u.)    Spin (a.u.)
  --------------------------------------------------------
      1 C                    -0.148490       0.039363
      2 C                     0.080573       0.056966
      3 C                    -0.350449       0.038099
      4 C                    -0.200412       0.086385
      5 C                     0.998280       0.188876
      6 C                    -0.586551       0.124649
      7 O                    -0.405306       0.228584
      8 O                    -0.443744       0.273874
      9 S                     0.222442      -0.038416
     10 C                     0.404300       0.002064
     11 C                    -0.046552       0.013640
     12 C                    -0.067958       0.010014
     13 C                    -0.553930      -0.001256
     14 C                    -0.527779      -0.003533
     15 C                    -0.290204       0.003824
     16 O                    -0.164378       0.007353
     17 O                    -0.166534      -0.002901
     18 H                     0.239422      -0.005721
     19 H                     0.230051      -0.004403
     20 H                     0.285165      -0.000465
     21 H                     0.257435       0.001131
     22 H                     0.234302       0.000061
     23 H                     0.232583       0.000146
     24 H                     0.213340      -0.000245
     25 C                    -0.277552      -0.025775
     26 C                     0.580739       0.004337
     27 C                    -1.010133      -0.000481
     28 C                     0.561543       0.003565
     29 C                    -0.174326      -0.006206
     30 C                    -0.402703      -0.000038
     31 C                    -0.487843       0.002000
     32 O                    -0.298000       0.004148
     33 H                     0.171945       0.000635
     34 H                     0.226927      -0.000194
     35 H                     0.238755      -0.000112
     36 H                     0.202104       0.000030
     37 H                     0.222936       0.000005
  --------------------------------------------------------
  Sum of atomic charges =    -1.000001

                    Cartesian Multipole Moments
 -----------------------------------------------------------------
    Charge (ESU x 10^10)
                -4.8032
    Dipole Moment (Debye)
         X       1.2591      Y       4.1301      Z      -0.4631
       Tot       4.3425
    Quadrupole Moments (Debye-Ang)
        XX    -145.8854     XY      -1.2871     YY    -164.0798
        XZ     -28.6431     YZ      -9.5593     ZZ    -176.7323

 Total job time:  195.12s(wall), 1437.56s(cpu)
        *  Thank you very much for using Q-Chem.  Have a nice day.  *
