 Gaussian 16, Revision A.03,
 Gaussian 16:  ES64L-G16RevA.03 25-Dec-2016

 ----------------------------------------------
 #P UB3LYP/6-311++G(d,p) nosym opt freq SCF=YQC
 ----------------------------------------------

 -------
 Reduced
 -------
 Symbolic Z-matrix:
 Charge = -2 Multiplicity = 1

 SCF Done:  E(UB3LYP) =  -617.443506739     a.u. after   15 cycles
 SCF Done:  E(UB3LYP) =  -617.446159485     A.U. after   33 cycles
 SCF Done:  E(UB3LYP) =  -617.446159485     a.u. after    1 cycles
 SCF Done:  E(UB3LYP) =  -617.477383779     a.u. after  119 cycles
 SCF Done:  E(UB3LYP) =  -617.477835136     A.U. after   33 cycles
 SCF Done:  E(UB3LYP) =  -617.477835136     a.u. after    1 cycles
 SCF Done:  E(UB3LYP) =  -617.485677874     a.u. after  176 cycles
 SCF Done:  E(UB3LYP) =  -617.486209978     A.U. after   33 cycles
 SCF Done:  E(UB3LYP) =  -617.486209978     a.u. after    1 cycles
 SCF Done:  E(UB3LYP) =  -617.488434481     a.u. after   40 cycles
 SCF Done:  E(UB3LYP) =  -617.490767695     a.u. after    1 cycles
 SCF Done:  E(UB3LYP) =  -617.490799367     A.U. after   31 cycles
 SCF Done:  E(UB3LYP) =  -617.490778213     a.u. after    1 cycles
 SCF Done:  E(UB3LYP) =  -617.490800680     A.U. after   31 cycles
 SCF Done:  E(UB3LYP) =  -617.490795095     a.u. after    1 cycles
 SCF Done:  E(UB3LYP) =  -617.490800903     A.U. after   31 cycles
 SCF Done:  E(UB3LYP) =  -617.490799931     a.u. after    1 cycles
 SCF Done:  E(UB3LYP) =  -617.490800939     A.U. after   29 cycles
 Optimization completed.
    -- Stationary point found.
 Normal termination of Gaussian 16 at Tue Dec 19 07:46:48 2023.

 ----------------------------------------------------------------------
 #P Geom=AllCheck Guess=TCheck SCRF=Check GenChk UB3LYP/6-311++G(d,p) F
 req
 ----------------------------------------------------------------------

 Structure from the checkpoint file:  "047-an.chk"
 -------
 Reduced
 -------
 Charge = -2 Multiplicity = 1

                          Input orientation:
 ---------------------------------------------------------------------
 Center     Atomic      Atomic             Coordinates (Angstroms)
 Number     Number       Type             X           Y           Z
 ---------------------------------------------------------------------
      1          6           0        2.651373    1.440305    0.865227
      2          6           0        2.328997    0.521214   -0.334070
      3          6           0        3.588500   -0.241783   -0.768552
      4          6           0        1.118293   -0.352261   -0.038699
      5          6           0        1.233411   -1.703264    0.294544
      6          6           0        0.118299   -2.559854    0.578898
      7          8           0        0.242498   -3.808606    0.897276
      8          6           0       -1.149843   -1.899173    0.472472
      9          6           0       -1.306595   -0.553059    0.136089
     10          6           0       -2.713854    0.026448    0.054192
     11          6           0       -2.943464    1.151762    1.084785
     12          6           0       -3.055454    0.521261   -1.366886
     13          6           0       -0.171809    0.295297   -0.130702
     14          8           0       -0.294498    1.552614   -0.445765
     15          1           0        3.473369    2.136238    0.630798
     16          1           0        2.951730    0.841995    1.734658
     17          1           0        1.763511    2.019807    1.125443
     18          1           0        2.028848    1.189359   -1.152910
     19          1           0        4.386954    0.453859   -1.056919
     20          1           0        3.381609   -0.898040   -1.620341
     21          1           0        3.979981   -0.871180    0.039305
     22          1           0        2.213738   -2.171388    0.358442
     23          1           0       -2.034201   -2.506938    0.673481
     24          1           0       -3.409581   -0.790523    0.296495
     25          1           0       -2.226978    1.955457    0.897430
     26          1           0       -3.968134    1.551826    1.020562
     27          1           0       -2.786445    0.775339    2.101617
     28          1           0       -4.077066    0.931063   -1.414979
     29          1           0       -2.983879   -0.303350   -2.084782
     30          1           0       -2.339307    1.295578   -1.653963
 ---------------------------------------------------------------------

 SCF Done:  E(UB3LYP) =  -617.490800939     a.u. after    1 cycles
 SCF Done:  E(UB3LYP) =  -617.490800939     A.U. after   10 cycles

 Alpha  occ. eigenvalues --  -18.77027 -18.76450  -9.93857  -9.92935  -9.92896
 Alpha  occ. eigenvalues --   -9.92883  -9.92580  -9.92498  -9.92248  -9.92006
 Alpha  occ. eigenvalues --   -9.89065  -9.88903  -9.87884  -9.87496  -0.68253
 Alpha  occ. eigenvalues --   -0.67302  -0.56624  -0.56023  -0.51444  -0.45373
 Alpha  occ. eigenvalues --   -0.45224  -0.44937  -0.40105  -0.35724  -0.34808
 Alpha  occ. eigenvalues --   -0.28552  -0.27113  -0.22806  -0.20946  -0.20396
 Alpha  occ. eigenvalues --   -0.19541  -0.18269  -0.17976  -0.17605  -0.15822
 Alpha  occ. eigenvalues --   -0.15578  -0.15250  -0.12148  -0.11685  -0.11081
 Alpha  occ. eigenvalues --   -0.10455  -0.10164  -0.09613  -0.09034  -0.08500
 Alpha  occ. eigenvalues --   -0.06586  -0.06273  -0.05163   0.02930   0.03548
 Alpha  occ. eigenvalues --    0.05488   0.06175   0.13737
 Alpha virt. eigenvalues --    0.15463   0.15795   0.17827   0.17998   0.19010
 Alpha virt. eigenvalues --    0.19409   0.19745   0.20998   0.21567   0.21766
 Alpha virt. eigenvalues --    0.22250   0.22456   0.22744   0.23502   0.24569

  Beta  occ. eigenvalues --  -18.77027 -18.76450  -9.93857  -9.92935  -9.92896
  Beta  occ. eigenvalues --   -9.92883  -9.92580  -9.92498  -9.92248  -9.92006
  Beta  occ. eigenvalues --   -9.89065  -9.88903  -9.87884  -9.87496  -0.68253
  Beta  occ. eigenvalues --   -0.67302  -0.56624  -0.56023  -0.51444  -0.45373
  Beta  occ. eigenvalues --   -0.45224  -0.44937  -0.40105  -0.35724  -0.34808
  Beta  occ. eigenvalues --   -0.28552  -0.27113  -0.22806  -0.20946  -0.20396
  Beta  occ. eigenvalues --   -0.19541  -0.18269  -0.17976  -0.17605  -0.15822
  Beta  occ. eigenvalues --   -0.15578  -0.15250  -0.12148  -0.11685  -0.11081
  Beta  occ. eigenvalues --   -0.10455  -0.10164  -0.09613  -0.09034  -0.08500
  Beta  occ. eigenvalues --   -0.06586  -0.06273  -0.05163   0.02930   0.03548
  Beta  occ. eigenvalues --    0.05488   0.06175   0.13737
  Beta virt. eigenvalues --    0.15463   0.15795   0.17827   0.17998   0.19010
  Beta virt. eigenvalues --    0.19409   0.19745   0.20998   0.21567   0.21766
  Beta virt. eigenvalues --    0.22250   0.22456   0.22744   0.23502   0.24569

 Mulliken charges and spin densities:
               1          2
     1  C    0.264759  -0.000000
     2  C   -2.196550   0.000001
     3  C    0.330508   0.000000
     4  C    3.119787  -0.000001
     5  C    0.199183   0.000000
     6  C   -1.213619  -0.000000
     7  O   -0.541410   0.000000
     8  C   -0.159108   0.000000
     9  C    1.189670  -0.000000
    10  C    0.276088   0.000000
    11  C   -0.646189   0.000000
    12  C   -0.664421  -0.000000
    13  C   -1.701918   0.000000
    14  O   -0.492465   0.000000
    15  H   -0.606881   0.000000
    16  H    0.066467   0.000000
    17  H    0.243598  -0.000000
    18  H    0.135262  -0.000000
    19  H   -0.737840  -0.000000
    20  H    0.081303  -0.000000
    21  H    0.069420  -0.000000
    22  H    0.113618   0.000000
    23  H    0.066383   0.000000
    24  H    0.115130  -0.000000
    25  H    0.205377   0.000000
    26  H    0.055449  -0.000000
    27  H    0.090221   0.000000
    28  H    0.054257   0.000000
    29  H    0.088822  -0.000000
    30  H    0.195100   0.000000
 Sum of Mulliken charges =  -2.00000  -0.00000

 Dipole moment (field-independent basis, Debye):
    X=             -6.4085    Y=              5.6341    Z=             -1.1525  Tot=              8.6105
 Quadrupole moment (field-independent basis, Debye-Ang):
   XX=           -163.0297   YY=           -170.2907   ZZ=           -110.2390
   XY=             -9.6443   XZ=              2.8988   YZ=             13.5159

  Exact polarizability:1345.870 327.133 663.802-247.169  87.893 487.715
 Approx polarizability:3603.0781729.1321478.804-533.368-241.552 471.868

                      1                      2                      3
                      A                      A                      A
 Frequencies --     44.0516                68.9897                78.4818
 Red. masses --      2.7945                 2.9188                 4.2408
 Frc consts  --      0.0032                 0.0082                 0.0154
 IR Inten    --      4.3553                 2.4492                 1.0963

                      4                      5                      6
                      A                      A                      A
 Frequencies --    140.2042               161.4378               164.7115
 Red. masses --      3.4780                 3.3196                 5.3455
 Frc consts  --      0.0403                 0.0510                 0.0854
 IR Inten    --     22.0857                27.9162                 6.6271

                      7                      8                      9
                      A                      A                      A
 Frequencies --    211.1916               236.2596               252.1886
 Red. masses --      2.9213                 1.0318                 1.1371
 Frc consts  --      0.0768                 0.0339                 0.0426
 IR Inten    --      9.2291                18.0400                 1.7625

                     10                     11                     12
                      A                      A                      A
 Frequencies --    260.7661               271.3954               279.8976
 Red. masses --      1.4148                 1.3663                 2.7292
 Frc consts  --      0.0567                 0.0593                 0.1260
 IR Inten    --      1.0351                14.2170                 4.8711

                     13                     14                     15
                      A                      A                      A
 Frequencies --    283.2613               297.2412               324.9717
 Red. masses --      1.7010                 3.4410                 3.5647
 Frc consts  --      0.0804                 0.1791                 0.2218
 IR Inten    --     25.8652                 2.6148                 4.0605

                     16                     17                     18
                      A                      A                      A
 Frequencies --    395.6626               413.6447               430.6855
 Red. masses --      4.1804                 3.2799                 3.7236
 Frc consts  --      0.3856                 0.3306                 0.4069
 IR Inten    --      3.9800                34.8049                49.8292

                     19                     20                     21
                      A                      A                      A
 Frequencies --    454.2937               461.7383               520.8360
 Red. masses --      3.0856                 6.5725                 3.5461
 Frc consts  --      0.3752                 0.8256                 0.5668
 IR Inten    --     16.3647               656.3804                54.2764

                     22                     23                     24
                      A                      A                      A
 Frequencies --    553.3529               616.0549               635.3300
 Red. masses --      3.8337                 3.7176                 2.2571
 Frc consts  --      0.6916                 0.8313                 0.5368
 IR Inten    --     35.5293                22.7021                12.5993

                     25                     26                     27
                      A                      A                      A
 Frequencies --    675.9055               782.3920               806.8464
 Red. masses --      3.6443                 7.1787                 4.9707
 Frc consts  --      0.9809                 2.5891                 1.9065
 IR Inten    --      3.5207                22.6343                64.5020

                     28                     29                     30
                      A                      A                      A
 Frequencies --    816.3177               824.4676               841.2324
 Red. masses --      3.4778                 1.3848                 1.9443
 Frc consts  --      1.3655                 0.5546                 0.8107
 IR Inten    --     16.9190                 2.6014                24.4802

                     31                     32                     33
                      A                      A                      A
 Frequencies --    860.0208               917.6477               919.0134
 Red. masses --      2.7420                 1.2329                 1.1586
 Frc consts  --      1.1949                 0.6117                 0.5765
 IR Inten    --     30.5378                60.0902                 3.6343

                     34                     35                     36
                      A                      A                      A
 Frequencies --    936.7276               943.6713               952.8925
 Red. masses --      2.0713                 1.6033                 1.6375
 Frc consts  --      1.0708                 0.8412                 0.8760
 IR Inten    --     46.0689                 3.8654                43.9959

                     37                     38                     39
                      A                      A                      A
 Frequencies --    971.0248              1053.0647              1091.3038
 Red. masses --      2.7493                 1.7090                 1.6786
 Frc consts  --      1.5273                 1.1166                 1.1778
 IR Inten    --    128.9950               392.1599               295.2211

                     40                     41                     42
                      A                      A                      A
 Frequencies --   1114.2158              1115.6313              1137.5224
 Red. masses --      2.3033                 2.2283                 2.2032
 Frc consts  --      1.6848                 1.6341                 1.6797
 IR Inten    --     25.6162                17.8373                72.2198

                     43                     44                     45
                      A                      A                      A
 Frequencies --   1163.5319              1192.5458              1202.4702
 Red. masses --      2.0375                 1.9338                 2.1357
 Frc consts  --      1.6252                 1.6204                 1.8194
 IR Inten    --    174.1013               184.5192                32.4581

                     46                     47                     48
                      A                      A                      A
 Frequencies --   1230.8198              1278.3268              1325.3081
 Red. masses --      1.8076                 2.4023                 1.6625
 Frc consts  --      1.6134                 2.3129                 1.7204
 IR Inten    --     99.6789               136.2959                49.7739

                     49                     50                     51
                      A                      A                      A
 Frequencies --   1331.3383              1339.1860              1342.5382
 Red. masses --      1.5572                 1.2395                 1.8964
 Frc consts  --      1.6262                 1.3097                 2.0139
 IR Inten    --    626.4435                 5.2412              1062.2818

                     52                     53                     54
                      A                      A                      A
 Frequencies --   1348.4355              1355.2017              1362.6433
 Red. masses --      2.4138                 1.2751                 1.2850
 Frc consts  --      2.5859                 1.3797                 1.4058
 IR Inten    --   1162.7630                32.1175               144.6355

                     55                     56                     57
                      A                      A                      A
 Frequencies --   1380.2211              1387.1617              1424.2493
 Red. masses --      1.5309                 1.2606                 4.6757
 Frc consts  --      1.7183                 1.4291                 5.5882
 IR Inten    --    150.7498                87.0337               162.7280

                     58                     59                     60
                      A                      A                      A
 Frequencies --   1447.5998              1464.7526              1472.4964
 Red. masses --      3.1122                 1.0421                 1.2021
 Frc consts  --      3.8425                 1.3173                 1.5356
 IR Inten    --    400.5285                 4.0094                43.5328

                     61                     62                     63
                      A                      A                      A
 Frequencies --   1478.6564              1483.5675              1486.1676
 Red. masses --      1.0767                 1.4968                 1.8098
 Frc consts  --      1.3871                 1.9410                 2.3551
 IR Inten    --    144.0571                70.6173                35.5863

                     64                     65                     66
                      A                      A                      A
 Frequencies --   1493.8204              1502.7550              1505.3098
 Red. masses --      1.0575                 1.0547                 1.0676
 Frc consts  --      1.3903                 1.4033                 1.4254
 IR Inten    --     51.9936                 3.8117                 1.6219

                     67                     68                     69
                      A                      A                      A
 Frequencies --   1518.4974              1581.3380              2935.5885
 Red. masses --      1.0656                 5.6203                 1.0553
 Frc consts  --      1.4477                 8.2806                 5.3584
 IR Inten    --      3.4592              3504.0215               398.4109

                     70                     71                     72
                      A                      A                      A
 Frequencies --   2942.8697              2946.3523              2962.5912
 Red. masses --      1.0523                 1.0638                 1.0697
 Frc consts  --      5.3697                 5.4410                 5.5317
 IR Inten    --    117.8007               310.6733               942.0119

                     73                     74                     75
                      A                      A                      A
 Frequencies --   2979.0350              2986.3024              3020.3841
 Red. masses --      1.0816                 1.0380                 1.0874
 Frc consts  --      5.6557                 5.4542                 5.8449
 IR Inten    --     64.2090                35.2528                19.9029

                     76                     77                     78
                      A                      A                      A
 Frequencies --   3028.9216              3033.7524              3036.5394
 Red. masses --      1.0792                 1.0817                 1.0955
 Frc consts  --      5.8332                 5.8654                 5.9515
 IR Inten    --     91.6282                47.9948               129.3075

                     79                     80                     81
                      A                      A                      A
 Frequencies --   3058.6794              3075.0996              3082.5661
 Red. masses --      1.0995                 1.0870                 1.0999
 Frc consts  --      6.0606                 6.0560                 6.1579
 IR Inten    --     22.0613               334.9341                 7.2531

                     82                     83                     84
                      A                      A                      A
 Frequencies --   3086.8979              3096.8981              3116.7388
 Red. masses --      1.0991                 1.0953                 1.0861
 Frc consts  --      6.1707                 6.1890                 6.2162
 IR Inten    --     22.8340                 3.3963               123.6776

 - Thermochemistry -
 -------------------
 Temperature   298.150 Kelvin.  Pressure   1.00000 Atm.
 Atom     1 has atomic number  6 and mass  12.00000

 Molecular mass:   192.11503 amu.
 Principal axes and moments of inertia in atomic units:
                           1         2         3
     Eigenvalues --  2099.752843325.071724779.06088
           X            0.99411   0.10761   0.01309
           Y           -0.10825   0.97901   0.17270
           Z            0.00577  -0.17310   0.98489
 This molecule is an asymmetric top.
 Rotational symmetry number  1.
 Warning -- assumption of classical behavior for rotation
           may cause significant error
 Rotational temperatures (Kelvin)      0.04125     0.02605     0.01812
 Rotational constants (GHZ):           0.85950     0.54277     0.37764
 Zero-point vibrational energy     650796.6 (Joules/Mol)
                                  155.54413 (Kcal/Mol)
 Warning -- explicit consideration of  23 degrees of freedom as
           vibrations may cause significant error
 Vibrational temperatures:     63.38    99.26   112.92   201.72   232.27
          (Kelvin)            236.98   303.86   339.92   362.84   375.18
                              390.48   402.71   407.55   427.66   467.56
                              569.27   595.14   619.66   653.63   664.34
                              749.37   796.15   886.37   914.10   972.48
                             1125.69  1160.87  1174.50  1186.22  1210.35
                             1237.38  1320.29  1322.26  1347.74  1357.73
                             1371.00  1397.09  1515.13  1570.14  1603.11
                             1605.14  1636.64  1674.06  1715.81  1730.09
                             1770.88  1839.23  1906.82  1915.50  1926.79
                             1931.61  1940.10  1949.83  1960.54  1985.83
                             1995.82  2049.18  2082.77  2107.45  2118.59
                             2127.46  2134.52  2138.26  2149.27  2162.13
                             2165.81  2184.78  2275.19  4223.66  4234.13
                             4239.14  4262.51  4286.17  4296.62  4345.66
                             4357.94  4364.89  4368.90  4400.76  4424.38
                             4435.13  4441.36  4455.75  4484.29

 Zero-point correction=                           0.247875 (Hartree/Particle)
 Thermal correction to Energy=                    0.262473
 Thermal correction to Enthalpy=                  0.263417
 Thermal correction to Gibbs Free Energy=         0.207138
 Sum of electronic and zero-point Energies=           -617.242926
 Sum of electronic and thermal Energies=              -617.228328
 Sum of electronic and thermal Enthalpies=            -617.227384
 Sum of electronic and thermal Free Energies=         -617.283663

                     E (Thermal)             CV                S
                      KCal/Mol        Cal/Mol-Kelvin    Cal/Mol-Kelvin
 Total                  164.704             56.133            118.448
 Electronic               0.000              0.000              0.000
 Translational            0.889              2.981             41.664
 Rotational               0.889              2.981             31.879
 Vibrational            162.927             50.172             44.906
 Vibration     1          0.595              1.980              5.068
 Vibration     2          0.598              1.969              4.182
 Vibration     3          0.600              1.964              3.928
 Vibration     4          0.615              1.913              2.801
 Vibration     5          0.622              1.890              2.533
 Vibration     6          0.623              1.886              2.495
 Vibration     7          0.643              1.824              2.033
 Vibration     8          0.655              1.785              1.831
 Vibration     9          0.664              1.759              1.715
 Vibration    10          0.669              1.745              1.657
 Vibration    11          0.675              1.726              1.587
 Vibration    12          0.680              1.711              1.534
 Vibration    13          0.682              1.705              1.514
 Vibration    14          0.691              1.679              1.432
 Vibration    15          0.709              1.626              1.285
 Vibration    16          0.762              1.479              0.979
 Vibration    17          0.777              1.441              0.914
 Vibration    18          0.792              1.403              0.856
 Vibration    19          0.813              1.351              0.783
 Vibration    20          0.819              1.335              0.761
 Vibration    21          0.876              1.204              0.608
 Vibration    22          0.909              1.132              0.537
 Vibration    23          0.976              0.998              0.423

                           ! Non-Optimized Parameters !
 Normal termination of Gaussian 16 at Tue Dec 19 08:19:50 2023.
