 Q-Chem 5.4, Q-Chem, Inc., Pleasanton, CA (2021)
 Q-Chem 5.4.0 for Intel X86 EM64T Linux

User input:
--------------------------------------------------------------
$molecule
-1 2
N                  3.1209650000     -1.2440510000      1.3154410000
C                  2.6606130000     -0.5359130000      0.2074570000
C                  3.5841870000     -0.1065770000     -0.7406820000
C                  3.1883840000      0.6605010000     -1.8392270000
C                  1.8689390000      1.0433740000     -2.0085440000
O                  1.5292920000      1.8061570000     -3.1045300000
C                  0.8785310000      0.6369210000     -1.0709280000
C                 -0.5085830000      1.0481910000     -1.2163840000
O                 -0.8750000000      1.8597080000     -2.1302710000
C                 -1.4938480000      0.5164810000     -0.2889540000
C                 -2.8543490000      0.9174910000     -0.4402250000
O                 -3.2363230000      1.7702680000     -1.4162460000
C                 -3.8170980000      0.4251820000      0.4331370000
C                 -3.4644750000     -0.4726050000      1.4391800000
C                 -2.1477030000     -0.8984450000      1.6234220000
N                 -1.8794390000     -1.8506700000      2.6117730000
C                 -1.1261510000     -0.3860060000      0.7615460000
C                  0.2749070000     -0.7284620000      0.9620020000
O                  0.6208980000     -1.4908370000      1.9335180000
C                  1.2737080000     -0.1972880000      0.0401370000
H                  3.9491440000     -1.7961050000      1.1502210000
H                  2.3626800000     -1.6877870000      1.8345440000
H                  4.6318110000     -0.3624110000     -0.6107630000
H                  3.9306290000      0.9745610000     -2.5706400000
H                  2.3431500000      1.9668140000     -3.5936760000
H                 -2.3700870000      1.9814820000     -1.9037850000
H                 -4.8448850000      0.7461020000      0.3039470000
H                 -4.2340930000     -0.8706100000      2.0957710000
H                 -0.8819530000     -1.9305500000      2.8043290000
H                 -2.4838500000     -1.7949170000      3.4184310000
$end
$rem
MAX_SCF_CYCLES=200
BASIS  =  6-311++G(d,p)
GUI  =  2
JOB_TYPE  =  SP
METHOD  =  B3LYP
SOLVENT_METHOD = PCM
$end
$pcm
theory = CPCM
$end
$solvent
dielectric 37.219
opticaldielectric 1.43
$end

--------------------------------------------------------------

             Standard Nuclear Orientation (Angstroms)
    I     Atom           X                Y                Z
 ----------------------------------------------------------------
    1      N       3.1209650000    -1.2440510000     1.3154410000
    2      C       2.6606130000    -0.5359130000     0.2074570000
    3      C       3.5841870000    -0.1065770000    -0.7406820000
    4      C       3.1883840000     0.6605010000    -1.8392270000
    5      C       1.8689390000     1.0433740000    -2.0085440000
    6      O       1.5292920000     1.8061570000    -3.1045300000
    7      C       0.8785310000     0.6369210000    -1.0709280000
    8      C      -0.5085830000     1.0481910000    -1.2163840000
    9      O      -0.8750000000     1.8597080000    -2.1302710000
   10      C      -1.4938480000     0.5164810000    -0.2889540000
   11      C      -2.8543490000     0.9174910000    -0.4402250000
   12      O      -3.2363230000     1.7702680000    -1.4162460000
   13      C      -3.8170980000     0.4251820000     0.4331370000
   14      C      -3.4644750000    -0.4726050000     1.4391800000
   15      C      -2.1477030000    -0.8984450000     1.6234220000
   16      N      -1.8794390000    -1.8506700000     2.6117730000
   17      C      -1.1261510000    -0.3860060000     0.7615460000
   18      C       0.2749070000    -0.7284620000     0.9620020000
   19      O       0.6208980000    -1.4908370000     1.9335180000
   20      C       1.2737080000    -0.1972880000     0.0401370000
   21      H       3.9491440000    -1.7961050000     1.1502210000
   22      H       2.3626800000    -1.6877870000     1.8345440000
   23      H       4.6318110000    -0.3624110000    -0.6107630000
   24      H       3.9306290000     0.9745610000    -2.5706400000
   25      H       2.3431500000     1.9668140000    -3.5936760000
   26      H      -2.3700870000     1.9814820000    -1.9037850000
   27      H      -4.8448850000     0.7461020000     0.3039470000
   28      H      -4.2340930000    -0.8706100000     2.0957710000
   29      H      -0.8819530000    -1.9305500000     2.8043290000
   30      H      -2.4838500000    -1.7949170000     3.4184310000
 ----------------------------------------------------------------

    8    -950.3613204991      6.97e-06  Convergence criterion met
 Total energy in the final basis set =     -950.3613204991

                    Orbital Energies (a.u.)
 --------------------------------------------------------------

 Alpha MOs
 -- Occupied --
-19.1448 -19.1221 -19.0823 -19.0784 -14.2983 -14.2981 -10.2321 -10.2316
-10.2299 -10.2239 -10.2114 -10.2087 -10.1783 -10.1772 -10.1739 -10.1725
-10.1695 -10.1650 -10.1645 -10.1633  -1.0572  -1.0481  -1.0065  -1.0010
 -0.9094  -0.9038  -0.8450  -0.8269  -0.7829  -0.7435  -0.7310  -0.7163
 -0.6671  -0.6409  -0.6355  -0.5907  -0.5728  -0.5578  -0.5374  -0.5210
 -0.5088  -0.4953  -0.4923  -0.4748  -0.4574  -0.4493  -0.4460  -0.4356
 -0.4326  -0.4206  -0.4088  -0.4081  -0.3967  -0.3956  -0.3887  -0.3764
 -0.3717  -0.3675  -0.3595  -0.3540  -0.3490  -0.3428  -0.2939  -0.2837
 -0.2653  -0.2500  -0.2493  -0.2398  -0.2114  -0.1930  -0.1342

 Beta MOs
 -- Occupied --
-19.1444 -19.1215 -19.0782 -19.0745 -14.2978 -14.2975 -10.2303 -10.2295
-10.2293 -10.2233 -10.2112 -10.2083 -10.1780 -10.1770 -10.1738 -10.1726
-10.1688 -10.1637 -10.1633 -10.1624  -1.0561  -1.0462  -0.9998  -0.9943
 -0.9083  -0.9021  -0.8427  -0.8253  -0.7791  -0.7417  -0.7277  -0.7142
 -0.6610  -0.6387  -0.6332  -0.5895  -0.5712  -0.5555  -0.5364  -0.5202
 -0.5077  -0.4939  -0.4912  -0.4724  -0.4561  -0.4482  -0.4446  -0.4313
 -0.4279  -0.4185  -0.4053  -0.4046  -0.3944  -0.3906  -0.3833  -0.3753
 -0.3679  -0.3574  -0.3544  -0.3526  -0.3471  -0.3319  -0.2864  -0.2788
 -0.2514  -0.2464  -0.2452  -0.2363  -0.1995  -0.1852

          Ground-State Mulliken Net Atomic Charges

     Atom                 Charge (a.u.)    Spin (a.u.)
  --------------------------------------------------------
      1 N                    -0.457251       0.019489
      2 C                    -0.037508       0.010010
      3 C                    -0.218805       0.101944
      4 C                    -0.324671       0.051127
      5 C                    -0.195729       0.054513
      6 O                    -0.301799       0.011429
      7 C                     0.359062       0.002301
      8 C                    -0.463824       0.117846
      9 O                    -0.506260       0.150274
     10 C                     0.573745      -0.006791
     11 C                    -0.151866       0.057520
     12 O                    -0.458330       0.018060
     13 C                    -0.332898       0.060816
     14 C                    -0.276485       0.088182
     15 C                    -0.084542       0.028098
     16 N                    -0.454654       0.024213
     17 C                     0.277133      -0.007312
     18 C                    -0.492648       0.101709
     19 O                    -0.490426       0.140676
     20 C                     0.350011       0.010662
     21 H                     0.275156      -0.000952
     22 H                     0.325796      -0.002112
     23 H                     0.197930      -0.007755
     24 H                     0.186279      -0.004953
     25 H                     0.312723      -0.000513
     26 H                     0.400134      -0.003266
     27 H                     0.199149      -0.005158
     28 H                     0.195730      -0.006837
     29 H                     0.322641      -0.002272
     30 H                     0.272206      -0.000947
  --------------------------------------------------------
  Sum of atomic charges =    -1.000000

                    Cartesian Multipole Moments
 -----------------------------------------------------------------
    Charge (ESU x 10^10)
                -4.8032
    Dipole Moment (Debye)
         X       6.1315      Y      -3.2235      Z       2.2618
       Tot       7.2871
    Quadrupole Moments (Debye-Ang)
        XX    -118.6041     XY       7.9225     YY    -135.4260
        XZ     -23.6772     YZ       9.5505     ZZ    -127.3627

 Total job time:  75.98s(wall), 475.42s(cpu)
        *  Thank you very much for using Q-Chem.  Have a nice day.  *
