 Gaussian 16, Revision A.03,
 Gaussian 16:  ES64L-G16RevA.03 25-Dec-2016

 --------------------------------------
 #P UB3LYP/6-311++G(d,p) nosym opt freq
 --------------------------------------

 -------
 Radical
 -------
 Symbolic Z-matrix:
 Charge = -1 Multiplicity = 2

 SCF Done:  E(UB3LYP) =  -950.271615253     A.U. after   21 cycles
 Optimization completed.
    -- Stationary point found.
 Normal termination of Gaussian 16 at Sun Jan  7 05:06:51 2024.

 ----------------------------------------------------------------------
 #P Geom=AllCheck Guess=TCheck SCRF=Check GenChk UB3LYP/6-311++G(d,p) F
 req
 ----------------------------------------------------------------------

 Structure from the checkpoint file:  "198-rad.chk"
 -------
 Radical
 -------
 Charge = -1 Multiplicity = 2

                          Input orientation:
 ---------------------------------------------------------------------
 Center     Atomic      Atomic             Coordinates (Angstroms)
 Number     Number       Type             X           Y           Z
 ---------------------------------------------------------------------
      1          7           0        3.120965   -1.244051    1.315441
      2          6           0        2.660613   -0.535913    0.207457
      3          6           0        3.584187   -0.106577   -0.740682
      4          6           0        3.188384    0.660501   -1.839227
      5          6           0        1.868939    1.043374   -2.008544
      6          8           0        1.529292    1.806157   -3.104530
      7          6           0        0.878531    0.636921   -1.070928
      8          6           0       -0.508583    1.048191   -1.216384
      9          8           0       -0.875000    1.859708   -2.130271
     10          6           0       -1.493848    0.516481   -0.288954
     11          6           0       -2.854349    0.917491   -0.440225
     12          8           0       -3.236323    1.770268   -1.416246
     13          6           0       -3.817098    0.425182    0.433137
     14          6           0       -3.464475   -0.472605    1.439180
     15          6           0       -2.147703   -0.898445    1.623422
     16          7           0       -1.879439   -1.850670    2.611773
     17          6           0       -1.126151   -0.386006    0.761546
     18          6           0        0.274907   -0.728462    0.962002
     19          8           0        0.620898   -1.490837    1.933518
     20          6           0        1.273708   -0.197288    0.040137
     21          1           0        3.949144   -1.796105    1.150221
     22          1           0        2.362680   -1.687787    1.834544
     23          1           0        4.631811   -0.362411   -0.610763
     24          1           0        3.930629    0.974561   -2.570640
     25          1           0        2.343150    1.966814   -3.593676
     26          1           0       -2.370087    1.981482   -1.903785
     27          1           0       -4.844885    0.746102    0.303947
     28          1           0       -4.234093   -0.870610    2.095771
     29          1           0       -0.881953   -1.930550    2.804329
     30          1           0       -2.483850   -1.794917    3.418431
 ---------------------------------------------------------------------

 SCF Done:  E(UB3LYP) =  -950.271615253     A.U. after    1 cycles

 Alpha  occ. eigenvalues --  -19.03412 -18.99301 -18.95717 -18.95530 -14.18899
 Alpha  occ. eigenvalues --  -14.18546 -10.11632 -10.11019 -10.10757 -10.10183
 Alpha  occ. eigenvalues --  -10.09779 -10.09033 -10.06159 -10.06019 -10.05979
 Alpha  occ. eigenvalues --  -10.05602 -10.05394 -10.05070 -10.05040 -10.04635
 Alpha  occ. eigenvalues --   -0.94590  -0.91954  -0.88428  -0.87268  -0.79756
 Alpha  occ. eigenvalues --   -0.78972  -0.72778  -0.71035  -0.66677  -0.62729
 Alpha  occ. eigenvalues --   -0.61428  -0.59862  -0.54964  -0.52637  -0.51898
 Alpha  occ. eigenvalues --   -0.47606  -0.45514  -0.44338  -0.42421  -0.40576
 Alpha  occ. eigenvalues --   -0.39517  -0.37939  -0.37649  -0.35828  -0.34765
 Alpha  occ. eigenvalues --   -0.33316  -0.33082  -0.31684  -0.31332  -0.29960
 Alpha  occ. eigenvalues --   -0.28885  -0.28658  -0.27863  -0.27616  -0.27098
 Alpha  occ. eigenvalues --   -0.26332  -0.25319  -0.24541  -0.24076  -0.23932
 Alpha  occ. eigenvalues --   -0.22522  -0.22109  -0.17619  -0.16403  -0.14638
 Alpha  occ. eigenvalues --   -0.13110  -0.12671  -0.11461  -0.09177  -0.07374
 Alpha  occ. eigenvalues --   -0.01362
 Alpha virt. eigenvalues --    0.07164   0.08082   0.08236   0.08485   0.09065
 Alpha virt. eigenvalues --    0.10117   0.10529   0.12090   0.12800   0.13116
 Alpha virt. eigenvalues --    0.14060   0.14745   0.15285   0.15496   0.15674

  Beta  occ. eigenvalues --  -19.03388 -18.99252 -18.95262 -18.95050 -14.18871
  Beta  occ. eigenvalues --  -14.18497 -10.11618 -10.10839 -10.10597 -10.10154
  Beta  occ. eigenvalues --  -10.09784 -10.08997 -10.06067 -10.05966 -10.05915
  Beta  occ. eigenvalues --  -10.05468 -10.05395 -10.05034 -10.04977 -10.04531
  Beta  occ. eigenvalues --   -0.94533  -0.91755  -0.87658  -0.86528  -0.79667
  Beta  occ. eigenvalues --   -0.78819  -0.72543  -0.70877  -0.66281  -0.62545
  Beta  occ. eigenvalues --   -0.61139  -0.59654  -0.54355  -0.52441  -0.51678
  Beta  occ. eigenvalues --   -0.47493  -0.45365  -0.44127  -0.42326  -0.40510
  Beta  occ. eigenvalues --   -0.39430  -0.37809  -0.37544  -0.35563  -0.34640
  Beta  occ. eigenvalues --   -0.33228  -0.32940  -0.31534  -0.30678  -0.29810
  Beta  occ. eigenvalues --   -0.28530  -0.28245  -0.27728  -0.27403  -0.26368
  Beta  occ. eigenvalues --   -0.26051  -0.25091  -0.24021  -0.23780  -0.22974
  Beta  occ. eigenvalues --   -0.22178  -0.21015  -0.17029  -0.15797  -0.13007
  Beta  occ. eigenvalues --   -0.12607  -0.12257  -0.11068  -0.08095  -0.06626
  Beta virt. eigenvalues --    0.03743   0.07164   0.08249   0.08396   0.09313
  Beta virt. eigenvalues --    0.10004   0.10233   0.10559   0.12106   0.12818
  Beta virt. eigenvalues --    0.13294   0.14129   0.14798   0.15437   0.15555

 Mulliken charges and spin densities:
               1          2
     1  N   -0.387708   0.013121
     2  C   -0.003375   0.000796
     3  C   -0.169636   0.101568
     4  C   -0.348151   0.070916
     5  C   -0.200090   0.024704
     6  O   -0.212058   0.006970
     7  C    0.457287   0.039156
     8  C   -0.564278   0.075782
     9  O   -0.397691   0.174967
    10  C    0.594042   0.002791
    11  C   -0.228293   0.038402
    12  O   -0.405345   0.015506
    13  C   -0.278263   0.078120
    14  C   -0.186780   0.070188
    15  C   -0.068256   0.031009
    16  N   -0.382681   0.021032
    17  C    0.312483  -0.014591
    18  C   -0.595521   0.098524
    19  O   -0.409876   0.161556
    20  C    0.394351   0.028015
    21  H    0.206942  -0.001326
    22  H    0.305925  -0.002197
    23  H    0.110975  -0.008336
    24  H    0.077791  -0.006563
    25  H    0.236069  -0.000567
    26  H    0.383135  -0.003654
    27  H    0.140771  -0.006238
    28  H    0.112531  -0.005870
    29  H    0.301108  -0.002500
    30  H    0.204592  -0.001282
 Sum of Mulliken charges =  -1.00000   1.00000

 Dipole moment (field-independent basis, Debye):
    X=              4.1043    Y=             -2.1871    Z=              1.5572  Tot=              4.9044
 Quadrupole moment (field-independent basis, Debye-Ang):
   XX=           -135.5116   YY=           -134.7464   ZZ=           -131.1661
   XY=              6.0492   XZ=            -14.2214   YZ=              9.9375

  Exact polarizability: 364.352 -13.748 164.907 -46.983 -76.198 221.822
 Approx polarizability: 586.017 -34.697 289.699 -59.175-151.794 391.865

                      1                      2                      3
                      A                      A                      A
 Frequencies --     35.9624                49.0207                94.6738
 Red. masses --      6.5776                 6.8027                 7.9833
 Frc consts  --      0.0050                 0.0096                 0.0422
 IR Inten    --      5.9368                 0.9818                 0.2888

                      4                      5                      6
                      A                      A                      A
 Frequencies --    116.5927               135.5528               181.4696
 Red. masses --      5.1522                 5.5482                 6.1109
 Frc consts  --      0.0413                 0.0601                 0.1186
 IR Inten    --      1.3772                 1.7774                 3.8205

                      7                      8                      9
                      A                      A                      A
 Frequencies --    208.8432               216.3453               266.6150
 Red. masses --      4.4971                 1.4107                 3.3975
 Frc consts  --      0.1156                 0.0389                 0.1423
 IR Inten    --     10.0952                55.4369                11.9155

                     10                     11                     12
                      A                      A                      A
 Frequencies --    298.1398               312.6288               348.8167
 Red. masses --      6.1949                 6.2144                 3.4018
 Frc consts  --      0.3244                 0.3579                 0.2439
 IR Inten    --      1.4763                 9.3873                28.3681

                     13                     14                     15
                      A                      A                      A
 Frequencies --    349.8622               380.1766               402.2614
 Red. masses --      2.9780                 3.3033                 2.1767
 Frc consts  --      0.2148                 0.2813                 0.2075
 IR Inten    --     53.8056                34.6616                90.6843

                     16                     17                     18
                      A                      A                      A
 Frequencies --    411.2416               415.3979               425.9850
 Red. masses --      1.9449                 2.8687                 6.0261
 Frc consts  --      0.1938                 0.2916                 0.6443
 IR Inten    --     77.1939                37.4578                 0.6206

                     19                     20                     21
                      A                      A                      A
 Frequencies --    437.1761               461.2303               464.9302
 Red. masses --      5.7648                 7.3687                 4.7027
 Frc consts  --      0.6492                 0.9236                 0.5989
 IR Inten    --      4.6439                 3.0754                16.4946

                     22                     23                     24
                      A                      A                      A
 Frequencies --    472.2176               494.2767               497.3601
 Red. masses --      7.4088                 4.9788                 5.3283
 Frc consts  --      0.9734                 0.7167                 0.7766
 IR Inten    --      6.7814                 1.2014                51.5593

                     25                     26                     27
                      A                      A                      A
 Frequencies --    499.4200               547.0802               552.9027
 Red. masses --      4.7177                 6.4625                 3.4960
 Frc consts  --      0.6933                 1.1396                 0.6297
 IR Inten    --      9.9443                 5.7378                27.4361

                     28                     29                     30
                      A                      A                      A
 Frequencies --    597.6451               618.9095               645.4894
 Red. masses --      3.7971                 3.0106                 4.8559
 Frc consts  --      0.7991                 0.6794                 1.1921
 IR Inten    --     21.6835                 6.5980                 3.5052

                     31                     32                     33
                      A                      A                      A
 Frequencies --    720.5413               722.6110               738.4546
 Red. masses --      2.6929                 5.2061                 1.9798
 Frc consts  --      0.8237                 1.6017                 0.6361
 IR Inten    --    111.7408                19.7604               124.5882

                     34                     35                     36
                      A                      A                      A
 Frequencies --    739.5180               757.2432               769.3573
 Red. masses --      4.7698                 1.6666                 1.9416
 Frc consts  --      1.5369                 0.5631                 0.6771
 IR Inten    --     89.0502                 8.4020                29.7869

                     37                     38                     39
                      A                      A                      A
 Frequencies --    783.3803               794.3791               809.5481
 Red. masses --      2.7476                 6.0631                 2.0399
 Frc consts  --      0.9934                 2.2542                 0.7877
 IR Inten    --     36.3637                 8.9097                65.7565

                     40                     41                     42
                      A                      A                      A
 Frequencies --    821.6656               833.8957               859.5034
 Red. masses --      7.9380                 1.3732                 5.2274
 Frc consts  --      3.1576                 0.5626                 2.2753
 IR Inten    --     70.9538                 1.1349                22.3603

                     43                     44                     45
                      A                      A                      A
 Frequencies --    888.8966               956.6383               973.6716
 Red. masses --      1.3449                 5.8863                 6.4480
 Frc consts  --      0.6261                 3.1739                 3.6017
 IR Inten    --      0.7677                45.6706                92.2814

                     46                     47                     48
                      A                      A                      A
 Frequencies --    981.7704              1000.8027              1084.0528
 Red. masses --      1.0545                 4.1460                 1.7524
 Frc consts  --      0.5989                 2.4467                 1.2134
 IR Inten    --     68.8129                29.9278                20.3362

                     49                     50                     51
                      A                      A                      A
 Frequencies --   1141.8783              1164.8348              1174.6265
 Red. masses --      1.7786                 1.3510                 1.3736
 Frc consts  --      1.3664                 1.0801                 1.1167
 IR Inten    --     31.0743               109.4691                14.5448

                     52                     53                     54
                      A                      A                      A
 Frequencies --   1196.4752              1224.8383              1233.6110
 Red. masses --      1.6571                 3.0247                 3.1378
 Frc consts  --      1.3977                 2.6736                 2.8134
 IR Inten    --     74.3517                 9.9763                14.8076

                     55                     56                     57
                      A                      A                      A
 Frequencies --   1254.2913              1275.8844              1293.5231
 Red. masses --      3.4586                 3.3086                 3.0296
 Frc consts  --      3.2059                 3.1734                 2.9866
 IR Inten    --      7.3362                26.4069                 1.3296

                     58                     59                     60
                      A                      A                      A
 Frequencies --   1297.1927              1320.6543              1341.8552
 Red. masses --      3.3944                 3.8326                 6.5688
 Frc consts  --      3.3653                 3.9384                 6.9686
 IR Inten    --     73.5487               243.0382                10.2901

                     61                     62                     63
                      A                      A                      A
 Frequencies --   1365.6003              1406.6228              1422.0032
 Red. masses --      5.1399                 3.4965                 5.5006
 Frc consts  --      5.6474                 4.0760                 6.5533
 IR Inten    --    101.4813               117.6708                10.9129

                     64                     65                     66
                      A                      A                      A
 Frequencies --   1427.0538              1457.7518              1486.5177
 Red. masses --      3.0411                 3.2053                 2.7479
 Frc consts  --      3.6489                 4.0131                 3.5776
 IR Inten    --    199.0075                 2.5427                89.1991

                     67                     68                     69
                      A                      A                      A
 Frequencies --   1525.8131              1558.4418              1566.4595
 Red. masses --      4.6816                 2.3227                 1.7448
 Frc consts  --      6.4217                 3.3237                 2.5225
 IR Inten    --   1052.0415                 4.5021                49.3547

                     70                     71                     72
                      A                      A                      A
 Frequencies --   1598.7148              1605.7694              1617.0627
 Red. masses --      3.4168                 3.2835                 1.3635
 Frc consts  --      5.1453                 4.9883                 2.1006
 IR Inten    --    187.9998               298.6637                29.9743

                     73                     74                     75
                      A                      A                      A
 Frequencies --   1635.5308              1646.9876              2800.3309
 Red. masses --      3.7303                 3.3521                 1.0760
 Frc consts  --      5.8791                 5.3574                 4.9713
 IR Inten    --     51.3093                18.2989               364.3998

                     76                     77                     78
                      A                      A                      A
 Frequencies --   3114.7906              3130.7198              3146.0869
 Red. masses --      1.0863                 1.0872                 1.0920
 Frc consts  --      6.2097                 6.2783                 6.3680
 IR Inten    --     50.3171                43.4180                46.7343

                     79                     80                     81
                      A                      A                      A
 Frequencies --   3172.5046              3381.4105              3411.7994
 Red. masses --      1.0919                 1.0606                 1.0586
 Frc consts  --      6.4752                 7.1447                 7.2602
 IR Inten    --     35.1339               145.3072                43.8900

                     82                     83                     84
                      A                      A                      A
 Frequencies --   3617.9225              3624.3455              3811.4692
 Red. masses --      1.0882                 1.0869                 1.0654
 Frc consts  --      8.3921                 8.4117                 9.1191
 IR Inten    --     19.1585                15.8092                19.5568

 - Thermochemistry -
 -------------------
 Temperature   298.150 Kelvin.  Pressure   1.00000 Atm.
 Atom     1 has atomic number  7 and mass  14.00307

 Molecular mass:   270.06406 amu.
 Principal axes and moments of inertia in atomic units:
                           1         2         3
     Eigenvalues --  3470.372215546.788788996.84827
           X            0.95021   0.27585   0.14492
           Y            0.05302  -0.60143   0.79716
           Z           -0.30706   0.74979   0.58611
 This molecule is an asymmetric top.
 Rotational symmetry number  1.
 Warning -- assumption of classical behavior for rotation
           may cause significant error
 Rotational temperatures (Kelvin)      0.02496     0.01562     0.00963
 Rotational constants (GHZ):           0.52004     0.32537     0.20060
 Zero-point vibrational energy     571967.7 (Joules/Mol)
                                  136.70355 (Kcal/Mol)
 Warning -- explicit consideration of  29 degrees of freedom as
           vibrations may cause significant error
 Vibrational temperatures:     51.74    70.53   136.21   167.75   195.03
          (Kelvin)            261.09   300.48   311.27   383.60   428.96
                              449.80   501.87   503.37   546.99   578.76
                              591.68   597.66   612.90   629.00   663.61
                              668.93   679.42   711.15   715.59   718.55
                              787.13   795.50   859.88   890.47   928.72
                             1036.70  1039.68  1062.47  1064.00  1089.50
                             1106.93  1127.11  1142.93  1164.76  1182.19
                             1199.79  1236.63  1278.92  1376.39  1400.90
                             1412.55  1439.93  1559.71  1642.91  1675.94
                             1690.03  1721.46  1762.27  1774.89  1804.65
                             1835.71  1861.09  1866.37  1900.13  1930.63
                             1964.79  2023.82  2045.95  2053.21  2097.38
                             2138.77  2195.30  2242.25  2253.79  2300.19
                             2310.34  2326.59  2353.16  2369.65  4029.05
                             4481.49  4504.41  4526.52  4564.53  4865.10
                             4908.82  5205.38  5214.62  5483.85

 Zero-point correction=                           0.217851 (Hartree/Particle)
 Thermal correction to Energy=                    0.233748
 Thermal correction to Enthalpy=                  0.234693
 Thermal correction to Gibbs Free Energy=         0.174527
 Sum of electronic and zero-point Energies=           -950.053764
 Sum of electronic and thermal Energies=              -950.037867
 Sum of electronic and thermal Enthalpies=            -950.036923
 Sum of electronic and thermal Free Energies=         -950.097088

                     E (Thermal)             CV                S
                      KCal/Mol        Cal/Mol-Kelvin    Cal/Mol-Kelvin
 Total                  146.679             64.976            126.629
 Electronic               0.000              0.000              1.377
 Translational            0.889              2.981             42.679
 Rotational               0.889              2.981             33.515
 Vibrational            144.902             59.014             49.057
 Vibration     1          0.594              1.982              5.470
 Vibration     2          0.595              1.978              4.857
 Vibration     3          0.603              1.953              3.561
 Vibration     4          0.608              1.936              3.156
 Vibration     5          0.613              1.918              2.866
 Vibration     6          0.630              1.865              2.313
 Vibration     7          0.642              1.827              2.054
 Vibration     8          0.645              1.816              1.989
 Vibration     9          0.672              1.734              1.618
 Vibration    10          0.691              1.677              1.427
 Vibration    11          0.701              1.650              1.348
 Vibration    12          0.726              1.578              1.172
 Vibration    13          0.727              1.576              1.167
 Vibration    14          0.750              1.512              1.038
 Vibration    15          0.768              1.465              0.954
 Vibration    16          0.775              1.446              0.922
 Vibration    17          0.779              1.437              0.908
 Vibration    18          0.788              1.414              0.872
 Vibration    19          0.797              1.389              0.836
 Vibration    20          0.819              1.336              0.763
 Vibration    21          0.822              1.328              0.752
 Vibration    22          0.829              1.312              0.731
 Vibration    23          0.850              1.263              0.673
 Vibration    24          0.853              1.256              0.665
 Vibration    25          0.855              1.251              0.660
 Vibration    26          0.902              1.146              0.550
 Vibration    27          0.908              1.133              0.538
 Vibration    28          0.956              1.037              0.454
 Vibration    29          0.979              0.992              0.418

                           ! Non-Optimized Parameters !
 Normal termination of Gaussian 16 at Sun Jan  7 07:01:36 2024.
