 Gaussian 16, Revision A.03,
 Gaussian 16:  ES64L-G16RevA.03 25-Dec-2016

 ----------------------------------------------------------------
 #P UB3LYP/6-311++G(d,p) SCRF=(PCM,Solvent=n,n-DiMethylFormamide)
 ----------------------------------------------------------------

 ------------------
 Radical PCM in DMF
 ------------------
 Symbolic Z-matrix:
 Charge = -1 Multiplicity = 2

                         Standard orientation:
 ---------------------------------------------------------------------
 Center     Atomic      Atomic             Coordinates (Angstroms)
 Number     Number       Type             X           Y           Z
 ---------------------------------------------------------------------
      1          6           0       -1.091119   -0.855513   -0.133717
      2          6           0       -1.348208    0.481085    0.043378
      3          6           0       -0.239757    1.419706    0.186320
      4          8           0       -0.434797    2.660831    0.351274
      5          6           0        1.091131    0.855937    0.129317
      6          6           0        1.348218   -0.480664   -0.047767
      7          6           0        0.239771   -1.419278   -0.190759
      8          8           0        0.434809   -2.660398   -0.355763
      9          1           0        1.896675    1.576066    0.238396
     10          6           0        2.737832   -1.074977   -0.107979
     11          6           0        3.909476   -0.102502    0.044544
     12          6           0        5.274152   -0.798187   -0.028390
     13          6           0        6.463282    0.158320    0.125611
     14          6           0        7.824155   -0.545514    0.051012
     15          6           0        9.051751    0.350557    0.303704
     16          6           0       10.328928   -0.495610    0.408441
     17          6           0        9.216359    1.439049   -0.766966
     18          6           0       -2.737821    1.075418    0.103516
     19          6           0       -3.909532    0.102554   -0.045996
     20          6           0       -5.274203    0.798203    0.027397
     21          6           0       -6.463407   -0.158658   -0.123799
     22          6           0       -7.824266    0.545150   -0.048673
     23          6           0       -9.052059   -0.351392   -0.298727
     24          6           0      -10.329435    0.494503   -0.403208
     25          6           0       -9.215350   -1.438405    0.773646
     26          1           0       -1.896659   -1.575651   -0.242746
     27          1           0        2.835749   -1.622135   -1.055142
     28          1           0        2.808565   -1.858322    0.658403
     29          1           0        3.828737    0.429297    1.000815
     30          1           0        3.857099    0.667603   -0.735166
     31          1           0        5.359605   -1.328959   -0.986018
     32          1           0        5.329181   -1.570899    0.749974
     33          1           0        6.381385    0.682217    1.087509
     34          1           0        6.396404    0.931968   -0.648047
     35          1           0        7.932866   -1.025836   -0.931840
     36          1           0        7.834524   -1.360656    0.786166
     37          1           0        8.902244    0.850926    1.270802
     38          1           0       10.244832   -1.246808    1.199799
     39          1           0       11.203713    0.125902    0.626207
     40          1           0       10.523494   -1.024707   -0.531598
     41          1           0       10.097858    2.056895   -0.566835
     42          1           0        8.350217    2.102952   -0.811546
     43          1           0        9.343494    0.989660   -1.758835
     44          1           0       -2.809369    1.857161   -0.664455
     45          1           0       -2.834875    1.624547    1.049601
     46          1           0       -3.856085   -0.666230    0.734947
     47          1           0       -3.829920   -0.430847   -1.001467
     48          1           0       -5.330190    1.569710   -0.752096
     49          1           0       -5.358630    1.330441    0.984301
     50          1           0       -6.395552   -0.931143    0.650933
     51          1           0       -6.382573   -0.683980   -1.085009
     52          1           0       -7.835540    1.359252   -0.784965
     53          1           0       -7.931923    1.026849    0.933622
     54          1           0       -8.903594   -0.853098   -1.265293
     55          1           0      -11.204403   -0.127397   -0.619128
     56          1           0      -10.246301    1.244605   -1.195708
     57          1           0      -10.523000    1.024890    0.536309
     58          1           0      -10.097019   -2.056610    0.575378
     59          1           0       -9.341400   -0.987649    1.765033
     60          1           0       -8.349096   -2.102166    0.818166
 ---------------------------------------------------------------------

 SCF Done:  E(UB3LYP) =  -1010.91607593     A.U. after   17 cycles

 The electronic state is 2-A.
 Alpha  occ. eigenvalues --  -19.07049 -19.07049 -10.21066 -10.21065 -10.16867
 Alpha  occ. eigenvalues --  -10.16867 -10.16489 -10.16488 -10.15906 -10.15906
 Alpha  occ. eigenvalues --  -10.15777 -10.15777 -10.15734 -10.15734 -10.15725
 Alpha  occ. eigenvalues --  -10.15725 -10.15696 -10.15696 -10.15254 -10.15254
 Alpha  occ. eigenvalues --  -10.15193 -10.15193 -10.15164 -10.15162  -0.99177
 Alpha  occ. eigenvalues --   -0.98925  -0.82566  -0.81403  -0.81127  -0.79758
 Alpha  occ. eigenvalues --   -0.78273  -0.76251  -0.73632  -0.71356  -0.68344
 Alpha  occ. eigenvalues --   -0.67981  -0.67979  -0.67809  -0.64624  -0.62208
 Alpha  occ. eigenvalues --   -0.59445  -0.58531  -0.57510  -0.56045  -0.55367
 Alpha  occ. eigenvalues --   -0.55173  -0.53387  -0.47771  -0.47710  -0.47153
 Alpha  occ. eigenvalues --   -0.45780  -0.45707  -0.45655  -0.43892  -0.43472
 Alpha  occ. eigenvalues --   -0.43435  -0.43105  -0.42795  -0.41601  -0.41465
 Alpha  occ. eigenvalues --   -0.41038  -0.39764  -0.39377  -0.39239  -0.38262
 Alpha  occ. eigenvalues --   -0.38252  -0.38079  -0.37903  -0.37598  -0.36515
 Alpha  occ. eigenvalues --   -0.36387  -0.35992  -0.35711  -0.34910  -0.34786
 Alpha  occ. eigenvalues --   -0.34213  -0.33713  -0.33704  -0.32897  -0.32448
 Alpha  occ. eigenvalues --   -0.32054  -0.32047  -0.31636  -0.31631  -0.31408
 Alpha  occ. eigenvalues --   -0.31392  -0.30219  -0.30169  -0.27150  -0.24012
 Alpha  occ. eigenvalues --   -0.23755  -0.22964  -0.15373
 Alpha virt. eigenvalues --   -0.00519  -0.00341   0.00039   0.00223   0.00665
 Alpha virt. eigenvalues --    0.01021   0.01035   0.01279   0.01427   0.02085
 Alpha virt. eigenvalues --    0.02287   0.02865   0.03003   0.03325   0.03327

  Beta  occ. eigenvalues --  -19.06383 -19.06383 -10.20901 -10.20900 -10.16867
  Beta  occ. eigenvalues --  -10.16867 -10.16352 -10.16351 -10.15917 -10.15917
  Beta  occ. eigenvalues --  -10.15777 -10.15777 -10.15735 -10.15735 -10.15725
  Beta  occ. eigenvalues --  -10.15725 -10.15696 -10.15696 -10.15254 -10.15254
  Beta  occ. eigenvalues --  -10.15193 -10.15193 -10.15089 -10.15088  -0.98006
  Beta  occ. eigenvalues --   -0.97727  -0.82135  -0.81392  -0.81052  -0.79687
  Beta  occ. eigenvalues --   -0.78179  -0.76145  -0.73561  -0.71257  -0.67980
  Beta  occ. eigenvalues --   -0.67980  -0.67738  -0.67661  -0.64303  -0.62096
  Beta  occ. eigenvalues --   -0.59290  -0.58415  -0.57484  -0.55904  -0.55364
  Beta  occ. eigenvalues --   -0.55086  -0.52996  -0.47744  -0.47699  -0.46955
  Beta  occ. eigenvalues --   -0.45644  -0.45633  -0.45417  -0.43879  -0.43448
  Beta  occ. eigenvalues --   -0.43258  -0.43048  -0.42467  -0.41455  -0.41394
  Beta  occ. eigenvalues --   -0.40883  -0.39112  -0.38985  -0.38805  -0.38229
  Beta  occ. eigenvalues --   -0.38168  -0.37978  -0.37615  -0.37367  -0.36176
  Beta  occ. eigenvalues --   -0.35856  -0.35673  -0.34808  -0.34766  -0.34480
  Beta  occ. eigenvalues --   -0.34028  -0.33503  -0.33064  -0.32860  -0.32355
  Beta  occ. eigenvalues --   -0.31992  -0.31891  -0.31633  -0.31629  -0.31407
  Beta  occ. eigenvalues --   -0.31387  -0.30203  -0.30124  -0.24044  -0.23252
  Beta  occ. eigenvalues --   -0.23130  -0.22376
  Beta virt. eigenvalues --   -0.08202  -0.00511  -0.00341   0.00240   0.00676
  Beta virt. eigenvalues --    0.00790   0.01023   0.01037   0.01284   0.01792
  Beta virt. eigenvalues --    0.02100   0.02299   0.02872   0.03312   0.03351

 Mulliken charges and spin densities:
               1          2
     1  C   -0.722203   0.038617
     2  C    0.862370   0.117209
     3  C   -0.876253   0.106721
     4  O   -0.484927   0.241805
     5  C   -0.722885   0.038610
     6  C    0.863087   0.117192
     7  C   -0.875605   0.106719
     8  O   -0.484943   0.241804
     9  H    0.171999  -0.006576
    10  C   -0.238751  -0.004613
    11  C    0.224541  -0.002352
    12  C   -0.469660  -0.002966
    13  C    0.209666  -0.000929
    14  C   -0.722227  -0.000184
    15  C    0.496516  -0.000050
    16  C   -0.649103  -0.000001
    17  C   -0.687633   0.000004
    18  C   -0.239107  -0.004598
    19  C    0.225945  -0.002350
    20  C   -0.470108  -0.002965
    21  C    0.209853  -0.000928
    22  C   -0.721910  -0.000185
    23  C    0.496567  -0.000051
    24  C   -0.649079  -0.000001
    25  C   -0.687672   0.000004
    26  H    0.172038  -0.006577
    27  H    0.180407   0.007572
    28  H    0.178094   0.007585
    29  H    0.123687  -0.000822
    30  H    0.122001  -0.000877
    31  H    0.137059  -0.000137
    32  H    0.126003  -0.000172
    33  H    0.135214   0.000091
    34  H    0.104907   0.000099
    35  H    0.135935  -0.000009
    36  H    0.130076  -0.000004
    37  H    0.140030  -0.000000
    38  H    0.135123  -0.000000
    39  H    0.158944  -0.000000
    40  H    0.140274  -0.000000
    41  H    0.146141  -0.000001
    42  H    0.145857  -0.000002
    43  H    0.144997  -0.000001
    44  H    0.178168   0.007612
    45  H    0.180386   0.007545
    46  H    0.122178  -0.000868
    47  H    0.123435  -0.000829
    48  H    0.126069  -0.000172
    49  H    0.136996  -0.000137
    50  H    0.104889   0.000097
    51  H    0.135238   0.000092
    52  H    0.130075  -0.000004
    53  H    0.135920  -0.000009
    54  H    0.140031  -0.000000
    55  H    0.158942  -0.000000
    56  H    0.135125  -0.000000
    57  H    0.140274  -0.000000
    58  H    0.146145  -0.000001
    59  H    0.144999  -0.000001
    60  H    0.145866  -0.000002
 Sum of Mulliken charges =  -1.00000   1.00000

 Dipole moment (field-independent basis, Debye):
    X=             -0.0001    Y=             -0.0011    Z=              0.0106  Tot=              0.0107
 Quadrupole moment (field-independent basis, Debye-Ang):
   XX=           -160.5802   YY=           -199.7234   ZZ=           -157.6989
   XY=              6.5973   XZ=              2.8812   YZ=             -5.0412

 Normal termination of Gaussian 16 at Sun Jan 21 07:31:35 2024.
