 Q-Chem 5.4, Q-Chem, Inc., Pleasanton, CA (2021)
 Q-Chem 5.4.0 for Intel X86 EM64T Linux

User input:
--------------------------------------------------------------
$molecule
-2 1
C                 -3.3701960000      3.4889980000      0.0186090000
C                 -4.5921430000      2.8502890000      0.0810380000
C                 -4.6063410000      1.4235080000      0.1225030000
C                 -2.1313130000      2.7945670000      0.0103590000
C                 -2.1590180000      1.3508980000      0.0682060000
C                 -3.4232210000      0.7144630000      0.1109320000
C                 -0.8955900000      3.5522240000     -0.0414590000
C                  0.3099950000      2.7458100000     -0.0372760000
C                  0.2822540000      1.3021490000      0.0206590000
C                 -0.9533830000      0.5430400000      0.0774600000
C                  1.5749930000      3.3901990000     -0.0779490000
C                  2.7719730000      2.7031590000     -0.0626240000
C                  2.7307850000      1.2769230000     -0.0204160000
C                  1.5207410000      0.6157070000      0.0147330000
O                 -0.8707860000      4.8331190000     -0.0807220000
O                 -0.9780180000     -0.7360440000      0.1232280000
C                 -5.8936420000      3.6162600000      0.0880550000
H                 -5.5593940000      0.8976040000      0.1676040000
H                 -3.4182140000     -0.3707760000      0.1443920000
H                  1.4736840000     -0.4684850000      0.0493680000
C                  4.1022890000      3.4165540000     -0.1070990000
H                  3.6631050000      0.7133380000     -0.0119630000
H                 -3.3110830000      4.5729750000     -0.0263220000
H                  1.5575140000      4.4757010000     -0.1215220000
H                 -5.7184370000      4.6955390000      0.0391770000
H                 -6.4834270000      3.4166800000      0.9920530000
H                 -6.5399240000      3.3468540000     -0.7660060000
H                  3.9685170000      4.5020020000     -0.1499660000
H                  4.7034180000      3.1222140000     -0.9855570000
H                  4.7185220000      3.1929120000      0.7733160000
$end
$rem
MAX_SCF_CYCLES=200
BASIS  =  6-311++G(d,p)
GUI  =  2
JOB_TYPE  =  SP
METHOD  =  B3LYP
SOLVENT_METHOD = COSMO
$end
$solvent
dielectric 37.219
opticaldielectric 1.43
$end

--------------------------------------------------------------

             Standard Nuclear Orientation (Angstroms)
    I     Atom           X                Y                Z
 ----------------------------------------------------------------
    1      C       2.4735548153    -1.1860082316    -0.0055988710
    2      C       3.6834872960    -0.5220788799     0.0105951292
    3      C       3.6699938683     0.9052942663     0.0036108534
    4      C       1.2211250558    -0.5163004295    -0.0122862726
    5      C       1.2211155187     0.9287674031    -0.0037432730
    6      C       2.4729487713     1.5905676202    -0.0080124327
    7      C       0.0000043649    -1.2989901086    -0.0135870934
    8      C      -1.2211343671    -0.5163185489    -0.0123001831
    9      C      -1.2211060426     0.9287449875    -0.0036697076
   10      C      -0.0000031550     1.7130539282     0.0025630159
   11      C      -2.4735634293    -1.1860119380    -0.0056952586
   12      C      -3.6834992296    -0.5220763519     0.0105784779
   13      C      -3.6699878008     0.9052984179     0.0038107588
   14      C      -2.4729350926     1.5905568757    -0.0077733896
   15      O       0.0000253548    -2.5807189322    -0.0091099573
   16      O      -0.0000300734     2.9931918561     0.0046503541
   17      C       4.9999133523    -1.2621054044     0.0172011555
   18      H       4.6130520795     1.4507249449     0.0117178537
   19      H       2.4469227135     2.6760175370    -0.0110866990
   20      H      -2.4468736137     2.6760054194    -0.0106881164
   21      C      -4.9999168511    -1.2621129347     0.0170293232
   22      H      -4.6130351716     1.4507467954     0.0120455505
   23      H       2.4352369827    -2.2718259319    -0.0127363327
   24      H      -2.4352621668    -2.2718290600    -0.0129688053
   25      H       4.8453779636    -2.3456037357     0.0083022601
   26      H       5.6031093775    -1.0204496145     0.9018750734
   27      H       5.6239102880    -1.0095781596    -0.8583204164
   28      H      -4.8453552083    -2.3456077941     0.0081143575
   29      H      -5.6238185958    -1.0095758056    -0.8585574397
   30      H      -5.6032093462    -1.0204920149     0.9016461461
 ----------------------------------------------------------------

   15    -767.5807303052      3.77e-06  Convergence criterion met
 Total energy in the final basis set =     -767.5807303052
    6    -767.8545495622      3.65e-06  Convergence criterion met
 Total energy in the final basis set =     -767.8545495622

                    Orbital Energies (a.u.)
 --------------------------------------------------------------

 Alpha MOs
 -- Occupied --
-19.0272 -19.0237 -10.1779 -10.1738 -10.1570 -10.1570 -10.1518 -10.1518
-10.1470 -10.1470 -10.1459 -10.1459 -10.1413 -10.1413 -10.1361 -10.1361
-10.1354 -10.1354  -0.9478  -0.9431  -0.8315  -0.8259  -0.7668  -0.7432
 -0.7284  -0.7161  -0.6835  -0.6596  -0.6289  -0.5938  -0.5755  -0.5570
 -0.5252  -0.4952  -0.4861  -0.4462  -0.4312  -0.4308  -0.4185  -0.4044
 -0.4025  -0.3987  -0.3979  -0.3837  -0.3793  -0.3773  -0.3735  -0.3557
 -0.3546  -0.3467  -0.3313  -0.3291  -0.3151  -0.3135  -0.2994  -0.2961
 -0.2339  -0.2275  -0.2238  -0.2102  -0.2088  -0.2001  -0.1072

          Ground-State Mulliken Net Atomic Charges

     Atom                 Charge (a.u.)
  ----------------------------------------
      1 C                    -0.284359
      2 C                     0.329916
      3 C                    -0.614748
      4 C                     0.108350
      5 C                     0.164433
      6 C                     0.091735
      7 C                    -0.397545
      8 C                     0.109380
      9 C                     0.164637
     10 C                    -0.825201
     11 C                    -0.284425
     12 C                     0.330079
     13 C                    -0.617023
     14 C                     0.091163
     15 O                    -0.703448
     16 O                    -0.687914
     17 C                    -0.420586
     18 H                     0.175223
     19 H                     0.157356
     20 H                     0.157315
     21 C                    -0.420702
     22 H                     0.175112
     23 H                     0.118374
     24 H                     0.118386
     25 H                     0.164102
     26 H                     0.159862
     27 H                     0.158260
     28 H                     0.164033
     29 H                     0.158378
     30 H                     0.159856
  ----------------------------------------
  Sum of atomic charges =    -2.000000

                    Cartesian Multipole Moments
 -----------------------------------------------------------------
    Charge (ESU x 10^10)
                -9.6064
    Dipole Moment (Debye)
         X      -0.0003      Y      -1.8979      Z       0.0407
       Tot       1.8983
    Quadrupole Moments (Debye-Ang)
        XX    -124.6143     XY       0.0029     YY    -170.1059
        XZ       0.0019     YZ      -0.1194     ZZ    -118.4313

 Total job time:  94.33s(wall), 708.24s(cpu)
        *  Thank you very much for using Q-Chem.  Have a nice day.  *
