 Q-Chem 5.4, Q-Chem, Inc., Pleasanton, CA (2021)
 Q-Chem 5.4.0 for Intel X86 EM64T Linux

User input:
--------------------------------------------------------------
$molecule
0 1
C                 -1.7435860000      1.4579360000      1.0133250000
C                 -2.9848160000      0.6889460000      0.7914970000
C                 -3.0408480000     -0.5194970000      0.2076680000
C                 -1.7445800000     -1.1336290000     -0.2533610000
C                 -0.4607710000     -0.3648040000     -0.0361180000
C                 -0.4527790000      0.8469640000      0.5550450000
O                 -1.7120980000     -2.2219650000     -0.7900160000
O                 -1.7871350000      2.5478180000      1.5509890000
I                  1.2450140000      2.0136230000      0.9152490000
I                  1.2515930000     -1.3527820000     -0.7303510000
H                 -3.8680390000      1.1999380000      1.1507370000
C                 -4.3484970000     -1.2910800000     -0.0077380000
C                 -5.5552210000     -0.4985410000      0.5298060000
C                 -4.2914960000     -2.6441120000      0.7453490000
C                 -4.5727880000     -1.5346850000     -1.5214890000
H                 -5.6774420000      0.4613740000      0.0205170000
H                 -5.4807940000     -0.3140190000      1.6050580000
H                 -6.4653360000     -1.0781200000      0.3590760000
H                 -4.1319730000     -2.4879220000      1.8163180000
H                 -3.5003230000     -3.2872510000      0.3640380000
H                 -5.2457510000     -3.1641520000      0.6230540000
H                 -4.6139170000     -0.5872650000     -2.0669360000
H                 -5.5297730000     -2.0439800000     -1.6658090000
H                 -3.7879020000     -2.1531750000     -1.9532260000
$end
$rem
MAX_SCF_CYCLES=200
BASIS  =  6-311++G(d,p)
GUI  =  2
JOB_TYPE  =  SP
METHOD  =  B3LYP
SOLVENT_METHOD = COSMO
$end
$solvent
dielectric 37.219
opticaldielectric 1.43
$end

--------------------------------------------------------------

             Standard Nuclear Orientation (Angstroms)
    I     Atom           X                Y                Z
 ----------------------------------------------------------------
    1      C      -0.3872461601    -2.0187727073    -0.0000270314
    2      C      -1.8427058834    -1.7680895893    -0.0004302236
    3      C      -2.4080862835    -0.5496170538    -0.0001977212
    4      C      -1.4914132019     0.6460947445     0.0003827671
    5      C       0.0027336979     0.4137654187     0.0001067117
    6      C       0.5258490981    -0.8289209970     0.0000805198
    7      O      -1.9252585321     1.7798083756     0.0011246263
    8      O       0.0371136543    -3.1583956931     0.0002267005
    9      I       2.5655988125    -1.2901826518     0.0000253388
   10      I       1.1385145462     2.1745187404    -0.0001386350
   11      H      -2.4278993464    -2.6779234156    -0.0007284981
   12      C      -3.9250570249    -0.3249267256    -0.0001331099
   13      C      -4.6843658222    -1.6653384850    -0.0010797863
   14      C      -4.3408547983     0.4608154934    -1.2693084773
   15      C      -4.3410834159     0.4590166458     1.2700821361
   16      H      -4.4625713187    -2.2649618351     0.8860555483
   17      H      -4.4623495631    -2.2637826981    -0.8889581084
   18      H      -5.7582869940    -1.4651806048    -0.0010249442
   19      H      -4.0520255102    -0.0803857433    -2.1751210221
   20      H      -3.8932061277     1.4527003147    -1.2967991485
   21      H      -5.4284897158     0.5743857894    -1.2816514083
   22      H      -4.0524317496    -0.0835997492     2.1750994533
   23      H      -5.4287310816     0.5725985467     1.2823970285
   24      H      -3.8934788141     1.4508747743     1.2990704734
 ----------------------------------------------------------------

    9  -14376.6803814524      8.02e-06  Convergence criterion met
 Total energy in the final basis set =   -14376.6803814524
    4  -14376.6922636586      9.06e-06  Convergence criterion met
 Total energy in the final basis set =   -14376.6922636586

                    Orbital Energies (a.u.)
 --------------------------------------------------------------

 Alpha MOs
 -- Occupied --
*****************-176.3163-176.3158-165.7201-165.7195-165.7181-165.7178
********-165.7172 -35.8128 -35.8122 -31.3060 -31.3055 -31.3003 -31.2997
-31.2996 -31.2990 -22.9565 -22.9559 -22.9553 -22.9548 -22.9547 -22.9542
-22.9508 -22.9508 -22.9502 -22.9502 -19.1531 -19.1515 -10.3056 -10.3016
-10.2625 -10.2608 -10.2267 -10.2099 -10.2064 -10.1614 -10.1599 -10.1598
 -6.3623  -6.3617  -4.7747  -4.7741  -4.7606  -4.7600  -4.7590  -4.7584
 -2.0407  -2.0400  -2.0363  -2.0359  -2.0352  -2.0346  -2.0229  -2.0229
 -2.0225  -2.0222  -1.0902  -1.0857  -0.8823  -0.8440  -0.7889  -0.7317
 -0.6975  -0.6902  -0.6814  -0.6714  -0.6127  -0.6034  -0.5559  -0.5425
 -0.5013  -0.4847  -0.4685  -0.4668  -0.4460  -0.4444  -0.4372  -0.4283
 -0.4147  -0.3913  -0.3890  -0.3832  -0.3705  -0.3630  -0.3551  -0.3445
 -0.3411  -0.3042  -0.3027  -0.2973  -0.2916  -0.2910  -0.2616  -0.2586

          Ground-State Mulliken Net Atomic Charges

     Atom                 Charge (a.u.)
  ----------------------------------------
      1 C                    -0.989965
      2 C                    -0.464363
      3 C                     1.298707
      4 C                    -0.856811
      5 C                    -0.195918
      6 C                     1.010872
      7 O                    -0.173623
      8 O                    -0.229992
      9 I                     0.098783
     10 I                     0.104168
     11 H                     0.258077
     12 C                     0.519738
     13 C                    -0.491081
     14 C                    -0.706807
     15 C                    -0.706760
     16 H                     0.152007
     17 H                     0.152036
     18 H                     0.191803
     19 H                     0.157691
     20 H                     0.180532
     21 H                     0.176366
     22 H                     0.157611
     23 H                     0.176431
     24 H                     0.180499
  ----------------------------------------
  Sum of atomic charges =     0.000000

                    Cartesian Multipole Moments
 -----------------------------------------------------------------
    Charge (ESU x 10^10)
                 0.0000
    Dipole Moment (Debye)
         X      -2.6779      Y       0.1825      Z      -0.0024
       Tot       2.6842
    Quadrupole Moments (Debye-Ang)
        XX    -111.6399     XY      10.2017     YY    -142.4081
        XZ       0.0038     YZ       0.0000     ZZ    -127.7526

 Total job time:  92.10s(wall), 321.62s(cpu)
        *  Thank you very much for using Q-Chem.  Have a nice day.  *
