 Gaussian 16, Revision A.03,
 Gaussian 16:  ES64L-G16RevA.03 25-Dec-2016

 ----------------------------------------------------------------
 #P UB3LYP/6-311++G(d,p) SCRF=(PCM,Solvent=n,n-DiMethylFormamide)
 ----------------------------------------------------------------

 -------
 Reduced
 -------
 Symbolic Z-matrix:
 Charge = -2 Multiplicity = 1

                         Standard orientation:
 ---------------------------------------------------------------------
 Center     Atomic      Atomic             Coordinates (Angstroms)
 Number     Number       Type             X           Y           Z
 ---------------------------------------------------------------------
      1          6           0        2.984093   -3.458772    0.225441
      2          8           0        1.758147   -2.780036    0.164800
      3          6           0        1.767929   -1.406621    0.054227
      4          6           0        2.955038   -0.707060    0.049414
      5          6           0        2.955028    0.707101   -0.049584
      6          6           0        1.767897    1.406559   -0.055231
      7          8           0        1.757981    2.779881   -0.166976
      8          6           0        2.983873    3.459079   -0.223571
      9          6           0        0.495739    0.734419    0.027871
     10          6           0       -0.741414    1.494615    0.161525
     11          8           0       -0.812352    2.750802    0.333064
     12          6           0       -1.972624    0.708612    0.082787
     13          6           0       -3.215124    1.381078    0.159169
     14          6           0       -4.417169    0.704504    0.079881
     15          6           0       -4.417204   -0.704436   -0.079770
     16          6           0       -3.215174   -1.381048   -0.159004
     17          6           0       -1.972663   -0.708613   -0.082698
     18          6           0       -0.741496   -1.494721   -0.161384
     19          8           0       -0.812540   -2.750961   -0.332368
     20          6           0        0.495760   -0.734520   -0.028650
     21          1           0        2.737526   -4.519689    0.321085
     22          1           0        3.595256   -3.159090    1.092053
     23          1           0        3.589590   -3.315361   -0.682702
     24          1           0        3.908296   -1.217045    0.100977
     25          1           0        3.908329    1.217053   -0.101052
     26          1           0        3.586937    3.314584    0.685993
     27          1           0        2.737172    4.520019   -0.318473
     28          1           0        3.597501    3.160864   -1.088957
     29          1           0       -3.174461    2.458433    0.281367
     30          1           0       -5.358202    1.248399    0.138416
     31          1           0       -5.358252   -1.248303   -0.138293
     32          1           0       -3.174517   -2.458411   -0.281124
 ---------------------------------------------------------------------

 SCF Done:  E(UB3LYP) =  -918.272150119     A.U. after   17 cycles

 The electronic state is 1-A.
 Alpha  occ. eigenvalues --  -19.12680 -19.12679 -19.00966 -19.00965 -10.20530
 Alpha  occ. eigenvalues --  -10.20530 -10.20300 -10.20298 -10.17258 -10.17257
 Alpha  occ. eigenvalues --  -10.14761 -10.14716 -10.14265 -10.14264 -10.13855
 Alpha  occ. eigenvalues --  -10.13823 -10.13758 -10.13713 -10.13094 -10.13050
 Alpha  occ. eigenvalues --   -1.04510  -1.04443  -0.93882  -0.93579  -0.82378
 Alpha  occ. eigenvalues --   -0.81507  -0.74706  -0.73705  -0.71875  -0.71328
 Alpha  occ. eigenvalues --   -0.68789  -0.65829  -0.63058  -0.59928  -0.58718
 Alpha  occ. eigenvalues --   -0.55250  -0.53238  -0.51401  -0.50311  -0.48743
 Alpha  occ. eigenvalues --   -0.46931  -0.45242  -0.44965  -0.44665  -0.43108
 Alpha  occ. eigenvalues --   -0.42637  -0.41768  -0.39843  -0.39630  -0.38479
 Alpha  occ. eigenvalues --   -0.37995  -0.37204  -0.37007  -0.35278  -0.34842
 Alpha  occ. eigenvalues --   -0.34458  -0.33485  -0.32116  -0.31575  -0.30858
 Alpha  occ. eigenvalues --   -0.30675  -0.30594  -0.30118  -0.27045  -0.22608
 Alpha  occ. eigenvalues --   -0.22018  -0.21337  -0.18992  -0.18508  -0.18079
 Alpha  occ. eigenvalues --   -0.09571
 Alpha virt. eigenvalues --   -0.01586  -0.00168   0.00453   0.00577   0.00817
 Alpha virt. eigenvalues --    0.02138   0.02255   0.03138   0.03165   0.03705
 Alpha virt. eigenvalues --    0.03949   0.04405   0.04730   0.05351   0.05589

  Beta  occ. eigenvalues --  -19.12680 -19.12679 -19.00966 -19.00965 -10.20530
  Beta  occ. eigenvalues --  -10.20530 -10.20300 -10.20298 -10.17258 -10.17257
  Beta  occ. eigenvalues --  -10.14761 -10.14716 -10.14265 -10.14264 -10.13855
  Beta  occ. eigenvalues --  -10.13823 -10.13758 -10.13713 -10.13094 -10.13050
  Beta  occ. eigenvalues --   -1.04510  -1.04443  -0.93882  -0.93579  -0.82378
  Beta  occ. eigenvalues --   -0.81507  -0.74706  -0.73705  -0.71875  -0.71328
  Beta  occ. eigenvalues --   -0.68789  -0.65829  -0.63058  -0.59928  -0.58718
  Beta  occ. eigenvalues --   -0.55250  -0.53238  -0.51401  -0.50311  -0.48743
  Beta  occ. eigenvalues --   -0.46931  -0.45242  -0.44965  -0.44665  -0.43108
  Beta  occ. eigenvalues --   -0.42637  -0.41768  -0.39843  -0.39630  -0.38479
  Beta  occ. eigenvalues --   -0.37995  -0.37204  -0.37007  -0.35278  -0.34842
  Beta  occ. eigenvalues --   -0.34458  -0.33485  -0.32116  -0.31575  -0.30858
  Beta  occ. eigenvalues --   -0.30675  -0.30594  -0.30118  -0.27045  -0.22608
  Beta  occ. eigenvalues --   -0.22018  -0.21337  -0.18992  -0.18508  -0.18079
  Beta  occ. eigenvalues --   -0.09571
  Beta virt. eigenvalues --   -0.01586  -0.00168   0.00453   0.00577   0.00817
  Beta virt. eigenvalues --    0.02138   0.02255   0.03138   0.03165   0.03705
  Beta virt. eigenvalues --    0.03949   0.04405   0.04730   0.05351   0.05589

 Mulliken charges and spin densities:
               1          2
     1  C   -0.287149  -0.000000
     2  O   -0.152869   0.000000
     3  C   -0.156762   0.000000
     4  C   -0.473512  -0.000000
     5  C   -0.476366  -0.000000
     6  C   -0.159113   0.000000
     7  O   -0.152992  -0.000000
     8  C   -0.287722  -0.000000
     9  C    0.217674   0.000000
    10  C   -0.123796  -0.000000
    11  O   -0.641647   0.000000
    12  C    0.160505   0.000000
    13  C    0.098532   0.000000
    14  C   -0.577702  -0.000000
    15  C   -0.578021   0.000000
    16  C    0.098445   0.000000
    17  C    0.160590  -0.000000
    18  C   -0.120218  -0.000000
    19  O   -0.641841   0.000000
    20  C    0.218398   0.000000
    21  H    0.188106   0.000000
    22  H    0.135715  -0.000000
    23  H    0.146049  -0.000000
    24  H    0.170918  -0.000000
    25  H    0.170989   0.000000
    26  H    0.146130  -0.000000
    27  H    0.188015   0.000000
    28  H    0.135737   0.000000
    29  H    0.143622   0.000000
    30  H    0.153314   0.000000
    31  H    0.153365   0.000000
    32  H    0.143604   0.000000
 Sum of Mulliken charges =  -2.00000  -0.00000

 Dipole moment (field-independent basis, Debye):
    X=              9.4388    Y=             -0.0001    Z=              0.0036  Tot=              9.4388
 Quadrupole moment (field-independent basis, Debye-Ang):
   XX=           -138.2784   YY=           -174.8018   ZZ=           -130.2759
   XY=             -0.0012   XZ=              0.0128   YZ=             -6.5719

 Normal termination of Gaussian 16 at Sun Jan 14 01:27:50 2024.
