 Q-Chem 5.4, Q-Chem, Inc., Pleasanton, CA (2021)
 Q-Chem 5.4.0 for Intel X86 EM64T Linux

User input:
--------------------------------------------------------------
$molecule
-1 2
N                  3.5762560000     -1.2690170000      0.1384910000
C                  2.8831880000     -0.0904570000     -0.0825520000
C                  3.5807600000      1.0947900000     -0.3264540000
C                  2.9009340000      2.3099000000     -0.4873800000
C                  1.5234060000      2.3603070000     -0.4030820000
C                  0.7799930000      1.1843360000     -0.1711920000
C                 -0.6786910000      1.3010390000     -0.1048050000
O                 -1.2269810000      2.4372670000     -0.2565030000
C                 -1.4416950000      0.0827450000      0.1214030000
C                 -2.8760470000      0.1067490000      0.2117370000
N                 -3.5569920000      1.3127560000      0.2080370000
C                 -3.5796570000     -1.0922320000      0.3463540000
C                 -2.9047730000     -2.3186100000      0.4184140000
C                 -1.5257140000     -2.3655270000      0.3621490000
C                 -0.7776730000     -1.1790510000      0.2132680000
C                  0.6810430000     -1.2957260000      0.1475110000
O                  1.2251250000     -2.4415480000      0.2228880000
C                  1.4473990000     -0.0699260000     -0.0194540000
H                  2.9773710000     -2.0970940000      0.1121790000
H                  4.4950790000     -1.3284050000     -0.2716110000
H                  4.6664980000      1.0639280000     -0.3705340000
H                  3.4691310000      3.2173530000     -0.6722440000
H                  0.9768880000      3.2875440000     -0.5144390000
H                 -4.5156430000      1.2813970000     -0.1017220000
H                 -2.9759120000      2.1002960000     -0.0870890000
H                 -4.6640770000     -1.0583670000      0.4143670000
H                 -3.4773390000     -3.2355850000      0.5271290000
H                 -0.9818800000     -3.2988610000      0.4251340000
$end
$rem
MAX_SCF_CYCLES=200
BASIS  =  6-311++G(d,p)
GUI  =  2
JOB_TYPE  =  SP
METHOD  =  B3LYP
SOLVENT_METHOD = COSMO
$end
$solvent
dielectric 37.219
opticaldielectric 1.43
$end

--------------------------------------------------------------

             Standard Nuclear Orientation (Angstroms)
    I     Atom           X                Y                Z
 ----------------------------------------------------------------
    1      N       3.2786096500    -1.9076869510     0.1507565161
    2      C       2.8208720534    -0.6051351213     0.0410206625
    3      C       3.7312050370     0.4527653870    -0.0141672474
    4      C       3.2882521320     1.7817991703    -0.0590538467
    5      C       1.9383238301     2.0728716055    -0.0448825206
    6      C       0.9855272796     1.0337545711    -0.0029519176
    7      C      -0.4311278888     1.4064124620    -0.0026945625
    8      O      -0.7594305493     2.6333568510    -0.0410756071
    9      C      -1.4101102175     0.3301769727     0.0272421230
   10      C      -2.8208915778     0.6051487853     0.0409730862
   11      N      -3.2785494172     1.9077134805     0.1506416037
   12      C      -3.7311963113    -0.4527033114    -0.0141489685
   13      C      -3.2882694671    -1.7817896121    -0.0589761012
   14      C      -1.9383716606    -2.0729033913    -0.0448566070
   15      C      -0.9855428149    -1.0337593109    -0.0029882499
   16      C       0.4311005015    -1.4064669483    -0.0026162460
   17      O       0.7594310091    -2.6333816937    -0.0412718516
   18      C       1.4101555158    -0.3302126566     0.0272576308
   19      H       2.5481578244    -2.6041928702    -0.0116833724
   20      H       4.2015735476    -2.0869761969    -0.2124779816
   21      H       4.7950283311     0.2294801121    -0.0020759743
   22      H       4.0185755294     2.5853146345    -0.0975780008
   23      H       1.5721949051     3.0908122144    -0.0693219752
   24      H      -4.2014309290     2.0870572709    -0.2127745279
   25      H      -2.5480838945     2.6042319668    -0.0113913940
   26      H      -4.7950308318    -0.2294324383    -0.0020836008
   27      H      -4.0187236451    -2.5851951854    -0.0973180492
   28      H      -1.5722446132    -3.0908380858    -0.0692457056
 ----------------------------------------------------------------

    9    -799.7801232073      8.56e-06  Convergence criterion met
 Total energy in the final basis set =     -799.7801232073
    4    -799.8655897969      6.91e-06  Convergence criterion met
 Total energy in the final basis set =     -799.8655897969

                    Orbital Energies (a.u.)
 --------------------------------------------------------------

 Alpha MOs
 -- Occupied --
-19.0791 -19.0791 -14.3025 -14.3025 -10.2273 -10.2273 -10.2151 -10.2151
-10.1717 -10.1717 -10.1710 -10.1710 -10.1694 -10.1694 -10.1608 -10.1608
-10.1561 -10.1561  -1.0068  -1.0043  -0.9115  -0.9106  -0.8463  -0.8296
 -0.7810  -0.7375  -0.7331  -0.7231  -0.6637  -0.6338  -0.6243  -0.5799
 -0.5568  -0.5529  -0.5250  -0.5037  -0.4944  -0.4788  -0.4702  -0.4546
 -0.4487  -0.4334  -0.4324  -0.4260  -0.4154  -0.4030  -0.3932  -0.3900
 -0.3769  -0.3684  -0.3577  -0.3570  -0.3487  -0.3407  -0.3127  -0.3052
 -0.2687  -0.2507  -0.2474  -0.2398  -0.2165  -0.2075  -0.1383

 Beta MOs
 -- Occupied --
-19.0743 -19.0743 -14.3023 -14.3023 -10.2253 -10.2253 -10.2151 -10.2150
-10.1717 -10.1716 -10.1702 -10.1702 -10.1689 -10.1689 -10.1599 -10.1599
-10.1558 -10.1558  -0.9985  -0.9957  -0.9107  -0.9097  -0.8436  -0.8282
 -0.7773  -0.7357  -0.7299  -0.7214  -0.6570  -0.6318  -0.6221  -0.5791
 -0.5546  -0.5510  -0.5235  -0.5029  -0.4936  -0.4764  -0.4679  -0.4537
 -0.4478  -0.4320  -0.4311  -0.4154  -0.4121  -0.4006  -0.3912  -0.3831
 -0.3672  -0.3605  -0.3564  -0.3516  -0.3442  -0.3380  -0.3063  -0.2990
 -0.2511  -0.2463  -0.2425  -0.2356  -0.2066  -0.2021

          Ground-State Mulliken Net Atomic Charges

     Atom                 Charge (a.u.)    Spin (a.u.)
  --------------------------------------------------------
      1 N                    -0.446324       0.010716
      2 C                     0.101908       0.021160
      3 C                    -0.241427       0.082433
      4 C                    -0.444320       0.037355
      5 C                    -0.222988       0.058608
      6 C                     0.493083       0.046482
      7 C                    -0.679206       0.098121
      8 O                    -0.497550       0.173304
      9 C                     0.273432      -0.013828
     10 C                     0.102007       0.021182
     11 N                    -0.445722       0.010756
     12 C                    -0.241581       0.082418
     13 C                    -0.444131       0.037406
     14 C                    -0.222848       0.058578
     15 C                     0.493539       0.046577
     16 C                    -0.679910       0.098000
     17 O                    -0.497027       0.173397
     18 C                     0.274405      -0.013728
     19 H                     0.324171      -0.002454
     20 H                     0.281968      -0.000523
     21 H                     0.182096      -0.005846
     22 H                     0.202931      -0.003030
     23 H                     0.171258      -0.002615
     24 H                     0.281908      -0.000524
     25 H                     0.324104      -0.002454
     26 H                     0.182063      -0.005846
     27 H                     0.202927      -0.003033
     28 H                     0.171235      -0.002614
  --------------------------------------------------------
  Sum of atomic charges =    -1.000000

                    Cartesian Multipole Moments
 -----------------------------------------------------------------
    Charge (ESU x 10^10)
                -4.8032
    Dipole Moment (Debye)
         X      -0.0005      Y      -0.0002      Z      -1.8286
       Tot       1.8286
    Quadrupole Moments (Debye-Ang)
        XX     -95.1458     XY       1.2790     YY    -133.2905
        XZ      -0.0029     YZ      -0.0006     ZZ    -114.9689

 Total job time:  82.82s(wall), 630.53s(cpu)
        *  Thank you very much for using Q-Chem.  Have a nice day.  *
