 Gaussian 16, Revision A.03,
 Gaussian 16:  ES64L-G16RevA.03 25-Dec-2016

 ----------------------------------------------------------------
 #P UB3LYP/6-311++G(d,p) SCRF=(PCM,Solvent=n,n-DiMethylFormamide)
 ----------------------------------------------------------------

 ------------------
 Quinone PCM in DMF
 ------------------
 Symbolic Z-matrix:
 Charge =  0 Multiplicity = 1

                         Standard orientation:
 ---------------------------------------------------------------------
 Center     Atomic      Atomic             Coordinates (Angstroms)
 Number     Number       Type             X           Y           Z
 ---------------------------------------------------------------------
      1          6           0       -0.147548   -2.123518   -0.000524
      2          6           0        1.207219   -2.429238   -0.000501
      3          6           0        2.148408   -1.404995   -0.000025
      4          6           0       -0.552278   -0.790223   -0.000165
      5          6           0        0.400260    0.256215    0.000150
      6          6           0        1.781249   -0.052917    0.000244
      7          6           0       -2.022292   -0.510827    0.000195
      8          6           0       -2.448825    0.904249   -0.000425
      9          6           0       -1.555064    1.899408    0.000031
     10          6           0       -0.087191    1.666694   -0.000054
     11          8           0       -2.851313   -1.407003    0.000904
     12          8           0        0.658151    2.635942   -0.000572
     13          1           0       -0.905758   -2.896385   -0.000726
     14          6           0        2.877049    0.983514    0.000604
     15          1           0        1.533133   -3.463245   -0.000841
     16          1           0        3.204194   -1.653614    0.000138
     17          1           0       -3.519305    1.078425   -0.000745
     18          1           0       -1.847929    2.943804    0.000020
     19          1           0        2.811591    1.638405    0.871658
     20          1           0        2.811579    1.638992   -0.869954
     21          1           0        3.851868    0.491925    0.000614
 ---------------------------------------------------------------------

 SCF Done:  E(UB3LYP) =  -574.591412842     A.U. after   14 cycles

 The electronic state is 1-A.
 Alpha  occ. eigenvalues --  -19.13764 -19.13577 -10.28586 -10.28567 -10.21402
 Alpha  occ. eigenvalues --  -10.21277 -10.21120 -10.21113 -10.20973 -10.19823
 Alpha  occ. eigenvalues --  -10.19631 -10.19513 -10.17078  -1.07062  -1.06825
 Alpha  occ. eigenvalues --   -0.89242  -0.84271  -0.79786  -0.77725  -0.71652
 Alpha  occ. eigenvalues --   -0.69143  -0.64553  -0.64085  -0.57468  -0.54055
 Alpha  occ. eigenvalues --   -0.53540  -0.50867  -0.48936  -0.46594  -0.46043
 Alpha  occ. eigenvalues --   -0.45770  -0.43691  -0.43058  -0.42828  -0.42785
 Alpha  occ. eigenvalues --   -0.41211  -0.39277  -0.38010  -0.37300  -0.36928
 Alpha  occ. eigenvalues --   -0.31082  -0.28850  -0.28233  -0.27642  -0.27077
 Alpha virt. eigenvalues --   -0.12819  -0.05506  -0.03687  -0.00570   0.00603
 Alpha virt. eigenvalues --    0.00822   0.01838   0.02185   0.02779   0.03559
 Alpha virt. eigenvalues --    0.03902   0.04882   0.05276   0.06070   0.06103

  Beta  occ. eigenvalues --  -19.13764 -19.13577 -10.28586 -10.28567 -10.21402
  Beta  occ. eigenvalues --  -10.21277 -10.21120 -10.21113 -10.20973 -10.19823
  Beta  occ. eigenvalues --  -10.19631 -10.19513 -10.17078  -1.07062  -1.06825
  Beta  occ. eigenvalues --   -0.89242  -0.84271  -0.79786  -0.77725  -0.71652
  Beta  occ. eigenvalues --   -0.69143  -0.64553  -0.64085  -0.57468  -0.54055
  Beta  occ. eigenvalues --   -0.53540  -0.50867  -0.48936  -0.46594  -0.46043
  Beta  occ. eigenvalues --   -0.45770  -0.43691  -0.43058  -0.42828  -0.42785
  Beta  occ. eigenvalues --   -0.41211  -0.39277  -0.38010  -0.37300  -0.36928
  Beta  occ. eigenvalues --   -0.31082  -0.28850  -0.28233  -0.27642  -0.27077
  Beta virt. eigenvalues --   -0.12819  -0.05506  -0.03687  -0.00570   0.00603
  Beta virt. eigenvalues --    0.00822   0.01838   0.02185   0.02779   0.03559
  Beta virt. eigenvalues --    0.03902   0.04882   0.05276   0.06070   0.06103

 Mulliken charges and spin densities:
               1          2
     1  C    0.540603   0.000000
     2  C   -0.521397  -0.000000
     3  C   -0.555216   0.000000
     4  C    0.225301   0.000000
     5  C    0.171525  -0.000000
     6  C    0.788201  -0.000000
     7  C   -0.416267   0.000000
     8  C    0.061674  -0.000000
     9  C   -0.191107  -0.000000
    10  C   -0.633816   0.000000
    11  O   -0.289554  -0.000000
    12  O   -0.264895  -0.000000
    13  H    0.182530  -0.000000
    14  C   -0.445652  -0.000000
    15  H    0.219475  -0.000000
    16  H    0.152262   0.000000
    17  H    0.232336   0.000000
    18  H    0.235188   0.000000
    19  H    0.172215   0.000000
    20  H    0.172186   0.000000
    21  H    0.164406  -0.000000
 Sum of Mulliken charges =  -0.00000  -0.00000

 Dipole moment (field-independent basis, Debye):
    X=              2.1877    Y=             -0.8538    Z=             -0.0009  Tot=              2.3484
 Quadrupole moment (field-independent basis, Debye-Ang):
   XX=            -73.4987   YY=            -77.8102   ZZ=            -76.4959
   XY=            -15.4685   XZ=              0.0098   YZ=              0.0092

 Normal termination of Gaussian 16 at Sun Jan 21 07:52:04 2024.
