 Gaussian 16, Revision A.03,
 Gaussian 16:  ES64L-G16RevA.03 25-Dec-2016

 ----------------------------------------------------------------------
 #P UB3LYP/6-311++G(d,p) nosym opt freq SCRF=(PCM,Solvent=n,n-DiMethylF
 ormamide)
 ----------------------------------------------------------------------

 -------
 Reduced
 -------
 Symbolic Z-matrix:
 Charge = -2 Multiplicity = 1

 SCF Done:  E(UB3LYP) =  -1219.35055590     A.U. after   16 cycles
 SCF Done:  E(UB3LYP) =  -1219.34954334     A.U. after   14 cycles
 SCF Done:  E(UB3LYP) =  -1219.35492092     A.U. after   15 cycles
 SCF Done:  E(UB3LYP) =  -1219.35550556     A.U. after   13 cycles
 SCF Done:  E(UB3LYP) =  -1219.35425945     A.U. after   14 cycles
 SCF Done:  E(UB3LYP) =  -1219.35583458     A.U. after   13 cycles
 SCF Done:  E(UB3LYP) =  -1219.35619068     A.U. after   13 cycles
 SCF Done:  E(UB3LYP) =  -1219.35623317     A.U. after   12 cycles
 SCF Done:  E(UB3LYP) =  -1219.35623307     A.U. after   12 cycles
 SCF Done:  E(UB3LYP) =  -1219.35625598     A.U. after   11 cycles
 SCF Done:  E(UB3LYP) =  -1219.35625823     A.U. after   11 cycles
 SCF Done:  E(UB3LYP) =  -1219.35626012     A.U. after   10 cycles
 SCF Done:  E(UB3LYP) =  -1219.35626236     A.U. after   10 cycles
 SCF Done:  E(UB3LYP) =  -1219.35626310     A.U. after   11 cycles
 SCF Done:  E(UB3LYP) =  -1219.35626339     A.U. after   11 cycles
 SCF Done:  E(UB3LYP) =  -1219.35626349     A.U. after    9 cycles
 SCF Done:  E(UB3LYP) =  -1219.35626352     A.U. after    9 cycles
 Optimization completed.
    -- Stationary point found.
 Normal termination of Gaussian 16 at Sun Feb 11 04:44:14 2024.

 ----------------------------------------------------------------------
 #P Geom=AllCheck Guess=TCheck SCRF=Check GenChk UB3LYP/6-311++G(d,p) F
 req
 ----------------------------------------------------------------------

 Structure from the checkpoint file:  "265-an.chk"
 -------
 Reduced
 -------
 Charge = -2 Multiplicity = 1

                          Input orientation:
 ---------------------------------------------------------------------
 Center     Atomic      Atomic             Coordinates (Angstroms)
 Number     Number       Type             X           Y           Z
 ---------------------------------------------------------------------
      1          6           0       -1.074120    2.946990   -0.526832
      2          6           0       -2.380987    2.510110   -0.368745
      3          6           0       -2.635799    1.191926    0.044304
      4          6           0        0.014100    2.080572   -0.278318
      5          6           0       -0.243623    0.739964    0.137589
      6          6           0       -1.588695    0.318549    0.286658
      7          6           0        1.375565    2.597872   -0.472489
      8          6           0        2.427205    1.662727   -0.226772
      9          6           0        2.127721    0.322315    0.213899
     10          6           0        0.849417   -0.183068    0.422580
     11          8           0        1.489313    3.821678   -0.831641
     12          8           0        0.572086   -1.387096    0.843033
     13          1           0       -3.661624    0.858766    0.161595
     14          1           0        2.960061   -0.342763    0.406447
     15          6           0       -1.949856   -1.077413    0.712448
     16          8           0       -2.322570   -1.383052    1.829999
     17          8           0       -2.060744   -1.905153   -0.348165
     18          6           0       -2.446862   -3.262848   -0.064509
     19          1           0       -3.210357    3.179826   -0.567836
     20          1           0       -2.502487   -3.758876   -1.031047
     21          1           0       -3.416775   -3.293244    0.433432
     22          1           0       -1.696364   -3.744523    0.564095
     23          6           0        3.818664    2.057477   -0.409268
     24          8           0        4.261758    3.138282   -0.785817
     25          8           0        4.702028    1.039297   -0.105359
     26          6           0       -0.893344    4.354968   -1.035057
     27          8           0       -1.066501    4.647040   -2.204695
     28          8           0       -0.831710    5.367674   -0.136453
     29          6           0       -0.519586    5.089281    1.242485
     30          6           0        6.093151    1.341317   -0.257642
     31          1           0       -0.541189    6.054568    1.744889
     32          1           0        0.474358    4.649159    1.312524
     33          1           0       -1.264047    4.426931    1.686957
     34          1           0        6.623045    0.433407    0.027053
     35          1           0        6.391367    2.165957    0.393020
     36          1           0        6.330129    1.601991   -1.291288
 ---------------------------------------------------------------------

 SCF Done:  E(UB3LYP) =  -1219.35626352     A.U. after    1 cycles

 Alpha  occ. eigenvalues --  -19.15962 -19.15661 -19.14149 -19.10356 -19.09945
 Alpha  occ. eigenvalues --  -19.08253 -19.04452 -19.02256 -10.30222 -10.30071
 Alpha  occ. eigenvalues --  -10.27311 -10.21546 -10.21296 -10.20881 -10.20289
 Alpha  occ. eigenvalues --  -10.18473 -10.18179 -10.17990 -10.17516 -10.17286
 Alpha  occ. eigenvalues --  -10.16713 -10.16650 -10.14653 -10.12603  -1.09901
 Alpha  occ. eigenvalues --   -1.09265  -1.07695  -1.01140  -1.01071  -0.98822
 Alpha  occ. eigenvalues --   -0.96441  -0.93547  -0.85767  -0.79020  -0.77680
 Alpha  occ. eigenvalues --   -0.74473  -0.72389  -0.71465  -0.70128  -0.66524
 Alpha  occ. eigenvalues --   -0.64504  -0.61837  -0.58808  -0.57294  -0.55221
 Alpha  occ. eigenvalues --   -0.53995  -0.52090  -0.50149  -0.49587  -0.47991
 Alpha  occ. eigenvalues --   -0.47430  -0.47012  -0.46932  -0.46403  -0.46376
 Alpha  occ. eigenvalues --   -0.45445  -0.44661  -0.43757  -0.42394  -0.41606
 Alpha  occ. eigenvalues --   -0.40664  -0.40135  -0.39598  -0.38955  -0.38167
 Alpha  occ. eigenvalues --   -0.37946  -0.37734  -0.37058  -0.35430  -0.35144
 Alpha  occ. eigenvalues --   -0.34499  -0.34229  -0.33474  -0.33029  -0.32484
 Alpha  occ. eigenvalues --   -0.30138  -0.29416  -0.28902  -0.28101  -0.27836
 Alpha  occ. eigenvalues --   -0.26472  -0.24376  -0.23978  -0.23220  -0.21340
 Alpha  occ. eigenvalues --   -0.20376  -0.13360
 Alpha virt. eigenvalues --   -0.03735  -0.02180  -0.00158   0.00442   0.00826
 Alpha virt. eigenvalues --    0.01185   0.01432   0.01945   0.02420   0.02578
 Alpha virt. eigenvalues --    0.03155   0.03586   0.03606   0.04029   0.04153

  Beta  occ. eigenvalues --  -19.15962 -19.15661 -19.14149 -19.10356 -19.09945
  Beta  occ. eigenvalues --  -19.08253 -19.04452 -19.02256 -10.30222 -10.30071
  Beta  occ. eigenvalues --  -10.27311 -10.21546 -10.21296 -10.20881 -10.20289
  Beta  occ. eigenvalues --  -10.18473 -10.18179 -10.17990 -10.17516 -10.17286
  Beta  occ. eigenvalues --  -10.16713 -10.16650 -10.14653 -10.12603  -1.09901
  Beta  occ. eigenvalues --   -1.09265  -1.07695  -1.01140  -1.01071  -0.98822
  Beta  occ. eigenvalues --   -0.96441  -0.93547  -0.85767  -0.79020  -0.77680
  Beta  occ. eigenvalues --   -0.74473  -0.72389  -0.71465  -0.70128  -0.66524
  Beta  occ. eigenvalues --   -0.64504  -0.61837  -0.58808  -0.57294  -0.55221
  Beta  occ. eigenvalues --   -0.53995  -0.52090  -0.50149  -0.49587  -0.47991
  Beta  occ. eigenvalues --   -0.47430  -0.47012  -0.46932  -0.46403  -0.46376
  Beta  occ. eigenvalues --   -0.45445  -0.44661  -0.43757  -0.42394  -0.41606
  Beta  occ. eigenvalues --   -0.40664  -0.40135  -0.39598  -0.38955  -0.38167
  Beta  occ. eigenvalues --   -0.37946  -0.37734  -0.37058  -0.35430  -0.35144
  Beta  occ. eigenvalues --   -0.34499  -0.34229  -0.33474  -0.33029  -0.32484
  Beta  occ. eigenvalues --   -0.30138  -0.29416  -0.28902  -0.28101  -0.27836
  Beta  occ. eigenvalues --   -0.26472  -0.24376  -0.23978  -0.23220  -0.21340
  Beta  occ. eigenvalues --   -0.20376  -0.13360
  Beta virt. eigenvalues --   -0.03735  -0.02180  -0.00158   0.00442   0.00826
  Beta virt. eigenvalues --    0.01185   0.01432   0.01945   0.02420   0.02578
  Beta virt. eigenvalues --    0.03155   0.03586   0.03606   0.04029   0.04153

 Mulliken charges and spin densities:
               1          2
     1  C    0.144107   0.000000
     2  C    0.296172  -0.000000
     3  C   -0.003514  -0.000000
     4  C    0.300573   0.000000
     5  C    0.522150  -0.000000
     6  C    0.353492  -0.000000
     7  C   -0.526368  -0.000000
     8  C   -0.054391   0.000000
     9  C   -0.497027   0.000000
    10  C   -0.739326  -0.000000
    11  O   -0.497840   0.000000
    12  O   -0.616389   0.000000
    13  H    0.189474  -0.000000
    14  H    0.175487   0.000000
    15  C   -0.647124   0.000000
    16  O   -0.259622  -0.000000
    17  O    0.038112  -0.000000
    18  C   -0.218251   0.000000
    19  H    0.206971  -0.000000
    20  H    0.163374   0.000000
    21  H    0.166886  -0.000000
    22  H    0.177461  -0.000000
    23  C    0.300187   0.000000
    24  O   -0.404783  -0.000000
    25  O   -0.179173   0.000000
    26  C   -0.420045   0.000000
    27  O   -0.338130  -0.000000
    28  O   -0.066780   0.000000
    29  C   -0.346372   0.000000
    30  C   -0.229447  -0.000000
    31  H    0.163129  -0.000000
    32  H    0.195685  -0.000000
    33  H    0.160192   0.000000
    34  H    0.147223  -0.000000
    35  H    0.171747  -0.000000
    36  H    0.172161  -0.000000
 Sum of Mulliken charges =  -2.00000   0.00000

 Dipole moment (field-independent basis, Debye):
    X=             -8.8786    Y=            -16.5430    Z=              3.6962  Tot=             19.1354
 Quadrupole moment (field-independent basis, Debye-Ang):
   XX=           -169.4969   YY=           -236.9967   ZZ=           -168.9195
   XY=            -23.9564   XZ=              8.2724   YZ=             50.3121

  Exact polarizability: 487.485  -3.579 378.567  -5.631 -46.716 235.084
 Approx polarizability: 529.035  -9.605 416.744  -5.771 -57.720 271.671

                      1                      2                      3
                      A                      A                      A
 Frequencies --     28.1570                34.4364                43.3939
 Red. masses --      5.4958                 5.7793                 5.0382
 Frc consts  --      0.0026                 0.0040                 0.0056
 IR Inten    --      7.9497                 7.3886                12.7072

                      4                      5                      6
                      A                      A                      A
 Frequencies --     51.2420                76.9293                94.5956
 Red. masses --      5.5356                 4.0064                 5.5668
 Frc consts  --      0.0086                 0.0140                 0.0293
 IR Inten    --      3.2757                 5.9989                 0.5283

                      7                      8                      9
                      A                      A                      A
 Frequencies --     96.6297               113.3899               120.7515
 Red. masses --      3.8472                 2.4072                 2.6212
 Frc consts  --      0.0212                 0.0182                 0.0225
 IR Inten    --      8.3987                 0.5975                 1.1973

                     10                     11                     12
                      A                      A                      A
 Frequencies --    133.8282               154.8195               157.2927
 Red. masses --      1.4939                 1.9192                 2.0820
 Frc consts  --      0.0158                 0.0271                 0.0303
 IR Inten    --      1.7550                 1.7523                 8.8297

                     13                     14                     15
                      A                      A                      A
 Frequencies --    160.3010               168.5728               179.6165
 Red. masses --      1.9322                 3.1715                 5.0617
 Frc consts  --      0.0293                 0.0531                 0.0962
 IR Inten    --      1.5442                12.1835                 9.8085

                     16                     17                     18
                      A                      A                      A
 Frequencies --    195.4206               209.5110               218.5524
 Red. masses --      4.4254                 4.3992                 5.2557
 Frc consts  --      0.0996                 0.1138                 0.1479
 IR Inten    --      4.0780                 2.8472                 3.0566

                     19                     20                     21
                      A                      A                      A
 Frequencies --    253.3887               260.5140               288.8668
 Red. masses --      7.5508                 8.1262                 6.9804
 Frc consts  --      0.2856                 0.3249                 0.3432
 IR Inten    --      1.5293                 1.1303                 1.7543

                     22                     23                     24
                      A                      A                      A
 Frequencies --    306.7588               321.7402               337.0290
 Red. masses --      6.5143                 4.2800                 5.1952
 Frc consts  --      0.3612                 0.2610                 0.3477
 IR Inten    --     12.8194                27.7452                12.4702

                     25                     26                     27
                      A                      A                      A
 Frequencies --    357.6671               372.9871               392.8393
 Red. masses --     11.0701                 6.7815                 5.5211
 Frc consts  --      0.8344                 0.5559                 0.5020
 IR Inten    --    113.5830                 6.8908                 7.3527

                     28                     29                     30
                      A                      A                      A
 Frequencies --    404.4403               427.3180               461.6417
 Red. masses --      8.5774                10.3650                 3.9141
 Frc consts  --      0.8266                 1.1151                 0.4915
 IR Inten    --      2.7791                43.1121                 2.8894

                     31                     32                     33
                      A                      A                      A
 Frequencies --    491.0592               521.3381               560.5681
 Red. masses --     12.3980                 7.1261                 7.5825
 Frc consts  --      1.7614                 1.1411                 1.4039
 IR Inten    --      7.5847                 2.9491                35.9427

                     34                     35                     36
                      A                      A                      A
 Frequencies --    612.8322               620.1649               662.6228
 Red. masses --      5.1774                 5.7658                 7.8214
 Frc consts  --      1.1456                 1.3066                 2.0233
 IR Inten    --     15.1752                19.0776                40.1802

                     37                     38                     39
                      A                      A                      A
 Frequencies --    688.9331               695.6862               718.6552
 Red. masses --      5.5739                 7.7202                 9.6991
 Frc consts  --      1.5587                 2.2014                 2.9514
 IR Inten    --     17.2906                31.3663               188.6839

                     40                     41                     42
                      A                      A                      A
 Frequencies --    735.1328               741.4846               775.4433
 Red. masses --      5.0337                 6.8563                 5.9093
 Frc consts  --      1.6028                 2.2210                 2.0936
 IR Inten    --     14.9773               163.1789                13.7080

                     43                     44                     45
                      A                      A                      A
 Frequencies --    786.3509               790.1098               810.4753
 Red. masses --      5.6025                10.0105                 5.5393
 Frc consts  --      2.0411                 3.6820                 2.1438
 IR Inten    --     33.9475                20.1589                22.8130

                     46                     47                     48
                      A                      A                      A
 Frequencies --    832.7048               835.6663               842.9633
 Red. masses --      1.7757                 1.6204                 6.4994
 Frc consts  --      0.7255                 0.6667                 2.7211
 IR Inten    --      3.2482               117.6331               195.5212

                     49                     50                     51
                      A                      A                      A
 Frequencies --    887.8139               905.6273               942.7792
 Red. masses --      6.4053                 5.9286                 1.4090
 Frc consts  --      2.9746                 2.8649                 0.7379
 IR Inten    --     72.2902                65.0266                 0.3260

                     52                     53                     54
                      A                      A                      A
 Frequencies --    989.3431              1032.5718              1047.5290
 Red. masses --      7.6924                 7.5532                 6.5879
 Frc consts  --      4.4361                 4.7448                 4.2592
 IR Inten    --     30.9445                42.5259                39.9422

                     55                     56                     57
                      A                      A                      A
 Frequencies --   1100.3693              1105.1574              1123.1908
 Red. masses --      7.7798                 5.2732                 4.0207
 Frc consts  --      5.5500                 3.7946                 2.9886
 IR Inten    --    783.7212               492.5058              1134.3312

                     58                     59                     60
                      A                      A                      A
 Frequencies --   1157.4307              1157.8091              1165.8739
 Red. masses --      1.2830                 1.2887                 1.2792
 Frc consts  --      1.0127                 1.0178                 1.0245
 IR Inten    --     28.6452                 9.3892                 1.3824

                     61                     62                     63
                      A                      A                      A
 Frequencies --   1170.2807              1182.9402              1196.4921
 Red. masses --      1.8455                 1.9987                 1.7820
 Frc consts  --      1.4891                 1.6478                 1.5031
 IR Inten    --    832.9014               236.7197                18.6021

                     64                     65                     66
                      A                      A                      A
 Frequencies --   1203.7445              1206.6627              1233.1150
 Red. masses --      1.5871                 1.7658                 2.7562
 Frc consts  --      1.3549                 1.5148                 2.4693
 IR Inten    --    135.6637               239.7009                99.8613

                     67                     68                     69
                      A                      A                      A
 Frequencies --   1255.6508              1273.1989              1292.2514
 Red. masses --      4.3307                 2.6384                 7.2455
 Frc consts  --      4.0230                 2.5199                 7.1287
 IR Inten    --     66.0810               661.7688               150.1842

                     70                     71                     72
                      A                      A                      A
 Frequencies --   1350.3473              1354.7924              1361.0750
 Red. masses --      7.1982                 4.9377                 4.1426
 Frc consts  --      7.7333                 5.3397                 4.5215
 IR Inten    --    261.3635                40.7352               250.9155

                     73                     74                     75
                      A                      A                      A
 Frequencies --   1405.6533              1427.9412              1456.1926
 Red. masses --      7.1583                 3.9994                 1.1883
 Frc consts  --      8.3333                 4.8046                 1.4846
 IR Inten    --    920.3090               331.1095                14.7882

                     76                     77                     78
                      A                      A                      A
 Frequencies --   1460.0846              1461.9209              1471.4569
 Red. masses --      1.2206                 1.1867                 1.0476
 Frc consts  --      1.5332                 1.4943                 1.3364
 IR Inten    --     22.0898                86.6064                 9.9881

                     79                     80                     81
                      A                      A                      A
 Frequencies --   1473.7690              1480.3197              1484.8859
 Red. masses --      1.0469                 1.0755                 1.0432
 Frc consts  --      1.3397                 1.3885                 1.3552
 IR Inten    --     13.6416                36.1383                13.8538

                     82                     83                     84
                      A                      A                      A
 Frequencies --   1490.8775              1497.1787              1504.3656
 Red. masses --      1.0651                 1.0713                 4.4108
 Frc consts  --      1.3948                 1.4148                 5.8813
 IR Inten    --     21.8199                25.8776               170.2472

                     85                     86                     87
                      A                      A                      A
 Frequencies --   1541.8403              1585.6869              1611.5405
 Red. masses --      5.3409                 5.9990                 7.3962
 Frc consts  --      7.4807                 8.8872                11.3173
 IR Inten    --    370.0209                57.1139               290.7053

                     88                     89                     90
                      A                      A                      A
 Frequencies --   1667.7761              1699.5499              1708.1648
 Red. masses --     11.4136                12.4133                11.7957
 Frc consts  --     18.7046                21.1254                20.2785
 IR Inten    --   1228.3548              1280.4583               249.9133

                     91                     92                     93
                      A                      A                      A
 Frequencies --   3035.5867              3046.8802              3047.6485
 Red. masses --      1.0301                 1.0297                 1.0301
 Frc consts  --      5.5924                 5.6321                 5.6372
 IR Inten    --     97.0771                57.6465                51.8708

                     94                     95                     96
                      A                      A                      A
 Frequencies --   3100.4518              3119.9804              3128.6722
 Red. masses --      1.1061                 1.1072                 1.1049
 Frc consts  --      6.2646                 6.3498                 6.3723
 IR Inten    --     49.3058                32.3939                26.1824

                     97                     98                     99
                      A                      A                      A
 Frequencies --   3133.9354              3148.3095              3152.4175
 Red. masses --      1.1044                 1.1071                 1.1055
 Frc consts  --      6.3910                 6.4651                 6.4728
 IR Inten    --     35.8561                23.9747                23.0860

                    100                    101                    102
                      A                      A                      A
 Frequencies --   3160.3182              3176.3948              3184.4790
 Red. masses --      1.0874                 1.0943                 1.0874
 Frc consts  --      6.3987                 6.5051                 6.4971
 IR Inten    --     14.7966                31.9608                38.9224

 - Thermochemistry -
 -------------------
 Temperature   298.150 Kelvin.  Pressure   1.00000 Atm.
 Atom     1 has atomic number  6 and mass  12.00000

 Molecular mass:   332.05322 amu.
 Principal axes and moments of inertia in atomic units:
                           1         2         3
     Eigenvalues --  6363.412089207.59137**********
           X            0.79489  -0.60584   0.03333
           Y            0.59294   0.78726   0.16925
           Z           -0.12878  -0.11477   0.98501
 This molecule is an asymmetric top.
 Rotational symmetry number  1.
 Warning -- assumption of classical behavior for rotation
           may cause significant error
 Rotational temperatures (Kelvin)      0.01361     0.00941     0.00604
 Rotational constants (GHZ):           0.28361     0.19601     0.12585
 Zero-point vibrational energy     668145.2 (Joules/Mol)
                                  159.69052 (Kcal/Mol)
 Warning -- explicit consideration of  35 degrees of freedom as
           vibrations may cause significant error
 Vibrational temperatures:     40.51    49.55    62.43    73.73   110.68
          (Kelvin)            136.10   139.03   163.14   173.73   192.55
                              222.75   226.31   230.64   242.54   258.43
                              281.17   301.44   314.45   364.57   374.82
                              415.61   441.36   462.91   484.91   514.60
                              536.65   565.21   581.90   614.82   664.20
                              706.52   750.09   806.53   881.73   892.28
                              953.37   991.22  1000.94  1033.98  1057.69
                             1066.83  1115.69  1131.38  1136.79  1166.09
                             1198.08  1202.34  1212.84  1277.37  1303.00
                             1356.45  1423.44  1485.64  1507.16  1583.19
                             1590.08  1616.02  1665.28  1665.83  1677.43
                             1683.77  1701.99  1721.49  1731.92  1736.12
                             1774.18  1806.60  1831.85  1859.26  1942.85
                             1949.24  1958.28  2022.42  2054.49  2095.14
                             2100.74  2103.38  2117.10  2120.42  2129.85
                             2136.42  2145.04  2154.11  2164.45  2218.36
                             2281.45  2318.65  2399.56  2445.27  2457.67
                             4367.53  4383.78  4384.89  4460.86  4488.96
                             4501.46  4509.03  4529.72  4535.63  4546.99
                             4570.12  4581.75

 Zero-point correction=                           0.254483 (Hartree/Particle)
 Thermal correction to Energy=                    0.277004
 Thermal correction to Enthalpy=                  0.277949
 Thermal correction to Gibbs Free Energy=         0.201605
 Sum of electronic and zero-point Energies=          -1219.101780
 Sum of electronic and thermal Energies=             -1219.079259
 Sum of electronic and thermal Enthalpies=           -1219.078315
 Sum of electronic and thermal Free Energies=        -1219.154659

                     E (Thermal)             CV                S
                      KCal/Mol        Cal/Mol-Kelvin    Cal/Mol-Kelvin
 Total                  173.823             81.666            160.679
 Electronic               0.000              0.000              0.000
 Translational            0.889              2.981             43.295
 Rotational               0.889              2.981             35.084
 Vibrational            172.045             75.704             82.299
 Vibration     1          0.593              1.984              5.955
 Vibration     2          0.594              1.983              5.556
 Vibration     3          0.595              1.980              5.098
 Vibration     4          0.596              1.977              4.769
 Vibration     5          0.599              1.965              3.968
 Vibration     6          0.603              1.953              3.563
 Vibration     7          0.603              1.952              3.521
 Vibration     8          0.607              1.938              3.210
 Vibration     9          0.609              1.932              3.088
 Vibration    10          0.613              1.920              2.890
 Vibration    11          0.620              1.897              2.612
 Vibration    12          0.621              1.894              2.582
 Vibration    13          0.622              1.891              2.546
 Vibration    14          0.625              1.881              2.451
 Vibration    15          0.629              1.867              2.332
 Vibration    16          0.636              1.846              2.176
 Vibration    17          0.642              1.826              2.048
 Vibration    18          0.646              1.813              1.971
 Vibration    19          0.665              1.757              1.707
 Vibration    20          0.669              1.745              1.658
 Vibration    21          0.685              1.694              1.481
 Vibration    22          0.697              1.661              1.380
 Vibration    23          0.707              1.632              1.301
 Vibration    24          0.718              1.602              1.226
 Vibration    25          0.733              1.559              1.132
 Vibration    26          0.744              1.528              1.067
 Vibration    27          0.760              1.485              0.989
 Vibration    28          0.770              1.461              0.946
 Vibration    29          0.789              1.411              0.867
 Vibration    30          0.819              1.335              0.761
 Vibration    31          0.847              1.270              0.681
 Vibration    32          0.876              1.203              0.607
 Vibration    33          0.916              1.117              0.523
 Vibration    34          0.972              1.005              0.428
 Vibration    35          0.980              0.989              0.416

                           ! Non-Optimized Parameters !
 Normal termination of Gaussian 16 at Sun Feb 11 06:01:16 2024.
