 Q-Chem 5.4, Q-Chem, Inc., Pleasanton, CA (2021)
 Q-Chem 5.4.0 for Intel X86 EM64T Linux

User input:
--------------------------------------------------------------
$molecule
0 1
Cl                -3.0835280000      0.6939830000      0.1054540000
C                 -1.4109070000      0.2579660000      0.0482930000
C                 -1.0085060000     -1.0200780000      0.0355030000
C                  0.4232520000     -1.3920380000     -0.0134570000
O                  0.7712370000     -2.5532850000     -0.0245630000
C                  1.4108730000     -0.2579330000     -0.0482930000
C                  1.0084980000      1.0200600000     -0.0355040000
C                 -0.4231940000      1.3920810000      0.0134520000
O                 -0.7712580000      2.5533230000      0.0245680000
Cl                 3.0835510000     -0.6940710000     -0.1054550000
H                 -1.7056200000     -1.8482970000      0.0601360000
H                  1.7056020000      1.8482890000     -0.0601350000
$end
$rem
MAX_SCF_CYCLES=200
BASIS  =  6-311++G(d,p)
GUI  =  2
JOB_TYPE  =  SP
METHOD  =  B3LYP
SOLVENT_METHOD = COSMO
$end
$solvent
dielectric 37.219
opticaldielectric 1.43
$end

--------------------------------------------------------------

             Standard Nuclear Orientation (Angstroms)
    I     Atom           X                Y                Z
 ----------------------------------------------------------------
    1      Cl      3.1277908306     0.4667300702    -0.0000090666
    2      C       1.4096564046     0.2691109711    -0.0000091095
    3      C       0.5727890480     1.3156001681     0.0000434283
    4      C      -0.8974710683     1.1452549792     0.0000140180
    5      O      -1.6414007881     2.1024801713    -0.0000294940
    6      C      -1.4095994267    -0.2691450640     0.0000080195
    7      C      -0.5727747469    -1.3155960947    -0.0000446640
    8      C       0.8974457528    -1.1453316566    -0.0000169365
    9      O       1.6414476139    -2.1025235517     0.0000338516
   10      Cl     -3.1278306942    -0.4666719030     0.0000088417
   11      H       0.9242732058     2.3397975669     0.0000701213
   12      H      -0.9242459107    -2.3397991848    -0.0000696940
 ----------------------------------------------------------------

    9   -1300.8003193197      4.11e-06  Convergence criterion met
 Total energy in the final basis set =    -1300.8003193197
    5   -1300.8132418395      5.27e-06  Convergence criterion met
 Total energy in the final basis set =    -1300.8132418395

                    Orbital Energies (a.u.)
 --------------------------------------------------------------

 Alpha MOs
 -- Occupied --
********-101.5833 -19.1610 -19.1609 -10.3114 -10.3114 -10.2821 -10.2821
-10.2270 -10.2270  -9.4979  -9.4979  -7.2624  -7.2624  -7.2530  -7.2530
 -7.2520  -7.2520  -1.0965  -1.0946  -0.9239  -0.9097  -0.8439  -0.7827
 -0.7185  -0.6548  -0.6155  -0.5567  -0.5260  -0.5043  -0.4798  -0.4774
 -0.4697  -0.4589  -0.4439  -0.4354  -0.3950  -0.3799  -0.3444  -0.3444
 -0.3122  -0.3117  -0.3046  -0.2903

          Ground-State Mulliken Net Atomic Charges

     Atom                 Charge (a.u.)
  ----------------------------------------
      1 Cl                    0.335307
      2 C                     0.914254
      3 C                    -0.235273
      4 C                    -1.046242
      5 O                    -0.246491
      6 C                     0.914490
      7 C                    -0.235143
      8 C                    -1.047205
      9 O                    -0.246270
     10 Cl                    0.335065
     11 H                     0.278845
     12 H                     0.278662
  ----------------------------------------
  Sum of atomic charges =     0.000000

                    Cartesian Multipole Moments
 -----------------------------------------------------------------
    Charge (ESU x 10^10)
                 0.0000
    Dipole Moment (Debye)
         X       0.0004      Y      -0.0006      Z       0.0002
       Tot       0.0008
    Quadrupole Moments (Debye-Ang)
        XX     -78.8133     XY      13.3135     YY     -76.8143
        XZ      -0.0003     YZ       0.0006     ZZ     -68.9729

 Total job time:  10.85s(wall), 78.17s(cpu)
        *  Thank you very much for using Q-Chem.  Have a nice day.  *
