 Q-Chem 5.4, Q-Chem, Inc., Pleasanton, CA (2021)
 Q-Chem 5.4.0 for Intel X86 EM64T Linux

User input:
--------------------------------------------------------------
$molecule
0 1
C                 -3.5547330000      5.6547810000      3.2995220000
C                 -2.5333270000      6.2269590000      4.0508360000
C                 -2.0512220000      5.5773810000      5.1900960000
C                 -4.0999390000      4.4275350000      3.6848010000
C                 -3.6155330000      3.7756930000      4.8268730000
C                 -2.5899420000      4.3549470000      5.5780200000
C                 -5.1967430000      3.8188760000      2.8802260000
C                 -5.7670420000      2.5074370000      3.3224840000
C                 -5.2791660000      1.8666850000      4.4131560000
C                 -4.1895380000      2.4649780000      5.2413630000
O                 -5.6215350000      4.3763020000      1.8794980000
O                 -3.7813520000      1.8881720000      6.2389790000
H                 -2.1110130000      7.1793960000      3.7511640000
H                 -1.2552630000      6.0263590000      5.7733370000
C                 -6.8842110000      1.9526240000      2.4816030000
H                 -3.9434880000      6.1412650000      2.4135450000
H                 -2.2313330000      3.8339570000      6.4571010000
H                 -6.5363910000      1.0997290000      1.8880290000
H                 -7.2476430000      2.7104810000      1.7899310000
H                 -7.7086330000      1.6054280000      3.1072470000
C                 -5.8132310000      0.5330200000      4.8920540000
C                 -6.9665350000      0.7015200000      5.8572060000
C                 -8.1583210000      0.0886880000      5.8407660000
C                 -9.1690340000      0.3777370000      6.9323060000
C                 -9.4245930000     -0.8130530000      7.8903040000
C                -10.4715120000     -0.4966640000      8.9224790000
C                -10.3365990000     -0.3945290000     10.2524280000
C                 -8.5923820000     -0.9171260000      4.8027830000
C                -11.5351130000     -0.0473270000     11.1126770000
C                -11.4718320000      1.3636710000     11.7502890000
C                -12.6521050000      1.6389270000     12.6404540000
C                -13.6188430000      2.5566520000     12.4966790000
C                 -9.0442170000     -0.6156470000     10.9998660000
C                -13.6887370000      3.5539340000     11.3658300000
C                -14.7346690000      2.6512780000     13.5179410000
C                -16.1211910000      2.2058610000     12.9881650000
C                -17.2036980000      2.3725960000     14.0184910000
C                -17.9487720000      1.4319170000     14.6163180000
C                -17.8513950000     -0.0464420000     14.3279570000
C                -18.9828190000      1.8262050000     15.6519450000
C                -18.6204820000      1.4107590000     17.1003940000
C                -19.7011410000      1.7686600000     18.0828900000
C                -19.6582780000      2.6416310000     19.0995300000
C                -18.4418070000      3.4496230000     19.4811040000
C                -20.8829850000      2.8616520000     19.9649040000
C                -21.5512090000      4.2476290000     19.7797920000
C                -22.7190430000      4.4448000000     20.7063310000
C                -24.0164960000      4.5970650000     20.4049210000
C                -24.5696340000      4.6261760000     19.0008480000
C                -25.0386840000      4.7686830000     21.5107090000
C                -25.9916260000      3.5599300000     21.6889140000
C                -27.0253210000      3.8017840000     22.7538050000
C                -27.1966100000      3.1582230000     23.9163220000
C                -26.3515020000      2.0051870000     24.3968350000
C                -28.3000500000      3.5575120000     24.8661670000
H                 -4.9998510000      0.0162740000      5.4101580000
H                 -6.0985190000     -0.0778980000      4.0356020000
H                 -6.7676260000      1.3967250000      6.6698980000
H                -10.1242730000      0.6659260000      6.4729180000
H                 -8.8354020000      1.2345720000      7.5241240000
H                 -8.4772170000     -1.1012460000      8.3512280000
H                 -9.7610790000     -1.6774710000      7.3050570000
H                -11.4659850000     -0.3191020000      8.5121520000
H                 -7.9034160000     -0.9905110000      3.9613550000
H                 -9.5816040000     -0.6587560000      4.4083890000
H                 -8.6815140000     -1.9184220000      5.2376900000
H                -11.6305020000     -0.7884280000     11.9178170000
H                -12.4485350000     -0.1169280000     10.5150240000
H                -11.3859500000      2.1048300000     10.9526080000
H                -10.5564870000      1.4449670000     12.3489840000
H                -12.7180170000      0.9854200000     13.5108230000
H                 -8.2159180000     -0.8938470000     10.3491360000
H                 -9.1673330000     -1.4094770000     11.7460490000
H                 -8.7447580000      0.2837060000     11.5482300000
H                -12.8477890000      3.4781260000     10.6773070000
H                -13.7087420000      4.5765610000     11.7607980000
H                -14.6063730000      3.4276520000     10.7815050000
H                -14.8151130000      3.6878800000     13.8724820000
H                -14.4854350000      2.0416570000     14.3912140000
H                -16.0484350000      1.1723160000     12.6424800000
H                -16.3793670000      2.8093890000     12.1095010000
H                -17.3840660000      3.4063750000     14.3147470000
H                -17.1172880000     -0.2840370000     13.5587480000
H                -18.8222620000     -0.4344450000     13.9976190000
H                -17.5808620000     -0.6091750000     15.2276980000
H                -19.9490670000      1.3731520000     15.3917460000
H                -19.1304040000      2.9097490000     15.6292930000
H                -17.6650870000      1.8681780000     17.3667610000
H                -18.4643790000      0.3256300000     17.1330400000
H                -20.6436030000      1.2441450000     17.9228020000
H                -17.5756860000      3.2391390000     18.8545720000
H                -18.1614400000      3.2473540000     20.5216400000
H                -18.6430120000      4.5241720000     19.4159830000
H                -20.6056780000      2.7481700000     21.0217300000
H                -21.6263520000      2.0877780000     19.7529630000
H                -21.8426430000      4.3586220000     18.7330200000
H                -20.8106780000      5.0314840000     19.9801800000
H                -22.4546370000      4.4514620000     21.7641710000
H                -23.7990910000      4.5318900000     18.2363790000
H                -25.1070310000      5.5651940000     18.8228260000
H                -25.2924270000      3.8187730000     18.8424710000
H                -25.6451670000      5.6620770000     21.3088750000
H                -24.5259920000      4.9483830000     22.4600170000
H                -25.3945080000      2.6703450000     21.9017120000
H                -26.5065230000      3.3666370000     20.7399190000
H                -27.7095620000      4.6224930000     22.5375100000
H                -25.5467490000      1.7435790000     23.7105200000
H                -26.9698920000      1.1122650000     24.5475670000
H                -25.9026280000      2.2392400000     25.3693250000
H                -28.8861670000      4.3936240000     24.4794310000
H                -27.8924650000      3.8480540000     25.8419030000
H                -28.9822770000      2.7188290000     25.0503320000
$end
$rem
MAX_SCF_CYCLES=200
SCF_Guess=core
BASIS  =  6-311++G(d,p)
GUI  =  2
JOB_TYPE  =  SP
METHOD  =  B3LYP
THRESH = 14
SCF_CONVERGENCE = 8
SOLVENT_METHOD = COSMO
$end
$solvent
dielectric 37.219
opticaldielectric 1.43
$end

--------------------------------------------------------------

             Standard Nuclear Orientation (Angstroms)
    I     Atom           X                Y                Z
 ----------------------------------------------------------------
    1      C     -13.5271747835     3.5927357758     0.5465733840
    2      C     -13.7841840746     4.3602729110    -0.5847813691
    3      C     -13.4151356816     3.8931134577    -1.8488444552
    4      C     -12.8985897385     2.3516153137     0.4188115962
    5      C     -12.5294848860     1.8827895380    -0.8491945627
    6      C     -12.7895488273     2.6578180476    -1.9820191153
    7      C     -12.6209954811     1.5333216640     1.6329461252
    8      C     -11.9384292649     0.2116460832     1.4656668432
    9      C     -11.6054634718    -0.2509318787     0.2355014322
   10      C     -11.8623961865     0.5585922015    -0.9932486933
   11      O     -12.9445598842     1.9305167202     2.7420767230
   12      O     -11.5289476023     0.1398799187    -2.0923623005
   13      H     -14.2718454109     5.3233100737    -0.4846089902
   14      H     -13.6168046817     4.4940668139    -2.7283253910
   15      C     -11.6678858167    -0.5596672536     2.7285393129
   16      H     -13.8043075196     3.9358681971     1.5356183602
   17      H     -12.4952741891     2.2761665747    -2.9518433210
   18      H     -12.3447460332    -1.4173644555     2.8119328617
   19      H     -11.8283427949     0.0739119728     3.5989823775
   20      H     -10.6458445067    -0.9429818768     2.7407283046
   21      C     -10.9266552710    -1.5863578324     0.0139433146
   22      C      -9.4189525963    -1.4678342683     0.0669108420
   23      C      -8.5510596249    -2.2234141605     0.7539683508
   24      C      -7.0639122464    -1.9554456208     0.6393594470
   25      C      -6.2749713332    -3.0671715370    -0.0973149162
   26      C      -4.7989050425    -2.7826704789    -0.1399068873
   27      C      -4.0216660836    -2.5321670698    -1.2031778129
   28      C      -8.9369407905    -3.3741957793     1.6507831892
   29      C      -2.5439266168    -2.2533727503    -1.0145692907
   30      C      -2.1312510653    -0.7889681822    -1.3089959433
   31      C      -0.6495894914    -0.5759246506    -1.1658338624
   32      C       0.0090285069     0.1947509596    -0.2884774794
   33      C      -4.5077226701    -2.5142125550    -2.6318956289
   34      C      -0.6545233908     1.0575106599     0.7572856861
   35      C       1.5233800099     0.2506415729    -0.3132480186
   36      C       2.2044813546    -0.4152922221     0.9091002580
   37      C       3.7018089405    -0.2831508671     0.8673582611
   38      C       4.6288691310    -1.2451588572     0.7555128381
   39      C       4.3234272305    -2.7210918797     0.6748491055
   40      C       6.0997586003    -0.8818084901     0.7142795001
   41      C       6.7691812981    -1.1019491916    -0.6660462982
   42      C       8.2390959730    -0.7856506095    -0.6432111199
   43      C       8.9013137768     0.1829589024    -1.2918525363
   44      C       8.2608856538     1.1707349043    -2.2365227819
   45      C      10.3984849624     0.3334480224    -1.1101381949
   46      C      10.8187955698     1.5995355246    -0.3214155305
   47      C      12.3128194023     1.7406879141    -0.2257287282
   48      C      13.0944286515     1.6986767222     0.8627284124
   49      C      12.5866559180     1.5180372813     2.2726100848
   50      C      14.5962259611     1.8507156232     0.7264303573
   51      C      15.3956132352     0.5561931440     1.0199109003
   52      C      16.8811442723     0.7720401511     0.9326231026
   53      C      17.7570543579     0.2314524331     0.0750084464
   54      C      17.4049120763    -0.7530801291    -1.0118603312
   55      C      19.2237852960     0.5824968038     0.1434574636
   56      H     -11.2119665586    -1.9430118413    -0.9802601831
   57      H     -11.2935745985    -2.3106026718     0.7412394672
   58      H      -9.0134762524    -0.6755581319    -0.5585733923
   59      H      -6.6397970198    -1.8362757231     1.6455883432
   60      H      -6.9005707827    -1.0088362882     0.1168889585
   61      H      -6.6921619702    -3.1871750571    -1.0996015778
   62      H      -6.4320565726    -4.0209667602     0.4209072925
   63      H      -4.3161449414    -2.7727078056     0.8377006456
   64      H     -10.0112497975    -3.4445277440     1.8210011635
   65      H      -8.4453242112    -3.2822186621     2.6258294436
   66      H      -8.6121900142    -4.3303010266     1.2264225159
   67      H      -1.9632219239    -2.9164441716    -1.6700832288
   68      H      -2.2525503546    -2.4959625001     0.0114049998
   69      H      -2.6998927419    -0.1262832149    -0.6528841871
   70      H      -2.4230525075    -0.5344896422    -2.3351508062
   71      H      -0.0455913067    -1.1423312154    -1.8752898394
   72      H      -5.5671036111    -2.7502560894    -2.7263386167
   73      H      -3.9464992347    -3.2386879220    -3.2337896279
   74      H      -4.3460792150    -1.5342451292    -3.0931437460
   75      H      -1.7425091844     1.0190584513     0.7147104158
   76      H      -0.3501143671     2.1039037333     0.6366101529
   77      H      -0.3528242940     0.7597744209     1.7671220414
   78      H       1.8470200678     1.2992359214    -0.3624544159
   79      H       1.8935463448    -0.2327534586    -1.2219103381
   80      H       1.8925421500    -1.4609457344     0.9571573759
   81      H       1.8373152855     0.0604319703     1.8266115055
   82      H       4.0621336558     0.7443431948     0.9258501932
   83      H       3.2580257421    -2.9406619871     0.7361320036
   84      H       4.8249158500    -3.2584672449     1.4884762531
   85      H       4.6963476022    -3.1528969151    -0.2599584727
   86      H       6.6420978923    -1.4758136652     1.4623581605
   87      H       6.2268525732     0.1670598794     0.9972712152
   88      H       6.2391904705    -0.5043751904    -1.4110148627
   89      H       6.6422171888    -2.1503191153    -0.9622547933
   90      H       8.8274247466    -1.4372254372     0.0035487060
   91      H       7.1909343851     1.0086800777    -2.3628317834
   92      H       8.7294442358     1.1100393684    -3.2259683223
   93      H       8.4000802574     2.1997791382    -1.8885679328
   94      H      10.8826136996     0.3616396920    -2.0957766308
   95      H      10.7958031400    -0.5445593503    -0.5928029349
   96      H      10.3518401401     1.5681247589     0.6654739430
   97      H      10.4162882394     2.4858869656    -0.8267264699
   98      H      12.8107575241     1.8859638236    -1.1848600631
   99      H      11.5010774841     1.4449583679     2.3293388495
  100      H      12.9004526834     2.3599895944     2.9010128736
  101      H      13.0028138239     0.6148544282     2.7313975417
  102      H      14.9449913180     2.6366163474     1.4101219615
  103      H      14.8409299777     2.1870030754    -0.2851829826
  104      H      15.0612195447    -0.2260235820     0.3347012826
  105      H      15.1523844035     0.2062434196     2.0305777793
  106      H      17.2767827691     1.4750266092     1.6659802840
  107      H      16.3402807611    -0.9792430242    -1.0619095430
  108      H      17.9436558755    -1.6967575560    -0.8646731758
  109      H      17.7144309086    -0.3688037483    -1.9909084559
  110      H      19.4338364293     1.2959344040     0.9428737882
  111      H      19.5681096221     1.0176963364    -0.8023982617
  112      H      19.8341052398    -0.3122828723     0.3155577213
 ----------------------------------------------------------------

   57   -1942.3327395221      6.90e-09  Convergence criterion met
 Total energy in the final basis set =    -1942.3327395221
   10   -1942.3559430639      4.00e-09  Convergence criterion met
 Total energy in the final basis set =    -1942.3559430639

                    Orbital Energies (a.u.)
 --------------------------------------------------------------

 Alpha MOs
 -- Occupied --
-19.1347 -19.1341 -10.2826 -10.2820 -10.2134 -10.2107 -10.2055 -10.2050
-10.1955 -10.1954 -10.1950 -10.1946 -10.1802 -10.1791 -10.1748 -10.1730
-10.1725 -10.1725 -10.1725 -10.1725 -10.1699 -10.1677 -10.1670 -10.1661
-10.1649 -10.1649 -10.1648 -10.1648 -10.1648 -10.1645 -10.1644 -10.1643
-10.1643 -10.1643 -10.1617 -10.1586 -10.1584 -10.1582 -10.1581 -10.1581
-10.1581 -10.1581 -10.1580 -10.1580 -10.1579 -10.1579 -10.1579 -10.1577
 -1.0688  -1.0669  -0.8889  -0.8540  -0.8300  -0.8281  -0.8248  -0.8201
 -0.8144  -0.8080  -0.8026  -0.7877  -0.7762  -0.7744  -0.7671  -0.7580
 -0.7481  -0.7379  -0.7281  -0.7205  -0.7087  -0.6893  -0.6870  -0.6860
 -0.6848  -0.6826  -0.6800  -0.6762  -0.6690  -0.6605  -0.6410  -0.6315
 -0.6240  -0.6142  -0.6055  -0.5962  -0.5879  -0.5832  -0.5815  -0.5509
 -0.5234  -0.5205  -0.5194  -0.5188  -0.5173  -0.5144  -0.5115  -0.5097
 -0.5002  -0.4808  -0.4774  -0.4766  -0.4756  -0.4750  -0.4703  -0.4642
 -0.4627  -0.4612  -0.4594  -0.4550  -0.4492  -0.4452  -0.4435  -0.4407
 -0.4363  -0.4345  -0.4313  -0.4287  -0.4282  -0.4252  -0.4207  -0.4174
 -0.4149  -0.4141  -0.4134  -0.4106  -0.4091  -0.4080  -0.4069  -0.4028
 -0.4011  -0.4007  -0.3980  -0.3933  -0.3916  -0.3893  -0.3840  -0.3816
 -0.3772  -0.3737  -0.3713  -0.3710  -0.3704  -0.3701  -0.3688  -0.3679
 -0.3674  -0.3662  -0.3653  -0.3637  -0.3630  -0.3597  -0.3592  -0.3557
 -0.3548  -0.3526  -0.3469  -0.3390  -0.3352  -0.3332  -0.3326  -0.3298
 -0.3264  -0.3256  -0.3248  -0.3186  -0.3118  -0.3072  -0.2913  -0.2905
 -0.2772  -0.2767  -0.2709  -0.2511  -0.2489  -0.2450  -0.2396  -0.2333
 -0.2272  -0.2225

          Ground-State Mulliken Net Atomic Charges

     Atom                 Charge (a.u.)
  ----------------------------------------
      1 C                     0.182229
      2 C                    -0.488185
      3 C                    -0.424209
      4 C                    -0.112283
      5 C                     0.242517
      6 C                     0.088584
      7 C                    -0.821734
      8 C                     0.766420
      9 C                     1.091891
     10 C                    -0.921279
     11 O                    -0.296681
     12 O                    -0.275469
     13 H                     0.221976
     14 H                     0.225977
     15 C                    -0.507654
     16 H                     0.205148
     17 H                     0.202705
     18 H                     0.227800
     19 H                     0.191688
     20 H                     0.181733
     21 C                    -0.217830
     22 C                    -1.124175
     23 C                     1.283548
     24 C                    -0.723367
     25 C                    -0.349959
     26 C                    -0.401289
     27 C                     0.640763
     28 C                    -0.717558
     29 C                    -0.522340
     30 C                    -0.285641
     31 C                    -0.297815
     32 C                     0.476124
     33 C                    -0.710017
     34 C                    -0.738864
     35 C                    -0.433386
     36 C                    -0.307492
     37 C                    -0.315157
     38 C                     0.508359
     39 C                    -0.726281
     40 C                    -0.459339
     41 C                    -0.279619
     42 C                    -0.389290
     43 C                     0.520425
     44 C                    -0.726177
     45 C                    -0.413635
     46 C                    -0.222181
     47 C                    -0.189612
     48 C                     0.446765
     49 C                    -0.767419
     50 C                    -0.602892
     51 C                    -0.270446
     52 C                     0.015135
     53 C                     0.278760
     54 C                    -0.703775
     55 C                    -0.637082
     56 H                     0.242023
     57 H                     0.198870
     58 H                     0.230677
     59 H                     0.168334
     60 H                     0.180131
     61 H                     0.153429
     62 H                     0.144290
     63 H                     0.192618
     64 H                     0.117675
     65 H                     0.187723
     66 H                     0.184613
     67 H                     0.142774
     68 H                     0.187196
     69 H                     0.155380
     70 H                     0.134029
     71 H                     0.202333
     72 H                     0.132618
     73 H                     0.169473
     74 H                     0.173897
     75 H                     0.136451
     76 H                     0.170067
     77 H                     0.174309
     78 H                     0.145329
     79 H                     0.182079
     80 H                     0.149591
     81 H                     0.134264
     82 H                     0.200952
     83 H                     0.137434
     84 H                     0.169521
     85 H                     0.174164
     86 H                     0.146648
     87 H                     0.178940
     88 H                     0.144681
     89 H                     0.134601
     90 H                     0.196333
     91 H                     0.137926
     92 H                     0.169933
     93 H                     0.173639
     94 H                     0.140060
     95 H                     0.186089
     96 H                     0.152904
     97 H                     0.129639
     98 H                     0.216484
     99 H                     0.134885
    100 H                     0.171088
    101 H                     0.175902
    102 H                     0.144180
    103 H                     0.170270
    104 H                     0.143885
    105 H                     0.131731
    106 H                     0.203527
    107 H                     0.146726
    108 H                     0.152975
    109 H                     0.155457
    110 H                     0.158164
    111 H                     0.158315
    112 H                     0.154361
  ----------------------------------------
  Sum of atomic charges =     0.000000

                    Cartesian Multipole Moments
 -----------------------------------------------------------------
    Charge (ESU x 10^10)
                 0.0000
    Dipole Moment (Debye)
         X       0.0173      Y       0.0365      Z      -0.3089
       Tot       0.3115
    Quadrupole Moments (Debye-Ang)
        XX    -286.6157     XY     -13.5046     YY    -282.5470
        XZ       7.4744     YZ     -14.1114     ZZ    -305.4792

 Total job time:  7492.80s(wall), 56594.74s(cpu)
        *  Thank you very much for using Q-Chem.  Have a nice day.  *
