 Gaussian 16, Revision A.03,
 Gaussian 16:  ES64L-G16RevA.03 25-Dec-2016

 --------------------------------------
 #P UB3LYP/6-311++G(d,p) nosym opt freq
 --------------------------------------

 -------
 Reduced
 -------
 Symbolic Z-matrix:
 Charge = -2 Multiplicity = 1

 SCF Done:  E(UB3LYP) =  -1454.49846567     A.U. after   22 cycles
 Optimization completed.
    -- Stationary point found.
 Normal termination of Gaussian 16 at Sun Jan  7 20:14:47 2024.

 ----------------------------------------------------------------------
 #P Geom=AllCheck Guess=TCheck SCRF=Check GenChk UB3LYP/6-311++G(d,p) F
 req
 ----------------------------------------------------------------------

 Structure from the checkpoint file:  "232-an.chk"
 -------
 Reduced
 -------
 Charge = -2 Multiplicity = 1

                          Input orientation:
 ---------------------------------------------------------------------
 Center     Atomic      Atomic             Coordinates (Angstroms)
 Number     Number       Type             X           Y           Z
 ---------------------------------------------------------------------
      1          6           0        5.902428   -5.211092    1.120553
      2          6           0        6.790391   -5.083911    0.078861
      3          6           0        6.577069   -4.090533   -0.914851
      4          6           0        4.767589   -4.378303    1.242724
      5          6           0        4.549212   -3.361197    0.225358
      6          6           0        5.483797   -3.261514   -0.829605
      7          6           0        3.867564   -4.566382    2.370663
      8          6           0        2.776498   -3.657626    2.357307
      9          6           0        2.565115   -2.673053    1.372505
     10          6           0        3.413584   -2.451754    0.255553
     11          8           0        4.059951   -5.471217    3.277529
     12          8           0        3.217087   -1.545608   -0.649125
     13          1           0        6.041060   -5.960641    1.892742
     14          1           0        5.296759   -2.494730   -1.574164
     15         17           0        7.718369   -3.900584   -2.285586
     16         17           0        8.207860   -6.179929   -0.005410
     17          1           0        2.062917   -3.745871    3.177708
     18          1           0        1.692997   -2.022855    1.454289
 ---------------------------------------------------------------------

 SCF Done:  E(UB3LYP) =  -1454.49846567     A.U. after    2 cycles

 Alpha  occ. eigenvalues -- -101.33142-101.33142 -18.76112 -18.76112  -9.99107
 Alpha  occ. eigenvalues --   -9.99063  -9.92711  -9.92709  -9.92390  -9.92388
 Alpha  occ. eigenvalues --   -9.90252  -9.90216  -9.88066  -9.88017  -9.24581
 Alpha  occ. eigenvalues --   -9.24580  -7.00985  -7.00984  -7.00095  -7.00095
 Alpha  occ. eigenvalues --   -7.00073  -7.00073  -0.67674  -0.67156  -0.66149
 Alpha  occ. eigenvalues --   -0.62124  -0.57920  -0.51736  -0.49438  -0.45941
 Alpha  occ. eigenvalues --   -0.39846  -0.36381  -0.33918  -0.29478  -0.24510
 Alpha  occ. eigenvalues --   -0.24075  -0.21682  -0.18172  -0.17775  -0.16961
 Alpha  occ. eigenvalues --   -0.16593  -0.14578  -0.12094  -0.12053  -0.11459
 Alpha  occ. eigenvalues --   -0.10366  -0.10114  -0.09186  -0.07542  -0.06574
 Alpha  occ. eigenvalues --   -0.06424  -0.06345   0.00159   0.02117   0.03189
 Alpha  occ. eigenvalues --    0.05860   0.06098   0.13694
 Alpha virt. eigenvalues --    0.18225   0.19154   0.19893   0.20911   0.21019
 Alpha virt. eigenvalues --    0.21974   0.22473   0.23779   0.24130   0.25219
 Alpha virt. eigenvalues --    0.26221   0.26516   0.26591   0.27844   0.28713

  Beta  occ. eigenvalues -- -101.33142-101.33142 -18.76112 -18.76112  -9.99107
  Beta  occ. eigenvalues --   -9.99063  -9.92711  -9.92709  -9.92390  -9.92388
  Beta  occ. eigenvalues --   -9.90252  -9.90216  -9.88066  -9.88017  -9.24581
  Beta  occ. eigenvalues --   -9.24580  -7.00985  -7.00984  -7.00095  -7.00095
  Beta  occ. eigenvalues --   -7.00073  -7.00073  -0.67674  -0.67156  -0.66149
  Beta  occ. eigenvalues --   -0.62124  -0.57920  -0.51736  -0.49438  -0.45941
  Beta  occ. eigenvalues --   -0.39846  -0.36381  -0.33918  -0.29478  -0.24510
  Beta  occ. eigenvalues --   -0.24075  -0.21682  -0.18172  -0.17775  -0.16961
  Beta  occ. eigenvalues --   -0.16593  -0.14578  -0.12094  -0.12053  -0.11459
  Beta  occ. eigenvalues --   -0.10366  -0.10114  -0.09186  -0.07542  -0.06574
  Beta  occ. eigenvalues --   -0.06424  -0.06345   0.00159   0.02117   0.03189
  Beta  occ. eigenvalues --    0.05860   0.06098   0.13694
  Beta virt. eigenvalues --    0.18225   0.19154   0.19893   0.20911   0.21019
  Beta virt. eigenvalues --    0.21974   0.22473   0.23779   0.24130   0.25219
  Beta virt. eigenvalues --    0.26221   0.26516   0.26591   0.27844   0.28713

 Mulliken charges and spin densities:
               1          2
     1  C   -0.980150  -0.000000
     2  C    0.863816  -0.000000
     3  C    0.863858   0.000000
     4  C   -0.224289   0.000000
     5  C   -0.224219   0.000000
     6  C   -0.980259  -0.000000
     7  C   -0.958840  -0.000000
     8  C    0.192533   0.000000
     9  C    0.192610  -0.000000
    10  C   -0.958629   0.000000
    11  O   -0.573224  -0.000000
    12  O   -0.573240  -0.000000
    13  H    0.175804   0.000000
    14  H    0.175793  -0.000000
    15  Cl   0.441810   0.000000
    16  Cl   0.441778   0.000000
    17  H    0.062422   0.000000
    18  H    0.062427  -0.000000
 Sum of Mulliken charges =  -2.00000  -0.00000

 Dipole moment (field-independent basis, Debye):
    X=            -44.0813    Y=             36.9365    Z=             -7.4330  Tot=             57.9889
 Quadrupole moment (field-independent basis, Debye-Ang):
   XX=           -344.0833   YY=           -279.1723   ZZ=           -150.0293
   XY=            188.2312   XZ=            -19.7067   YZ=             49.3907

  Exact polarizability: 239.715 -61.532 170.160 -67.763 -27.262 197.918
 Approx polarizability: 391.517-106.674 279.710-114.156 -53.893 327.148

                      1                      2                      3
                      A                      A                      A
 Frequencies --     39.8544                95.7623               138.1703
 Red. masses --     22.3272                 5.7145                13.0434
 Frc consts  --      0.0209                 0.0309                 0.1467
 IR Inten    --      0.0000                 1.5645                10.4062

                      4                      5                      6
                      A                      A                      A
 Frequencies --    169.6693               188.6429               196.8337
 Red. masses --     13.9299                31.0256                 6.6296
 Frc consts  --      0.2363                 0.6505                 0.1513
 IR Inten    --      1.0304                 1.5066                 0.0000

                      7                      8                      9
                      A                      A                      A
 Frequencies --    281.6851               284.1564               286.5173
 Red. masses --      8.3016                18.0495                16.8333
 Frc consts  --      0.3881                 0.8587                 0.8142
 IR Inten    --      0.7164                 1.3146                 2.2825

                     10                     11                     12
                      A                      A                      A
 Frequencies --    354.1086               419.7758               424.8722
 Red. masses --      6.9152                 3.3270                11.1081
 Frc consts  --      0.5109                 0.3454                 1.1814
 IR Inten    --      0.0000                 6.3770                 6.0889

                     13                     14                     15
                      A                      A                      A
 Frequencies --    441.0116               472.8583               478.3988
 Red. masses --      8.5228                 5.8398                12.7040
 Frc consts  --      0.9766                 0.7693                 1.7131
 IR Inten    --      6.5801                 0.0000                 0.1986

                     16                     17                     18
                      A                      A                      A
 Frequencies --    541.7179               568.1353               614.4234
 Red. masses --      7.6006                 4.5356                 4.5272
 Frc consts  --      1.3141                 0.8626                 1.0070
 IR Inten    --      0.0487                 0.0000                 3.3752

                     19                     20                     21
                      A                      A                      A
 Frequencies --    624.4854               630.1631               720.7419
 Red. masses --      7.4601                 2.2963                 6.5692
 Frc consts  --      1.7141                 0.5373                 2.0106
 IR Inten    --    118.0050                 4.7125                 2.2303

                     22                     23                     24
                      A                      A                      A
 Frequencies --    767.5042               777.1371               808.9852
 Red. masses --      4.3164                 7.8100                 1.9889
 Frc consts  --      1.4981                 2.7790                 0.7669
 IR Inten    --      0.0000               159.3091                41.8446

                     25                     26                     27
                      A                      A                      A
 Frequencies --    842.1878               870.5560               898.7343
 Red. masses --      7.5413                 1.4041                 1.3597
 Frc consts  --      3.1515                 0.6270                 0.6471
 IR Inten    --     77.0454                 0.0000                 0.0000

                     28                     29                     30
                      A                      A                      A
 Frequencies --    925.8018              1036.7684              1075.5945
 Red. masses --      1.3908                 2.0316                 1.8814
 Frc consts  --      0.7023                 1.2866                 1.2824
 IR Inten    --     20.2263                 9.1822                20.1939

                     31                     32                     33
                      A                      A                      A
 Frequencies --   1078.1206              1159.9095              1186.4189
 Red. masses --      4.8305                 2.8712                 3.5006
 Frc consts  --      3.3081                 2.2760                 2.9032
 IR Inten    --     40.1893                 0.2846               239.4167

                     34                     35                     36
                      A                      A                      A
 Frequencies --   1196.4661              1248.0084              1325.3806
 Red. masses --      1.3654                 2.3761                 6.0465
 Frc consts  --      1.1516                 2.1805                 6.2580
 IR Inten    --     70.6452               176.0647               199.7504

                     37                     38                     39
                      A                      A                      A
 Frequencies --   1358.4557              1370.3172              1385.3979
 Red. masses --      3.6895                 4.8420                 6.6910
 Frc consts  --      4.0115                 5.3570                 7.5664
 IR Inten    --    167.8703                55.9670               703.0647

                     40                     41                     42
                      A                      A                      A
 Frequencies --   1425.2993              1471.5398              1502.7873
 Red. masses --      4.1751                 7.3610                 5.9572
 Frc consts  --      4.9972                 9.3914                 7.9267
 IR Inten    --     20.0317               111.9547               328.2702

                     43                     44                     45
                      A                      A                      A
 Frequencies --   1530.4560              1591.4566              3070.5151
 Red. masses --      5.8594                 8.1797                 1.0831
 Frc consts  --      8.0862                12.2060                 6.0163
 IR Inten    --    174.6857                35.4531                80.6686

                     46                     47                     48
                      A                      A                      A
 Frequencies --   3098.9781              3166.9547              3168.7630
 Red. masses --      1.0908                 1.0887                 1.0891
 Frc consts  --      6.1718                 6.4334                 6.4429
 IR Inten    --    177.3161                 0.5351                23.0044

 - Thermochemistry -
 -------------------
 Temperature   298.150 Kelvin.  Pressure   1.00000 Atm.
 Atom     1 has atomic number  6 and mass  12.00000

 Molecular mass:   225.95883 amu.
 Principal axes and moments of inertia in atomic units:
                           1         2         3
     Eigenvalues --  2113.815804595.549416709.36518
           X            0.83073   0.15009   0.53606
           Y           -0.29429  -0.69899   0.65177
           Z           -0.47252   0.69920   0.53651
 This molecule is an asymmetric top.
 Rotational symmetry number  1.
 Warning -- assumption of classical behavior for rotation
           may cause significant error
 Rotational temperatures (Kelvin)      0.04098     0.01885     0.01291
 Rotational constants (GHZ):           0.85378     0.39272     0.26899
 Zero-point vibrational energy     282979.5 (Joules/Mol)
                                   67.63372 (Kcal/Mol)
 Warning -- explicit consideration of  18 degrees of freedom as
           vibrations may cause significant error
 Vibrational temperatures:     57.34   137.78   198.80   244.12   271.42
          (Kelvin)            283.20   405.28   408.84   412.23   509.48
                              603.96   611.30   634.52   680.34   688.31
                              779.41   817.42   884.02   898.50   906.66
                             1036.99  1104.27  1118.13  1163.95  1211.72
                             1252.54  1293.08  1332.02  1491.68  1547.54
                             1551.18  1668.85  1706.99  1721.45  1795.61
                             1906.93  1954.51  1971.58  1993.28  2050.69
                             2117.22  2162.18  2201.98  2289.75  4417.79
                             4458.74  4556.54  4559.14

 Zero-point correction=                           0.107781 (Hartree/Particle)
 Thermal correction to Energy=                    0.119259
 Thermal correction to Enthalpy=                  0.120203
 Thermal correction to Gibbs Free Energy=         0.069241
 Sum of electronic and zero-point Energies=          -1454.390684
 Sum of electronic and thermal Energies=             -1454.379207
 Sum of electronic and thermal Enthalpies=           -1454.378263
 Sum of electronic and thermal Free Energies=        -1454.429224

                     E (Thermal)             CV                S
                      KCal/Mol        Cal/Mol-Kelvin    Cal/Mol-Kelvin
 Total                   74.836             43.651            107.258
 Electronic               0.000              0.000              0.000
 Translational            0.889              2.981             42.148
 Rotational               0.889              2.981             32.544
 Vibrational             73.059             37.689             32.566
 Vibration     1          0.594              1.981              5.266
 Vibration     2          0.603              1.952              3.539
 Vibration     3          0.614              1.915              2.829
 Vibration     4          0.625              1.880              2.439
 Vibration     5          0.633              1.855              2.241
 Vibration     6          0.636              1.844              2.162
 Vibration     7          0.681              1.708              1.523
 Vibration     8          0.683              1.703              1.509
 Vibration     9          0.684              1.699              1.494
 Vibration    10          0.730              1.567              1.148
 Vibration    11          0.782              1.427              0.893
 Vibration    12          0.787              1.416              0.876
 Vibration    13          0.801              1.381              0.823
 Vibration    14          0.830              1.310              0.730
 Vibration    15          0.835              1.298              0.714
 Vibration    16          0.897              1.158              0.562
 Vibration    17          0.924              1.100              0.508
 Vibration    18          0.974              1.001              0.426

 Optimization completed.
    -- Stationary point found.
 Normal termination of Gaussian 16 at Sun Jan  7 20:33:32 2024.
