 Q-Chem 5.4, Q-Chem, Inc., Pleasanton, CA (2021)
 Q-Chem 5.4.0 for Intel X86 EM64T Linux

User input:
--------------------------------------------------------------
$molecule
-2 1
C                  5.9024280000     -5.2110920000      1.1205530000
C                  6.7903910000     -5.0839110000      0.0788610000
C                  6.5770690000     -4.0905330000     -0.9148510000
C                  4.7675890000     -4.3783030000      1.2427240000
C                  4.5492120000     -3.3611970000      0.2253580000
C                  5.4837970000     -3.2615140000     -0.8296050000
C                  3.8675640000     -4.5663820000      2.3706630000
C                  2.7764980000     -3.6576260000      2.3573070000
C                  2.5651150000     -2.6730530000      1.3725050000
C                  3.4135840000     -2.4517540000      0.2555530000
O                  4.0599510000     -5.4712170000      3.2775290000
O                  3.2170870000     -1.5456080000     -0.6491250000
H                  6.0410600000     -5.9606410000      1.8927420000
H                  5.2967590000     -2.4947300000     -1.5741640000
Cl                 7.7183690000     -3.9005840000     -2.2855860000
Cl                 8.2078600000     -6.1799290000     -0.0054100000
H                  2.0629170000     -3.7458710000      3.1777080000
H                  1.6929970000     -2.0228550000      1.4542890000
$end
$rem
MAX_SCF_CYCLES=200
BASIS  =  6-311++G(d,p)
GUI  =  2
JOB_TYPE  =  SP
METHOD  =  B3LYP
SOLVENT_METHOD = COSMO
$end
$solvent
dielectric 37.219
opticaldielectric 1.43
$end

--------------------------------------------------------------

             Standard Nuclear Orientation (Angstroms)
    I     Atom           X                Y                Z
 ----------------------------------------------------------------
    1      C      -0.2619662426    -1.3945538220     0.0001453221
    2      C      -1.4544229885    -0.7105783636     0.0001257342
    3      C      -1.4544248800     0.7106076427     0.0001586319
    4      C       0.9835885345    -0.7275334889     0.0001551244
    5      C       0.9835917344     0.7275358244     0.0001231445
    6      C      -0.2619585750     1.3945719402     0.0001537024
    7      C       2.2088979217    -1.5125697907     0.0000600479
    8      C       3.3764053096    -0.7042584027    -0.0001969564
    9      C       3.3764116275     0.7042520665    -0.0002449218
   10      C       2.2088992985     1.5125648702    -0.0000591154
   11      O       2.2113113549    -2.8079999304     0.0001333865
   12      O       2.2113198676     2.8079984110     0.0000424062
   13      H      -0.2328363799    -2.4792057630     0.0000789796
   14      H      -0.2327481328     2.4792173979     0.0001116433
   15      Cl     -2.9943459133     1.6305010736    -0.0000413391
   16      Cl     -2.9943237116    -1.6305137446    -0.0001596741
   17      H       4.3308902460    -1.2324641559    -0.0003098150
   18      H       4.3308976700     1.2324492270    -0.0003942085
 ----------------------------------------------------------------

   11   -1454.4984979324      6.96e-06  Convergence criterion met
 Total energy in the final basis set =    -1454.4984979324
    5   -1454.7734254171      7.99e-06  Convergence criterion met
 Total energy in the final basis set =    -1454.7734254171

                    Orbital Energies (a.u.)
 --------------------------------------------------------------

 Alpha MOs
 -- Occupied --
********-101.5512 -19.0294 -19.0294 -10.2298 -10.2294 -10.1827 -10.1827
-10.1688 -10.1688 -10.1559 -10.1556 -10.1315 -10.1310  -9.4654  -9.4654
 -7.2298  -7.2298  -7.2204  -7.2204  -7.2199  -7.2199  -0.9443  -0.9409
 -0.8921  -0.8435  -0.8211  -0.7671  -0.7379  -0.7045  -0.6529  -0.6060
 -0.5862  -0.5422  -0.4863  -0.4810  -0.4594  -0.4297  -0.4230  -0.4050
 -0.4034  -0.3979  -0.3724  -0.3668  -0.3658  -0.3427  -0.3329  -0.3300
 -0.3284  -0.3220  -0.3054  -0.3038  -0.2439  -0.2358  -0.2242  -0.2123
 -0.2082  -0.1268

          Ground-State Mulliken Net Atomic Charges

     Atom                 Charge (a.u.)
  ----------------------------------------
      1 C                    -0.897699
      2 C                     0.726051
      3 C                     0.724640
      4 C                    -0.352309
      5 C                    -0.350816
      6 C                    -0.897025
      7 C                    -0.549603
      8 C                    -0.045089
      9 C                    -0.044953
     10 C                    -0.549546
     11 O                    -0.748655
     12 O                    -0.748668
     13 H                     0.210323
     14 H                     0.210331
     15 Cl                    0.500962
     16 Cl                    0.500896
     17 H                     0.155582
     18 H                     0.155578
  ----------------------------------------
  Sum of atomic charges =    -2.000000

                    Cartesian Multipole Moments
 -----------------------------------------------------------------
    Charge (ESU x 10^10)
                -9.6064
    Dipole Moment (Debye)
         X     -13.9622      Y       0.0014      Z      -0.0003
       Tot      13.9622
    Quadrupole Moments (Debye-Ang)
        XX    -156.9446     XY       0.0001     YY    -163.8660
        XZ      -0.0015     YZ       0.0022     ZZ    -103.7849

 Total job time:  37.09s(wall), 280.05s(cpu)
        *  Thank you very much for using Q-Chem.  Have a nice day.  *
