 Gaussian 16, Revision A.03,
 Gaussian 16:  ES64L-G16RevA.03 25-Dec-2016

 ----------------------------------------------------------------
 #P UB3LYP/6-311++G(d,p) SCRF=(PCM,Solvent=n,n-DiMethylFormamide)
 ----------------------------------------------------------------

 ------------------
 Quinone PCM in DMF
 ------------------
 Symbolic Z-matrix:
 Charge =  0 Multiplicity = 1

                         Standard orientation:
 ---------------------------------------------------------------------
 Center     Atomic      Atomic             Coordinates (Angstroms)
 Number     Number       Type             X           Y           Z
 ---------------------------------------------------------------------
      1          6           0        0.498975   -0.954203   -0.688894
      2          6           0       -0.562302    0.102552   -0.689182
      3          6           0       -0.265610    1.370680   -0.339533
      4          6           0        1.132861    1.734149    0.043461
      5          6           0        2.192149    0.662023    0.078328
      6          6           0        1.874641   -0.619085   -0.250219
      7          8           0        0.235189   -2.089135   -1.065734
      8          8           0        1.425212    2.876327    0.340243
      9          8           0        2.833182   -1.586716   -0.343253
     10          8           0        3.374473    1.171244    0.434494
     11          6           0        2.670915   -2.767489    0.462492
     12          6           0        4.505970    0.353773    0.767742
     13          6           0       -1.272810    2.487881   -0.316645
     14          6           0       -1.947727   -0.352014   -1.095132
     15          6           0       -2.752444   -0.833626    0.091961
     16          6           0       -3.987464   -0.467721    0.458768
     17          6           0       -4.848723    0.533528   -0.268746
     18          6           0       -4.640056   -1.082305    1.673553
     19          1           0        1.780591   -3.321644    0.170053
     20          1           0        2.620938   -2.497643    1.523470
     21          1           0        3.560938   -3.369074    0.282427
     22          1           0        5.260264    1.060004    1.110813
     23          1           0        4.865342   -0.199134   -0.098166
     24          1           0        4.258111   -0.340548    1.573765
     25          1           0       -2.196292    2.171504    0.171439
     26          1           0       -1.525509    2.805007   -1.334525
     27          1           0       -0.866772    3.352467    0.205745
     28          1           0       -1.832325   -1.182103   -1.798374
     29          1           0       -2.458011    0.455905   -1.619099
     30          1           0       -2.249579   -1.586682    0.694809
     31          1           0       -4.354066    0.995029   -1.123082
     32          1           0       -5.169198    1.332010    0.410443
     33          1           0       -5.763546    0.052789   -0.634590
     34          1           0       -3.986000   -1.805715    2.163913
     35          1           0       -5.571161   -1.593254    1.401486
     36          1           0       -4.908418   -0.311538    2.405754
 ---------------------------------------------------------------------

 SCF Done:  E(UB3LYP) =  -845.404962577     A.U. after   16 cycles

 The electronic state is 1-A.
 Alpha  occ. eigenvalues --  -19.18063 -19.16049 -19.14115 -19.13466 -10.28828
 Alpha  occ. eigenvalues --  -10.28300 -10.26816 -10.25216 -10.22813 -10.22079
 Alpha  occ. eigenvalues --  -10.21250 -10.21130 -10.18351 -10.18335 -10.17363
 Alpha  occ. eigenvalues --  -10.16987 -10.16545 -10.16367  -1.10557  -1.08206
 Alpha  occ. eigenvalues --   -1.06876  -1.05592  -0.86613  -0.82416  -0.80546
 Alpha  occ. eigenvalues --   -0.75943  -0.74650  -0.72163  -0.69596  -0.69036
 Alpha  occ. eigenvalues --   -0.66863  -0.64859  -0.59747  -0.59353  -0.55773
 Alpha  occ. eigenvalues --   -0.53482  -0.52389  -0.51703  -0.49767  -0.47833
 Alpha  occ. eigenvalues --   -0.47216  -0.46683  -0.46463  -0.45723  -0.44858
 Alpha  occ. eigenvalues --   -0.44505  -0.43894  -0.43622  -0.41808  -0.41737
 Alpha  occ. eigenvalues --   -0.41191  -0.41127  -0.39117  -0.38690  -0.38414
 Alpha  occ. eigenvalues --   -0.37540  -0.37428  -0.36449  -0.36033  -0.35768
 Alpha  occ. eigenvalues --   -0.34130  -0.31840  -0.28913  -0.28811  -0.27531
 Alpha  occ. eigenvalues --   -0.24751  -0.24243
 Alpha virt. eigenvalues --   -0.12622  -0.01313  -0.01261  -0.00286   0.00151
 Alpha virt. eigenvalues --    0.00338   0.01037   0.01278   0.01601   0.01950
 Alpha virt. eigenvalues --    0.02822   0.03047   0.03376   0.03862   0.03881

  Beta  occ. eigenvalues --  -19.18063 -19.16049 -19.14115 -19.13466 -10.28828
  Beta  occ. eigenvalues --  -10.28300 -10.26816 -10.25216 -10.22813 -10.22079
  Beta  occ. eigenvalues --  -10.21250 -10.21130 -10.18351 -10.18335 -10.17363
  Beta  occ. eigenvalues --  -10.16987 -10.16545 -10.16367  -1.10557  -1.08206
  Beta  occ. eigenvalues --   -1.06876  -1.05592  -0.86613  -0.82416  -0.80546
  Beta  occ. eigenvalues --   -0.75943  -0.74650  -0.72163  -0.69596  -0.69036
  Beta  occ. eigenvalues --   -0.66863  -0.64859  -0.59747  -0.59353  -0.55773
  Beta  occ. eigenvalues --   -0.53482  -0.52389  -0.51703  -0.49767  -0.47833
  Beta  occ. eigenvalues --   -0.47216  -0.46683  -0.46463  -0.45723  -0.44858
  Beta  occ. eigenvalues --   -0.44505  -0.43894  -0.43622  -0.41808  -0.41737
  Beta  occ. eigenvalues --   -0.41191  -0.41127  -0.39117  -0.38690  -0.38414
  Beta  occ. eigenvalues --   -0.37540  -0.37428  -0.36449  -0.36033  -0.35768
  Beta  occ. eigenvalues --   -0.34130  -0.31840  -0.28913  -0.28811  -0.27531
  Beta  occ. eigenvalues --   -0.24751  -0.24243
  Beta virt. eigenvalues --   -0.12622  -0.01313  -0.01261  -0.00286   0.00151
  Beta virt. eigenvalues --    0.00338   0.01037   0.01278   0.01601   0.01950
  Beta virt. eigenvalues --    0.02822   0.03047   0.03376   0.03862   0.03881

 Mulliken charges and spin densities:
               1          2
     1  C   -0.733647  -0.000000
     2  C    1.198206  -0.000000
     3  C    0.455192   0.000000
     4  C   -0.818651  -0.000000
     5  C    0.048269   0.000000
     6  C   -0.234502   0.000000
     7  O   -0.284838   0.000000
     8  O   -0.279239   0.000000
     9  O   -0.216276  -0.000000
    10  O   -0.198483   0.000000
    11  C   -0.300431   0.000000
    12  C   -0.289478   0.000000
    13  C   -0.618292   0.000000
    14  C    0.632676  -0.000000
    15  C   -0.742229   0.000000
    16  C    0.485833   0.000000
    17  C   -0.657158   0.000000
    18  C   -0.609695   0.000000
    19  H    0.164853   0.000000
    20  H    0.147292   0.000000
    21  H    0.173728   0.000000
    22  H    0.195799   0.000000
    23  H    0.196100   0.000000
    24  H    0.185797   0.000000
    25  H    0.185010   0.000000
    26  H    0.212886   0.000000
    27  H    0.185189  -0.000000
    28  H    0.227112   0.000000
    29  H    0.190645  -0.000000
    30  H    0.204428  -0.000000
    31  H    0.123413   0.000000
    32  H    0.156913   0.000000
    33  H    0.156336  -0.000000
    34  H    0.154066  -0.000000
    35  H    0.148943   0.000000
    36  H    0.154232   0.000000
 Sum of Mulliken charges =  -0.00000  -0.00000

 Dipole moment (field-independent basis, Debye):
    X=             -0.9699    Y=             -1.6258    Z=              1.7617  Tot=              2.5861
 Quadrupole moment (field-independent basis, Debye-Ang):
   XX=            -87.7652   YY=           -120.9562   ZZ=           -107.2977
   XY=            -13.9147   XZ=              5.5480   YZ=             -9.9757

 Normal termination of Gaussian 16 at Wed Jan 24 22:55:54 2024.
