 Q-Chem 5.4, Q-Chem, Inc., Pleasanton, CA (2021)
 Q-Chem 5.4.0 for Intel X86 EM64T Linux

User input:
--------------------------------------------------------------
$molecule
0 1
C                 -3.5666410000      2.9972520000      1.4997700000
C                 -4.5460440000      2.1145940000      1.9386660000
C                 -4.4378980000      0.7484460000      1.6605880000
C                 -2.4597230000      2.5225890000      0.7885490000
C                 -2.3522630000      1.1518620000      0.5115990000
C                 -3.3474320000      0.2695090000      0.9462970000
C                 -1.4317090000      3.5077330000      0.3197850000
C                 -0.1888960000      2.9621870000     -0.2976820000
C                 -0.1032150000      1.5864110000     -0.6169580000
C                 -1.1919020000      0.6250510000     -0.2519500000
C                  0.9142250000      3.7875470000     -0.6236480000
C                  2.0265640000      3.2532840000     -1.2805860000
C                  2.0669810000      1.9041960000     -1.6075230000
C                  1.0116890000      1.0656410000     -1.2706950000
O                 -1.6487460000      4.7029030000      0.4370130000
O                 -1.1166030000     -0.5544770000     -0.5566200000
H                 -3.2432330000     -0.7826430000      0.7120390000
H                  1.0296920000      0.0086840000     -1.5009000000
H                 -3.6369090000      4.0596240000      1.6964530000
O                  0.8679740000      5.0943160000     -0.2415460000
H                  2.9353840000      1.5075830000     -2.1211440000
H                 -5.2058100000      0.0631330000      2.0010370000
C                  1.8607890000      5.9798730000     -0.6358680000
C                  1.7592110000      6.6223180000     -1.8786890000
C                  2.8931100000      6.2867040000      0.2431840000
C                  3.8605780000      7.2209550000     -0.1222080000
C                  2.7387120000      7.5491860000     -2.2364580000
C                  3.7863120000      7.8445800000     -1.3665130000
O                  0.7655640000      6.3103380000     -2.7660720000
C                 -0.5573260000      6.7594100000     -2.4084580000
H                 -5.3978080000      2.4876610000      2.4961800000
H                  2.8559890000      3.9013430000     -1.5301830000
H                  2.9261410000      5.7858830000      1.2036320000
H                  4.6663510000      7.4575410000      0.5624520000
H                  2.6590560000      8.0281610000     -3.2053020000
H                  4.5383770000      8.5684200000     -1.6583790000
H                 -1.2125230000      6.4117290000     -3.2059690000
H                 -0.5820440000      7.8532930000     -2.3665570000
H                 -0.8759870000      6.3377500000     -1.4536880000
$end

$rem
BASIS  =  6-311++G(d,p)
GUI  =  2
JOB_TYPE  =  SP
METHOD  =  B3LYP
SCF_CONVERGENCE  = 8
SOLVENT_METHOD = sm12
$end

$smx
solvent dimethylformamide
charges CM5
$end

--------------------------------------------------------------

             Standard Nuclear Orientation (Angstroms)
    I     Atom           X                Y                Z
 ----------------------------------------------------------------
    1      C      -3.5666410000     2.9972520000     1.4997700000
    2      C      -4.5460440000     2.1145940000     1.9386660000
    3      C      -4.4378980000     0.7484460000     1.6605880000
    4      C      -2.4597230000     2.5225890000     0.7885490000
    5      C      -2.3522630000     1.1518620000     0.5115990000
    6      C      -3.3474320000     0.2695090000     0.9462970000
    7      C      -1.4317090000     3.5077330000     0.3197850000
    8      C      -0.1888960000     2.9621870000    -0.2976820000
    9      C      -0.1032150000     1.5864110000    -0.6169580000
   10      C      -1.1919020000     0.6250510000    -0.2519500000
   11      C       0.9142250000     3.7875470000    -0.6236480000
   12      C       2.0265640000     3.2532840000    -1.2805860000
   13      C       2.0669810000     1.9041960000    -1.6075230000
   14      C       1.0116890000     1.0656410000    -1.2706950000
   15      O      -1.6487460000     4.7029030000     0.4370130000
   16      O      -1.1166030000    -0.5544770000    -0.5566200000
   17      H      -3.2432330000    -0.7826430000     0.7120390000
   18      H       1.0296920000     0.0086840000    -1.5009000000
   19      H      -3.6369090000     4.0596240000     1.6964530000
   20      O       0.8679740000     5.0943160000    -0.2415460000
   21      H       2.9353840000     1.5075830000    -2.1211440000
   22      H      -5.2058100000     0.0631330000     2.0010370000
   23      C       1.8607890000     5.9798730000    -0.6358680000
   24      C       1.7592110000     6.6223180000    -1.8786890000
   25      C       2.8931100000     6.2867040000     0.2431840000
   26      C       3.8605780000     7.2209550000    -0.1222080000
   27      C       2.7387120000     7.5491860000    -2.2364580000
   28      C       3.7863120000     7.8445800000    -1.3665130000
   29      O       0.7655640000     6.3103380000    -2.7660720000
   30      C      -0.5573260000     6.7594100000    -2.4084580000
   31      H      -5.3978080000     2.4876610000     2.4961800000
   32      H       2.8559890000     3.9013430000    -1.5301830000
   33      H       2.9261410000     5.7858830000     1.2036320000
   34      H       4.6663510000     7.4575410000     0.5624520000
   35      H       2.6590560000     8.0281610000    -3.2053020000
   36      H       4.5383770000     8.5684200000    -1.6583790000
   37      H      -1.2125230000     6.4117290000    -3.2059690000
   38      H      -0.5820440000     7.8532930000    -2.3665570000
   39      H      -0.8759870000     6.3377500000    -1.4536880000
 ----------------------------------------------------------------

   14   -1109.8365822964      8.62e-09  Convergence criterion met
 Total energy in the final basis set =    -1109.8605834696

                    Orbital Energies (a.u.)
 --------------------------------------------------------------

 Alpha MOs
 -- Occupied --
-19.1806 -19.1472 -19.1276 -19.1232 -10.2805 -10.2802 -10.2713 -10.2460
-10.2421 -10.2137 -10.2121 -10.2112 -10.2071 -10.2061 -10.2007 -10.1971
-10.1970 -10.1964 -10.1959 -10.1950 -10.1917 -10.1886 -10.1853 -10.1846
-10.1844  -1.1068  -1.0628  -1.0606  -1.0575  -0.8939  -0.8828  -0.8667
 -0.8129  -0.7901  -0.7763  -0.7717  -0.7650  -0.7491  -0.6960  -0.6895
 -0.6717  -0.6490  -0.6412  -0.6228  -0.6037  -0.5838  -0.5689  -0.5618
 -0.5327  -0.5170  -0.5100  -0.5071  -0.4954  -0.4879  -0.4836  -0.4745
 -0.4651  -0.4569  -0.4530  -0.4498  -0.4494  -0.4465  -0.4422  -0.4347
 -0.4232  -0.4167  -0.4114  -0.3994  -0.3898  -0.3872  -0.3785  -0.3781
 -0.3745  -0.3667  -0.3659  -0.3557  -0.3423  -0.2940  -0.2893  -0.2840
 -0.2771  -0.2765  -0.2713  -0.2624  -0.2526  -0.2477

          Ground-State Mulliken Net Atomic Charges

     Atom                 Charge (a.u.)
  ----------------------------------------
      1 C                     0.142326
      2 C                     0.412559
      3 C                     0.429689
      4 C                    -0.341843
      5 C                    -0.557690
      6 C                    -0.025456
      7 C                    -0.913010
      8 C                     0.100500
      9 C                    -0.137204
     10 C                    -1.575390
     11 C                    -0.729972
     12 C                     0.530028
     13 C                     0.857057
     14 C                    -0.060236
     15 O                    -0.190162
     16 O                    -0.254436
     17 H                     0.188954
     18 H                     0.179406
     19 H                     0.181940
     20 O                     0.065001
     21 H                     0.370376
     22 H                     0.325016
     23 C                    -0.491626
     24 C                    -1.044617
     25 C                     0.511483
     26 C                     0.073834
     27 C                     0.328709
     28 C                    -0.108148
     29 O                    -0.154997
     30 C                    -0.209645
     31 H                     0.328022
     32 H                     0.284860
     33 H                     0.222046
     34 H                     0.287599
     35 H                     0.240708
     36 H                     0.267013
     37 H                     0.182026
     38 H                     0.166534
     39 H                     0.118745
  ----------------------------------------
  Sum of atomic charges =     0.000000

                    Cartesian Multipole Moments
 -----------------------------------------------------------------
    Charge (ESU x 10^10)
                 0.0000
    Dipole Moment (Debye)
         X       0.9307      Y       1.5500      Z       0.9117
       Tot       2.0248
    Quadrupole Moments (Debye-Ang)
        XX    -114.3386     XY      13.0370     YY    -134.2252
        XZ      -9.3313     YZ      -3.6397     ZZ    -140.7716

 Total job time:  1496.72s(wall), 11543.84s(cpu)
        *  Thank you very much for using Q-Chem.  Have a nice day.  *
