 Gaussian 16, Revision A.03,
 Gaussian 16:  ES64L-G16RevA.03 25-Dec-2016

 --------------------------------------
 #P UB3LYP/6-311++G(d,p) nosym opt freq
 --------------------------------------

 -------
 Radical
 -------
 Symbolic Z-matrix:
 Charge = -1 Multiplicity = 2

 SCF Done:  E(UB3LYP) =  -839.481123234     A.U. after   23 cycles
 SCF Done:  E(UB3LYP) =  -839.507474870     A.U. after   19 cycles
 SCF Done:  E(UB3LYP) =  -839.511926527     A.U. after   17 cycles
 SCF Done:  E(UB3LYP) =  -839.512129628     A.U. after   15 cycles
 SCF Done:  E(UB3LYP) =  -839.512226715     A.U. after   14 cycles
 SCF Done:  E(UB3LYP) =  -839.512587573     A.U. after   17 cycles
 SCF Done:  E(UB3LYP) =  -839.513055701     A.U. after   16 cycles
 SCF Done:  E(UB3LYP) =  -839.514690108     A.U. after   19 cycles
 SCF Done:  E(UB3LYP) =  -839.515954811     A.U. after   17 cycles
 SCF Done:  E(UB3LYP) =  -839.476613995     A.U. after   21 cycles
 SCF Done:  E(UB3LYP) =  -839.517814432     A.U. after   17 cycles
 SCF Done:  E(UB3LYP) =  -839.518160209     A.U. after   15 cycles
 SCF Done:  E(UB3LYP) =  -839.518191817     A.U. after   14 cycles
 SCF Done:  E(UB3LYP) =  -839.518198566     A.U. after   13 cycles
 SCF Done:  E(UB3LYP) =  -839.518199662     A.U. after   12 cycles
 SCF Done:  E(UB3LYP) =  -839.518199748     A.U. after   10 cycles
 Optimization completed.
    -- Stationary point found.
 Normal termination of Gaussian 16 at Thu Dec 21 20:54:21 2023.

 ----------------------------------------------------------------------
 #P Geom=AllCheck Guess=TCheck SCRF=Check GenChk UB3LYP/6-311++G(d,p) F
 req
 ----------------------------------------------------------------------

 Structure from the checkpoint file:  "188-rad.chk"
 -------
 Radical
 -------
 Charge = -1 Multiplicity = 2

                          Input orientation:
 ---------------------------------------------------------------------
 Center     Atomic      Atomic             Coordinates (Angstroms)
 Number     Number       Type             X           Y           Z
 ---------------------------------------------------------------------
      1          8           0        5.051137   -0.178615   -0.437471
      2          6           0        3.718452    0.151886   -0.250288
      3          6           0        3.432592    1.496034    0.066577
      4          6           0        2.121763    1.876630    0.262994
      5          6           0        1.055124    0.956873    0.155573
      6          6           0       -0.314900    1.415605    0.374108
      7          8           0       -0.587751    2.611175    0.657660
      8          6           0       -1.357265    0.397823    0.243148
      9          6           0       -2.704768    0.773085    0.441540
     10          6           0       -3.718432   -0.151940    0.328257
     11          8           0       -5.051176    0.178582    0.515468
     12          6           0       -3.432612   -1.496045    0.011335
     13          6           0       -2.121752   -1.876637   -0.185017
     14          6           0       -1.055142   -0.956885   -0.077547
     15          6           0        0.314911   -1.415636   -0.296066
     16          8           0        0.587762   -2.611160   -0.579624
     17          6           0        1.357273   -0.397815   -0.165118
     18          6           0        2.704767   -0.773119   -0.363474
     19          1           0        5.096070   -1.117406   -0.645878
     20          1           0        4.249432    2.204431    0.149662
     21          1           0        1.870750    2.902361    0.507675
     22          1           0       -2.903036    1.813459    0.684863
     23          1           0       -5.096137    1.117613    0.722767
     24          1           0       -4.249424   -2.204448   -0.071920
     25          1           0       -1.870668   -2.902345   -0.429741
     26          1           0        2.903032   -1.813508   -0.606733
 ---------------------------------------------------------------------

 SCF Done:  E(UB3LYP) =  -839.518199748     A.U. after    1 cycles

 Alpha  occ. eigenvalues --  -19.05230 -19.05229 -18.94609 -18.94607 -10.12182
 Alpha  occ. eigenvalues --  -10.12182 -10.09615 -10.09613 -10.05933 -10.05933
 Alpha  occ. eigenvalues --  -10.05737 -10.05737 -10.05432 -10.05431 -10.05268
 Alpha  occ. eigenvalues --  -10.05268 -10.04835 -10.04835  -0.95822  -0.95819
 Alpha  occ. eigenvalues --   -0.87243  -0.86964  -0.74225  -0.73354  -0.66548
 Alpha  occ. eigenvalues --   -0.63662  -0.63339  -0.62069  -0.54599  -0.54108
 Alpha  occ. eigenvalues --   -0.50186  -0.50062  -0.44480  -0.44115  -0.42869
 Alpha  occ. eigenvalues --   -0.41914  -0.36078  -0.35348  -0.35246  -0.34865
 Alpha  occ. eigenvalues --   -0.31396  -0.31128  -0.31109  -0.30391  -0.29780
 Alpha  occ. eigenvalues --   -0.29062  -0.28487  -0.28158  -0.27534  -0.26809
 Alpha  occ. eigenvalues --   -0.25008  -0.23892  -0.23855  -0.22326  -0.21781
 Alpha  occ. eigenvalues --   -0.19882  -0.14433  -0.13726  -0.12718  -0.11688
 Alpha  occ. eigenvalues --   -0.11185  -0.10887  -0.01447
 Alpha virt. eigenvalues --    0.06643   0.07705   0.07751   0.09607   0.09660
 Alpha virt. eigenvalues --    0.10482   0.11238   0.11578   0.12850   0.13291
 Alpha virt. eigenvalues --    0.14400   0.15225   0.15270   0.15754   0.16190

  Beta  occ. eigenvalues --  -19.05213 -19.05212 -18.94018 -18.94017 -10.12128
  Beta  occ. eigenvalues --  -10.12128 -10.09465 -10.09464 -10.05907 -10.05906
  Beta  occ. eigenvalues --  -10.05745 -10.05745 -10.05316 -10.05315 -10.05251
  Beta  occ. eigenvalues --  -10.05251 -10.04780 -10.04779  -0.95777  -0.95774
  Beta  occ. eigenvalues --   -0.86234  -0.85924  -0.73966  -0.73251  -0.66162
  Beta  occ. eigenvalues --   -0.63413  -0.63215  -0.61908  -0.53983  -0.53850
  Beta  occ. eigenvalues --   -0.50089  -0.49840  -0.44404  -0.43873  -0.42781
  Beta  occ. eigenvalues --   -0.41737  -0.35888  -0.35166  -0.35123  -0.34725
  Beta  occ. eigenvalues --   -0.31364  -0.31095  -0.30628  -0.30166  -0.29610
  Beta  occ. eigenvalues --   -0.28833  -0.28285  -0.27123  -0.27048  -0.26604
  Beta  occ. eigenvalues --   -0.23845  -0.23679  -0.22787  -0.21937  -0.21554
  Beta  occ. eigenvalues --   -0.18741  -0.13538  -0.12838  -0.11141  -0.11138
  Beta  occ. eigenvalues --   -0.10598  -0.10331
  Beta virt. eigenvalues --    0.04546   0.07477   0.07699   0.07745   0.09598
  Beta virt. eigenvalues --    0.09652   0.11463   0.11491   0.11581   0.12845
  Beta virt. eigenvalues --    0.13286   0.14390   0.15234   0.15449   0.15933

 Mulliken charges and spin densities:
               1          2
     1  O   -0.269647   0.004203
     2  C   -0.590449   0.033442
     3  C   -0.094995   0.024670
     4  C    0.142639   0.017239
     5  C    0.226469   0.022307
     6  C   -0.761054   0.081061
     7  O   -0.377374   0.220451
     8  C    0.387843   0.073238
     9  C    0.137757   0.030261
    10  C   -0.590577   0.033415
    11  O   -0.269671   0.004201
    12  C   -0.095030   0.024701
    13  C    0.142749   0.017215
    14  C    0.226471   0.022324
    15  C   -0.761157   0.081028
    16  O   -0.377331   0.220404
    17  C    0.387907   0.073264
    18  C    0.137733   0.030230
    19  H    0.255179  -0.000194
    20  H    0.160092  -0.002460
    21  H    0.162368  -0.001351
    22  H    0.121229  -0.002822
    23  H    0.255170  -0.000194
    24  H    0.160093  -0.002463
    25  H    0.162363  -0.001349
    26  H    0.121224  -0.002819
 Sum of Mulliken charges =  -1.00000   1.00000

 Dipole moment (field-independent basis, Debye):
    X=              0.0007    Y=             -0.0002    Z=             -0.1893  Tot=              0.1893
 Quadrupole moment (field-independent basis, Debye-Ang):
   XX=           -133.4219   YY=           -129.1873   ZZ=           -111.1245
   XY=             -7.5731   XZ=              0.3565   YZ=             -3.4438

  Exact polarizability: 334.457  13.851 217.253 -17.804  25.540 101.337
 Approx polarizability: 498.033   1.099 410.714 -29.959  56.653 164.579

                      1                      2                      3
                      A                      A                      A
 Frequencies --     44.5655                99.5817               119.3713
 Red. masses --      9.4120                 4.4077                 6.4588
 Frc consts  --      0.0110                 0.0258                 0.0542
 IR Inten    --      3.7674                 0.0720                 0.0000

                      4                      5                      6
                      A                      A                      A
 Frequencies --    152.5800               170.0599               184.9491
 Red. masses --      8.2696                 6.7647                 5.7740
 Frc consts  --      0.1134                 0.1153                 0.1164
 IR Inten    --      4.0565                 2.8453                 0.0000

                      7                      8                      9
                      A                      A                      A
 Frequencies --    243.4272               274.0886               300.6793
 Red. masses --      7.9128                 2.7949                 1.2356
 Frc consts  --      0.2763                 0.1237                 0.0658
 IR Inten    --      0.0000                43.1277                 0.0005

                     10                     11                     12
                      A                      A                      A
 Frequencies --    317.8209               318.8170               331.0463
 Red. masses --      1.4500                 8.5322                 4.2302
 Frc consts  --      0.0863                 0.5110                 0.2731
 IR Inten    --    164.4745                 0.0102                 0.0001

                     13                     14                     15
                      A                      A                      A
 Frequencies --    360.6714               391.9294               404.8972
 Red. masses --     10.3298                 6.8752                 5.0647
 Frc consts  --      0.7917                 0.6222                 0.4892
 IR Inten    --     10.4397                 0.0000                27.8382

                     16                     17                     18
                      A                      A                      A
 Frequencies --    428.8866               456.5677               460.5723
 Red. masses --      3.3149                 3.1989                 5.6649
 Frc consts  --      0.3593                 0.3929                 0.7080
 IR Inten    --      9.0306                 0.0000                 0.0000

                     19                     20                     21
                      A                      A                      A
 Frequencies --    483.3261               492.5238               546.0779
 Red. masses --      7.3700                10.3855                 7.4409
 Frc consts  --      1.0144                 1.4843                 1.3073
 IR Inten    --      0.0000                 0.0000                42.2413

                     22                     23                     24
                      A                      A                      A
 Frequencies --    564.1655               645.2321               653.1977
 Red. masses --      3.7193                 6.5899                 3.9206
 Frc consts  --      0.6975                 1.6164                 0.9856
 IR Inten    --     11.6274                 0.0000                 0.0000

                     25                     26                     27
                      A                      A                      A
 Frequencies --    665.6080               707.6384               712.3450
 Red. masses --      6.8592                 6.6835                 4.3912
 Frc consts  --      1.7904                 1.9719                 1.3129
 IR Inten    --      3.5261                 0.0000                 3.5272

                     28                     29                     30
                      A                      A                      A
 Frequencies --    730.0598               730.8637               779.9808
 Red. masses --      6.7835                 6.1396                 2.5045
 Frc consts  --      2.1302                 1.9322                 0.8977
 IR Inten    --     30.3508                30.8494                 0.0000

                     31                     32                     33
                      A                      A                      A
 Frequencies --    807.8860               816.0524               822.2474
 Red. masses --      7.2104                 1.5013                 2.0480
 Frc consts  --      2.7727                 0.5890                 0.8158
 IR Inten    --      0.0000                32.8997                 0.0000

                     34                     35                     36
                      A                      A                      A
 Frequencies --    883.1763               885.0024               888.7050
 Red. masses --      1.4901                 1.4758                 7.1952
 Frc consts  --      0.6848                 0.6810                 3.3482
 IR Inten    --      0.0000                40.0473               103.7678

                     37                     38                     39
                      A                      A                      A
 Frequencies --    979.9162               981.9535               992.0805
 Red. masses --      1.2942                 1.3113                 3.8484
 Frc consts  --      0.7322                 0.7449                 2.2316
 IR Inten    --      0.0000                 3.0859                 0.0000

                     40                     41                     42
                      A                      A                      A
 Frequencies --    994.0249              1096.3962              1110.6824
 Red. masses --      2.5308                 2.4090                 1.5699
 Frc consts  --      1.4734                 1.7062                 1.1411
 IR Inten    --     16.7172                22.0073                 0.0000

                     43                     44                     45
                      A                      A                      A
 Frequencies --   1137.6187              1152.1420              1172.5933
 Red. masses --      1.8939                 1.7806                 1.7655
 Frc consts  --      1.4441                 1.3926                 1.4303
 IR Inten    --     63.2427                 0.0001               364.3265

                     46                     47                     48
                      A                      A                      A
 Frequencies --   1183.6943              1212.8055              1219.0552
 Red. masses --      1.4902                 2.4456                 1.7922
 Frc consts  --      1.2302                 2.1194                 1.5692
 IR Inten    --      0.0001               341.1622                 0.0003

                     49                     50                     51
                      A                      A                      A
 Frequencies --   1248.0839              1256.0516              1284.9877
 Red. masses --      2.2370                 4.8325                 2.2439
 Frc consts  --      2.0531                 4.4920                 2.1830
 IR Inten    --     17.7110                 0.0005                42.5461

                     52                     53                     54
                      A                      A                      A
 Frequencies --   1339.6633              1370.3574              1374.5729
 Red. masses --      2.0654                 8.1598                 7.7461
 Frc consts  --      2.1839                 9.0281                 8.6232
 IR Inten    --      0.0000                 2.3170                 0.0000

                     55                     56                     57
                      A                      A                      A
 Frequencies --   1419.5571              1473.3881              1482.9859
 Red. masses --      3.2172                 2.9261                 4.4865
 Frc consts  --      3.8198                 3.7426                 5.8134
 IR Inten    --    269.9156               226.8573                 0.0001

                     58                     59                     60
                      A                      A                      A
 Frequencies --   1499.7679              1526.2894              1549.5630
 Red. masses --      3.5784                 7.3908                 6.9433
 Frc consts  --      4.7423                10.1441                 9.8228
 IR Inten    --      0.0008               860.8916                 0.0058

                     61                     62                     63
                      A                      A                      A
 Frequencies --   1579.2594              1617.1356              1634.6227
 Red. masses --      5.6190                 7.4588                 6.9795
 Frc consts  --      8.2569                11.4924                10.9878
 IR Inten    --     39.0155                 0.0011                 0.0001

                     64                     65                     66
                      A                      A                      A
 Frequencies --   1637.9682              3148.9596              3149.2401
 Red. masses --      6.9459                 1.0894                 1.0894
 Frc consts  --     10.9797                 6.3645                 6.3656
 IR Inten    --    329.7596                48.5766                 0.0051

                     67                     68                     69
                      A                      A                      A
 Frequencies --   3166.6198              3166.8088              3186.4761
 Red. masses --      1.0870                 1.0871                 1.0935
 Frc consts  --      6.4222                 6.4235                 6.5416
 IR Inten    --     18.3631                 0.0829                41.5984

                     70                     71                     72
                      A                      A                      A
 Frequencies --   3186.7483              3831.7566              3831.9501
 Red. masses --      1.0935                 1.0657                 1.0657
 Frc consts  --      6.5427                 9.2190                 9.2202
 IR Inten    --      0.0451                82.0707                 1.2770

 - Thermochemistry -
 -------------------
 Temperature   298.150 Kelvin.  Pressure   1.00000 Atm.
 Atom     1 has atomic number  8 and mass  15.99491

 Molecular mass:   240.04226 amu.
 Principal axes and moments of inertia in atomic units:
                           1         2         3
     Eigenvalues --  1773.879536891.492238665.37175
           X            0.99486  -0.05589   0.08439
           Y            0.07271   0.97463  -0.21167
           Z           -0.07041   0.21671   0.97369
 This molecule is an asymmetric top.
 Rotational symmetry number  1.
 Warning -- assumption of classical behavior for rotation
           may cause significant error
 Rotational temperatures (Kelvin)      0.04883     0.01257     0.01000
 Rotational constants (GHZ):           1.01740     0.26188     0.20827
 Zero-point vibrational energy     484908.5 (Joules/Mol)
                                  115.89592 (Kcal/Mol)
 Warning -- explicit consideration of  22 degrees of freedom as
           vibrations may cause significant error
 Vibrational temperatures:     64.12   143.28   171.75   219.53   244.68
          (Kelvin)            266.10   350.24   394.35   432.61   457.27
                              458.71   476.30   518.93   563.90   582.56
                              617.07   656.90   662.66   695.40   708.63
                              785.68   811.71   928.35   939.81   957.66
                             1018.13  1024.91  1050.39  1051.55  1122.22
                             1162.37  1174.12  1183.03  1270.69  1273.32
                             1278.65  1409.88  1412.81  1427.38  1430.18
                             1577.47  1598.02  1636.78  1657.68  1687.10
                             1703.07  1744.96  1753.95  1795.71  1807.18
                             1848.81  1927.48  1971.64  1977.70  2042.43
                             2119.88  2133.69  2157.83  2195.99  2229.48
                             2272.20  2326.70  2351.86  2356.67  4530.65
                             4531.05  4556.06  4556.33  4584.63  4585.02
                             5513.04  5513.32

 Zero-point correction=                           0.184692 (Hartree/Particle)
 Thermal correction to Energy=                    0.198507
 Thermal correction to Enthalpy=                  0.199451
 Thermal correction to Gibbs Free Energy=         0.143958
 Sum of electronic and zero-point Energies=           -839.333508
 Sum of electronic and thermal Energies=              -839.319693
 Sum of electronic and thermal Enthalpies=            -839.318749
 Sum of electronic and thermal Free Energies=         -839.374241

                     E (Thermal)             CV                S
                      KCal/Mol        Cal/Mol-Kelvin    Cal/Mol-Kelvin
 Total                  124.565             55.932            116.794
 Electronic               0.000              0.000              1.377
 Translational            0.889              2.981             42.328
 Rotational               0.889              2.981             33.027
 Vibrational            122.787             49.970             40.062
 Vibration     1          0.595              1.980              5.045
 Vibration     2          0.604              1.949              3.462
 Vibration     3          0.609              1.933              3.111
 Vibration     4          0.619              1.900              2.640
 Vibration     5          0.625              1.879              2.435
 Vibration     6          0.631              1.860              2.278
 Vibration     7          0.659              1.774              1.778
 Vibration     8          0.676              1.721              1.570
 Vibration     9          0.693              1.672              1.413
 Vibration    10          0.704              1.640              1.321
 Vibration    11          0.705              1.638              1.316
 Vibration    12          0.713              1.613              1.255
 Vibration    13          0.735              1.553              1.119
 Vibration    14          0.759              1.487              0.993
 Vibration    15          0.770              1.460              0.945
 Vibration    16          0.790              1.407              0.862
 Vibration    17          0.815              1.346              0.776
 Vibration    18          0.818              1.338              0.764
 Vibration    19          0.840              1.287              0.701
 Vibration    20          0.848              1.267              0.677
 Vibration    21          0.901              1.148              0.552
 Vibration    22          0.920              1.109              0.516

 Optimization completed.
    -- Stationary point found.
 Normal termination of Gaussian 16 at Thu Dec 21 22:18:38 2023.
