 Q-Chem 5.4, Q-Chem, Inc., Pleasanton, CA (2021)
 Q-Chem 5.4.0 for Intel X86 EM64T Linux

User input:
--------------------------------------------------------------
$molecule
-1 2
C                 -2.2230290000      4.7335290000      5.3291110000
C                 -3.4464820000      4.0940820000      5.4011110000
C                 -3.7871010000      3.1170750000      4.4451030000
C                 -1.3039710000      4.4161800000      4.3063900000
C                 -1.6432130000      3.4308460000      3.3406880000
C                 -2.8957250000      2.7986590000      3.4332370000
C                 -0.0264720000      5.0867180000      4.2187920000
C                  0.8490060000      4.6734340000      3.1476250000
C                  0.5763710000      3.6877790000      2.2100730000
C                 -0.7247980000      3.0518660000      2.2381720000
O                  0.3784770000      6.0042430000      5.0029670000
O                 -1.1149400000      2.2152500000      1.3789650000
O                  2.0226080000      5.3593200000      3.1211450000
H                 -1.9371180000      5.4914380000      6.0495700000
H                 -4.1458570000      4.3449170000      6.1932440000
H                 -4.7482810000      2.6150810000      4.5011830000
H                 -3.1345700000      2.0539560000      2.6830660000
H                  1.9247300000      5.9671650000      3.8882420000
C                  2.9600840000      2.8749330000      1.6844750000
C                  3.0173920000      2.0956780000      2.8408010000
C                  4.1479120000      3.1096290000      0.9830230000
C                  5.3586490000      2.5775070000      1.4193330000
C                  5.4031110000      1.7962220000      2.5749860000
C                  4.2268040000      1.5594460000      3.2835840000
H                  2.1076930000      1.9189100000      3.4030170000
H                  4.1132700000      3.7140810000      0.0823290000
H                  6.2690750000      2.7766770000      0.8623600000
H                  4.2488920000      0.9591750000      4.1876490000
H                  6.3452010000      1.3839770000      2.9220490000
C                  1.6511410000      3.4496330000      1.1351700000
H                  1.9131870000      4.4528250000      0.7762750000
N                  1.2513110000      2.6985350000     -0.0813040000
C                  1.3086890000      1.2331060000     -0.0034150000
C                  0.6777190000      0.6234520000     -1.2549490000
C                  0.7464280000     -0.9071140000     -1.2771630000
C                  0.0999160000     -1.5316360000     -2.5190240000
C                  0.1656320000     -3.0629940000     -2.5458150000
C                 -0.4853150000     -3.6880040000     -3.7850880000
H                  0.2769040000      2.9321430000     -0.2487290000
H                  0.7837400000      0.8428220000      0.8788220000
H                  2.3573770000      0.9255980000      0.0609630000
H                  1.1767920000      1.0329350000     -2.1424010000
H                 -0.3718670000      0.9384490000     -1.3051340000
H                  0.2562950000     -1.3028280000     -0.3787860000
H                  1.7958540000     -1.2262520000     -1.2185540000
H                  0.5862020000     -1.1335100000     -3.4197350000
H                 -0.9493850000     -1.2141670000     -2.5756860000
H                 -0.3189560000     -3.4601930000     -1.6443430000
H                  1.2152690000     -3.3809960000     -2.4899790000
H                 -0.0019730000     -3.2897240000     -4.6870850000
H                 -1.5350470000     -3.3710790000     -3.8396530000
C                 -0.4189340000     -5.2193480000     -3.8119800000
C                 -1.0719610000     -5.8439140000     -5.0503430000
C                 -1.0041410000     -7.3751520000     -5.0776550000
C                 -1.6575470000     -7.9993220000     -6.3159800000
C                 -1.5887690000     -9.5304870000     -6.3436210000
C                 -2.2427620000    -10.1544210000     -7.5817370000
C                 -2.1731910000    -11.6855600000     -7.6096750000
C                 -2.8274430000    -12.3096170000     -8.8473330000
C                 -2.7579720000    -13.8407310000     -8.8763560000
C                 -3.4145010000    -14.4546620000    -10.1164950000
H                 -0.9013660000     -5.6174350000     -2.9097170000
H                  0.6309030000     -5.5365090000     -3.7584160000
H                 -0.5904510000     -5.4448850000     -5.9528350000
H                 -2.1220280000     -5.5278360000     -5.1029920000
H                 -1.4855500000     -7.7741810000     -4.1752760000
H                  0.0459770000     -7.6912830000     -5.0251340000
H                 -1.1766670000     -7.5997120000     -7.2184660000
H                 -2.7078090000     -7.6838480000     -6.3679770000
H                 -2.0693370000     -9.9300830000     -5.4410600000
H                 -0.5384630000     -9.8459880000     -6.2920050000
H                 -1.7626420000     -9.7543820000     -8.4843810000
H                 -3.2931980000     -9.8394810000     -7.6329290000
H                 -2.6531040000    -12.0855950000     -6.7069440000
H                 -1.1226930000    -12.0005230000     -7.5587840000
H                 -2.3481340000    -11.9101520000     -9.7508490000
H                 -3.8783750000    -11.9957870000     -8.8986960000
H                 -3.2373040000    -14.2403370000     -7.9742570000
H                 -1.7081740000    -14.1548370000     -8.8260400000
H                 -4.4744300000    -14.1872410000    -10.1759920000
H                 -3.3478590000    -15.5464300000    -10.1065650000
H                 -2.9338550000    -14.1009670000    -11.0343270000
$end
$rem
MAX_SCF_CYCLES=200
BASIS  =  6-311++G(d,p)
GUI  =  2
JOB_TYPE  =  SP
METHOD  =  B3LYP
THRESH = 14
SCF_CONVERGENCE  = 6
SOLVENT_METHOD = COSMO
$end
$solvent
dielectric 37.219
opticaldielectric 1.43
$end

--------------------------------------------------------------

             Standard Nuclear Orientation (Angstroms)
    I     Atom           X                Y                Z
 ----------------------------------------------------------------
    1      C       8.1168419579     3.5766926539     0.6861721802
    2      C       7.4669310018     4.7795772897     0.8901280849
    3      C       6.0769493692     4.8726574181     0.6808377891
    4      C       7.4013947123     2.4331082301     0.2718219135
    5      C       5.9993013872     2.5224522382     0.0603969036
    6      C       5.3628717545     3.7585787901     0.2700644999
    7      C       8.0749674912     1.1740176374     0.0475700348
    8      C       7.2482382085     0.0606241133    -0.3543474797
    9      C       5.8724882565     0.0923892918    -0.5308479559
   10      C       5.1878444087     1.3597242339    -0.3780716160
   11      O       9.3262764446     0.9760827469     0.1733234884
   12      O       3.9588882215     1.5248082701    -0.6078274242
   13      O       7.9543153684    -1.0826745318    -0.5612428691
   14      H       9.1859285849     3.4782500021     0.8364890161
   15      H       8.0269494124     5.6532459426     1.2104415911
   16      H       5.5663721269     5.8175585537     0.8404706760
   17      H       4.2938826710     3.8040782925     0.0980814887
   18      H       8.8738197998    -0.7978030940    -0.3591208296
   19      C       5.2765894139    -2.3477533746     0.0256301485
   20      C       5.3466080455    -2.1178409809     1.4003483242
   21      C       5.2292146604    -3.6719966755    -0.4240228190
   22      C       5.2456326816    -4.7375792616     0.4724527931
   23      C       5.3117074951    -4.4953873510     1.8453672749
   24      C       5.3633704308    -3.1805416861     2.3040436059
   25      H       5.3999683767    -1.0974829720     1.7621607561
   26      H       5.1741705445    -3.8607696267    -1.4913310632
   27      H       5.2132629333    -5.7573319279     0.1012118847
   28      H       5.4218282863    -2.9787685338     3.3689459261
   29      H       5.3303684392    -5.3226593742     2.5476528315
   30      C       5.2127109011    -1.2149271617    -1.0029475866
   31      H       5.8379276826    -1.5569747527    -1.8371989503
   32      N       3.8400030250    -1.1287408261    -1.5615764703
   33      C       2.7303571116    -1.1659560780    -0.6002533939
   34      C       1.4145603209    -0.8643906731    -1.3171045681
   35      C       0.1959735231    -0.9373750710    -0.3910558854
   36      C      -1.1282836991    -0.6183674437    -1.0944769407
   37      C      -2.3506437831    -0.6895839342    -0.1720574531
   38      C      -3.6744339220    -0.3656394086    -0.8740593604
   39      H       3.7802707598    -0.2258457684    -2.0234047946
   40      H       2.8603735525    -0.4394026711     0.2130430154
   41      H       2.6819380519    -2.1663488640    -0.1583008099
   42      H       1.2928286005    -1.5671494656    -2.1511505541
   43      H       1.4771448833     0.1403860051    -1.7528561202
   44      H       0.3364185740    -0.2405691889     0.4447897415
   45      H       0.1350322291    -1.9399163192     0.0536644893
   46      H      -1.2687656124    -1.3120214236    -1.9343386432
   47      H      -1.0675037366     0.3845330923    -1.5366602148
   48      H      -2.2087218786     0.0026134843     0.6681599289
   49      H      -2.4122825823    -1.6930145893     0.2698795804
   50      H      -3.8159937216    -1.0567586769    -1.7155817995
   51      H      -3.6129170966     0.6381969132    -1.3143824076
   52      C      -4.8967421367    -0.4375252154     0.0484042552
   53      C      -6.2199574374    -0.1113400054    -0.6535746246
   54      C      -7.4422118087    -0.1847239153     0.2687834208
   55      C      -8.7651472653     0.1418381597    -0.4334810481
   56      C      -9.9873929214     0.0674446922     0.4887672175
   57      C     -11.3101063489     0.3946273585    -0.2135947985
   58      C     -12.5323866528     0.3193920944     0.7085645190
   59      C     -13.8549673062     0.6469388880     0.0065790084
   60      C     -15.0778812623     0.5715322620     0.9278682856
   61      C     -16.3942208405     0.9006779774     0.2173758134
   62      H      -4.7547354099     0.2527781935     0.8901926541
   63      H      -4.9590196395    -1.4417109207     0.4881206533
   64      H      -6.3614894948    -0.8008060997    -1.4962922609
   65      H      -6.1580364933     0.8932941485    -1.0919739145
   66      H      -7.3007310288     0.5046163753     1.1114338706
   67      H      -7.5042424917    -1.1894391660     0.7071263664
   68      H      -8.9063091583    -0.5470156647    -1.2766704903
   69      H      -8.7033518517     1.1468221075    -0.8710497773
   70      H      -9.8461287732     0.7560147566     1.3320670642
   71      H     -10.0494273472    -0.9376761098     0.9260676742
   72      H     -11.4511349113    -0.2935288731    -1.0573154584
   73      H     -11.2482876651     1.3999786244    -0.6502535864
   74      H     -12.3912725357     1.0073692669     1.5523903085
   75      H     -12.5943913852    -0.6860936840     1.1450177191
   76      H     -13.9970871335    -0.0406474751    -0.8376232860
   77      H     -13.7942057370     1.6527278081    -0.4296344430
   78      H     -14.9367107151     1.2587904661     1.7710608880
   79      H     -15.1396490021    -0.4334169098     1.3632210486
   80      H     -16.3764677633     1.9131455871    -0.1986741076
   81      H     -17.2456278267     0.8379068533     0.9012347584
   82      H     -16.5809224521     0.2082290238    -0.6097839446
 ----------------------------------------------------------------

   13   -1565.5674666357      6.70e-07  Convergence criterion met
 Total energy in the final basis set =    -1565.5674666357
    6   -1565.6472796954      5.98e-07  Convergence criterion met
 Total energy in the final basis set =    -1565.6472796954

                    Orbital Energies (a.u.)
 --------------------------------------------------------------

 Alpha MOs
 -- Occupied --
-19.1453 -19.0899 -19.0741 -14.2867 -10.2292 -10.2250 -10.2237 -10.2033
-10.1777 -10.1756 -10.1739 -10.1724 -10.1717 -10.1713 -10.1713 -10.1711
-10.1709 -10.1704 -10.1691 -10.1684 -10.1679 -10.1676 -10.1579 -10.1557
-10.1556 -10.1555 -10.1554 -10.1553 -10.1552 -10.1551 -10.1550 -10.1548
-10.1548 -10.1546 -10.1545 -10.1522 -10.1515  -1.0678  -1.0021  -1.0007
 -0.8985  -0.8598  -0.8526  -0.8110  -0.8078  -0.8028  -0.7918  -0.7774
 -0.7660  -0.7525  -0.7512  -0.7444  -0.7383  -0.7302  -0.7058  -0.6859
 -0.6726  -0.6568  -0.6385  -0.6191  -0.6112  -0.6092  -0.6009  -0.5891
 -0.5756  -0.5742  -0.5717  -0.5714  -0.5668  -0.5653  -0.5627  -0.5387
 -0.5134  -0.5052  -0.4867  -0.4836  -0.4786  -0.4718  -0.4658  -0.4641
 -0.4596  -0.4540  -0.4485  -0.4427  -0.4396  -0.4371  -0.4318  -0.4289
 -0.4268  -0.4233  -0.4209  -0.4182  -0.4168  -0.4126  -0.4057  -0.4043
 -0.3978  -0.3954  -0.3917  -0.3901  -0.3864  -0.3802  -0.3762  -0.3742
 -0.3715  -0.3669  -0.3599  -0.3586  -0.3538  -0.3500  -0.3456  -0.3425
 -0.3405  -0.3396  -0.3368  -0.3353  -0.3322  -0.3292  -0.3271  -0.3228
 -0.3207  -0.3191  -0.3175  -0.3165  -0.3158  -0.3148  -0.3144  -0.3076
 -0.2867  -0.2692  -0.2650  -0.2586  -0.2549  -0.2494  -0.2454  -0.2322
 -0.2156  -0.1545

 Beta MOs
 -- Occupied --
-19.1446 -19.0837 -19.0689 -14.2867 -10.2279 -10.2238 -10.2207 -10.2034
-10.1777 -10.1756 -10.1728 -10.1724 -10.1717 -10.1713 -10.1709 -10.1705
-10.1704 -10.1704 -10.1694 -10.1684 -10.1676 -10.1672 -10.1579 -10.1557
-10.1556 -10.1555 -10.1554 -10.1553 -10.1552 -10.1551 -10.1550 -10.1548
-10.1548 -10.1546 -10.1545 -10.1522 -10.1515  -1.0653  -0.9930  -0.9902
 -0.8983  -0.8575  -0.8526  -0.8109  -0.8056  -0.8018  -0.7915  -0.7770
 -0.7652  -0.7522  -0.7492  -0.7443  -0.7373  -0.7301  -0.7055  -0.6832
 -0.6680  -0.6542  -0.6381  -0.6180  -0.6111  -0.6074  -0.6000  -0.5889
 -0.5753  -0.5738  -0.5715  -0.5708  -0.5666  -0.5653  -0.5617  -0.5369
 -0.5123  -0.5039  -0.4846  -0.4830  -0.4782  -0.4714  -0.4649  -0.4638
 -0.4584  -0.4538  -0.4482  -0.4421  -0.4387  -0.4336  -0.4295  -0.4259
 -0.4250  -0.4232  -0.4188  -0.4160  -0.4139  -0.4118  -0.4049  -0.4032
 -0.3970  -0.3934  -0.3906  -0.3861  -0.3810  -0.3783  -0.3755  -0.3738
 -0.3668  -0.3630  -0.3584  -0.3536  -0.3518  -0.3489  -0.3425  -0.3404
 -0.3393  -0.3362  -0.3350  -0.3320  -0.3301  -0.3286  -0.3268  -0.3228
 -0.3207  -0.3191  -0.3175  -0.3165  -0.3158  -0.3148  -0.3144  -0.3076
 -0.2867  -0.2597  -0.2548  -0.2527  -0.2504  -0.2483  -0.2411  -0.2243
 -0.2129

          Ground-State Mulliken Net Atomic Charges

     Atom                 Charge (a.u.)    Spin (a.u.)
  --------------------------------------------------------
      1 C                    -0.033072       0.077954
      2 C                    -0.476263      -0.005482
      3 C                    -0.561913       0.072476
      4 C                     0.132693      -0.004194
      5 C                     0.378955       0.056742
      6 C                    -0.039672      -0.003781
      7 C                    -0.707261       0.187636
      8 C                    -0.485499       0.053536
      9 C                     0.999907       0.066857
     10 C                    -0.532128       0.068590
     11 O                    -0.552193       0.225072
     12 O                    -0.445915       0.198509
     13 O                    -0.255844       0.020904
     14 H                     0.195362      -0.004109
     15 H                     0.200234      -0.000142
     16 H                     0.203546      -0.005295
     17 H                     0.194799       0.000300
     18 H                     0.318604      -0.003683
     19 C                     0.094461      -0.016367
     20 C                    -0.296734      -0.017351
     21 C                     0.196585       0.008806
     22 C                    -0.329212      -0.001803
     23 C                    -0.471827      -0.002127
     24 C                    -0.237780       0.004670
     25 H                     0.173317       0.000148
     26 H                     0.195568       0.000567
     27 H                     0.222284      -0.000023
     28 H                     0.225294       0.000238
     29 H                     0.190895      -0.000020
     30 C                     0.189422       0.017795
     31 H                     0.234233       0.001159
     32 N                     0.039557      -0.006645
     33 C                    -0.834492       0.002187
     34 C                    -0.304105       0.005189
     35 C                    -0.047067      -0.000883
     36 C                    -0.091666      -0.000356
     37 C                    -0.192536       0.000010
     38 C                    -0.283980       0.000061
     39 H                     0.269252       0.001547
     40 H                     0.221449       0.001153
     41 H                     0.110126       0.000640
     42 H                     0.155614      -0.000089
     43 H                     0.148853      -0.000673
     44 H                     0.120577       0.000341
     45 H                     0.137448      -0.000073
     46 H                     0.124179       0.000041
     47 H                     0.131944       0.000009
     48 H                     0.136952      -0.000032
     49 H                     0.136799      -0.000001
     50 H                     0.137178      -0.000003
     51 H                     0.136245       0.000000
     52 C                    -0.408044      -0.000003
     53 C                    -0.409366      -0.000004
     54 C                    -0.335762      -0.000000
     55 C                    -0.198751       0.000001
     56 C                    -0.049653       0.000000
     57 C                    -0.034268       0.000000
     58 C                    -0.199195      -0.000000
     59 C                    -0.401005      -0.000000
     60 C                    -0.274952      -0.000000
     61 C                    -0.709922      -0.000000
     62 H                     0.135144       0.000001
     63 H                     0.134448       0.000000
     64 H                     0.133945       0.000000
     65 H                     0.134264      -0.000000
     66 H                     0.134717      -0.000000
     67 H                     0.134489      -0.000000
     68 H                     0.134739       0.000000
     69 H                     0.135050       0.000000
     70 H                     0.133649       0.000000
     71 H                     0.133314      -0.000000
     72 H                     0.133731      -0.000000
     73 H                     0.133457       0.000000
     74 H                     0.131572       0.000000
     75 H                     0.131465       0.000000
     76 H                     0.128289       0.000000
     77 H                     0.128479      -0.000000
     78 H                     0.136405       0.000000
     79 H                     0.136317       0.000000
     80 H                     0.145482       0.000000
     81 H                     0.153307      -0.000000
     82 H                     0.145485       0.000000
  --------------------------------------------------------
  Sum of atomic charges =    -1.000000

                    Cartesian Multipole Moments
 -----------------------------------------------------------------
    Charge (ESU x 10^10)
                -4.8032
    Dipole Moment (Debye)
         X     -30.8072      Y      -2.9644      Z       2.2630
       Tot      31.0321
    Quadrupole Moments (Debye-Ang)
        XX    -470.3212     XY     -19.8177     YY    -237.1916
        XZ       6.6642     YZ       0.2418     ZZ    -237.5996

 Total job time:  1597.56s(wall), 11766.36s(cpu)
        *  Thank you very much for using Q-Chem.  Have a nice day.  *
