 Gaussian 16, Revision A.03,
 Gaussian 16:  ES64L-G16RevA.03 25-Dec-2016

 ----------------------------------------------------------------
 #P UB3LYP/6-311++G(d,p) SCRF=(PCM,Solvent=n,n-DiMethylFormamide)
 ----------------------------------------------------------------

 ------------------
 Quinone PCM in DMF
 ------------------
 Symbolic Z-matrix:
 Charge =  0 Multiplicity = 1

                         Standard orientation:
 ---------------------------------------------------------------------
 Center     Atomic      Atomic             Coordinates (Angstroms)
 Number     Number       Type             X           Y           Z
 ---------------------------------------------------------------------
      1          6           0        0.490305   -0.609760    0.001221
      2          6           0        1.769666    0.160190    0.000099
      3          6           0        1.672236    1.501944   -0.000486
      4          6           0        0.384226    2.253161    0.000305
      5          6           0       -0.850965    1.506079    0.000896
      6          6           0       -0.840542    0.140839    0.000786
      7          8           0        0.456316   -1.830771    0.002351
      8          8           0        0.421282    3.483614    0.000363
      9          7           0       -1.887978   -0.711573    0.000499
     10          6           0       -3.340653   -0.439896   -0.000386
     11          6           0       -4.022434   -1.817773   -0.002948
     12          6           0       -3.751716    0.328285   -1.271397
     13          6           0       -3.753456    0.324916    1.272084
     14          1           0       -1.759240    2.089786    0.001191
     15          1           0       -1.599985   -1.683468    0.001532
     16          1           0       -3.744735   -2.394118    0.884325
     17          1           0       -3.744111   -2.391034   -0.892007
     18          1           0       -5.107767   -1.700870   -0.003047
     19          1           0       -3.472844   -0.236216   -2.164480
     20          1           0       -3.282249    1.310359   -1.333100
     21          1           0       -4.834918    0.474641   -1.281830
     22          1           0       -3.478361   -0.243260    2.164010
     23          1           0       -4.836291    0.474125    1.280173
     24          1           0       -3.281391    1.305482    1.338211
     25          6           0        3.104150   -0.598853   -0.000453
     26          6           0        3.209055   -1.482764   -1.267775
     27          6           0        4.295877    0.376612   -0.002124
     28          6           0        3.211059   -1.480908    1.268047
     29          1           0        2.544339    2.143099   -0.001334
     30          1           0        2.427967   -2.241093   -1.297017
     31          1           0        4.178792   -1.989060   -1.279883
     32          1           0        3.139459   -0.873229   -2.173634
     33          1           0        4.301665    1.015942   -0.889204
     34          1           0        5.226698   -0.195873   -0.002754
     35          1           0        4.303503    1.016892    0.884262
     36          1           0        2.430316   -2.239506    1.299474
     37          1           0        3.142339   -0.869983    2.173032
     38          1           0        4.181019   -1.986782    1.279659
 ---------------------------------------------------------------------

 SCF Done:  E(UB3LYP) =  -751.553738255     A.U. after   16 cycles

 The electronic state is 1-A.
 Alpha  occ. eigenvalues --  -19.14715 -19.11545 -14.35147 -10.29424 -10.26508
 Alpha  occ. eigenvalues --  -10.24990 -10.23559 -10.21246 -10.20312 -10.20070
 Alpha  occ. eigenvalues --  -10.17408 -10.16831 -10.16536 -10.16535 -10.16193
 Alpha  occ. eigenvalues --  -10.15978 -10.15977  -1.08306  -1.04584  -0.96328
 Alpha  occ. eigenvalues --   -0.86197  -0.82869  -0.80057  -0.75747  -0.70252
 Alpha  occ. eigenvalues --   -0.69962  -0.69885  -0.68985  -0.68654  -0.64263
 Alpha  occ. eigenvalues --   -0.61047  -0.58602  -0.54817  -0.53638  -0.51010
 Alpha  occ. eigenvalues --   -0.50275  -0.48287  -0.46779  -0.46662  -0.45297
 Alpha  occ. eigenvalues --   -0.44983  -0.44287  -0.44051  -0.43717  -0.41838
 Alpha  occ. eigenvalues --   -0.41302  -0.40984  -0.40711  -0.39343  -0.38960
 Alpha  occ. eigenvalues --   -0.38363  -0.37966  -0.37660  -0.37056  -0.36284
 Alpha  occ. eigenvalues --   -0.35712  -0.34481  -0.34322  -0.33823  -0.33254
 Alpha  occ. eigenvalues --   -0.29335  -0.28780  -0.26766  -0.23246
 Alpha virt. eigenvalues --   -0.12234  -0.01047  -0.01026  -0.00138   0.00585
 Alpha virt. eigenvalues --    0.00899   0.01568   0.01715   0.02050   0.02422
 Alpha virt. eigenvalues --    0.03056   0.03418   0.03430   0.03820   0.04544

  Beta  occ. eigenvalues --  -19.14715 -19.11545 -14.35147 -10.29424 -10.26508
  Beta  occ. eigenvalues --  -10.24990 -10.23559 -10.21246 -10.20312 -10.20070
  Beta  occ. eigenvalues --  -10.17408 -10.16831 -10.16536 -10.16535 -10.16193
  Beta  occ. eigenvalues --  -10.15978 -10.15977  -1.08306  -1.04584  -0.96328
  Beta  occ. eigenvalues --   -0.86197  -0.82869  -0.80057  -0.75747  -0.70252
  Beta  occ. eigenvalues --   -0.69962  -0.69885  -0.68985  -0.68654  -0.64263
  Beta  occ. eigenvalues --   -0.61047  -0.58602  -0.54817  -0.53638  -0.51010
  Beta  occ. eigenvalues --   -0.50275  -0.48287  -0.46779  -0.46662  -0.45297
  Beta  occ. eigenvalues --   -0.44983  -0.44287  -0.44051  -0.43717  -0.41838
  Beta  occ. eigenvalues --   -0.41302  -0.40984  -0.40711  -0.39343  -0.38960
  Beta  occ. eigenvalues --   -0.38363  -0.37966  -0.37660  -0.37056  -0.36284
  Beta  occ. eigenvalues --   -0.35712  -0.34481  -0.34322  -0.33823  -0.33254
  Beta  occ. eigenvalues --   -0.29335  -0.28780  -0.26766  -0.23246
  Beta virt. eigenvalues --   -0.12234  -0.01047  -0.01026  -0.00138   0.00585
  Beta virt. eigenvalues --    0.00899   0.01568   0.01715   0.02050   0.02422
  Beta virt. eigenvalues --    0.03056   0.03418   0.03430   0.03820   0.04544

 Mulliken charges and spin densities:
               1          2
     1  C   -0.623702   0.000000
     2  C    0.980886  -0.000000
     3  C   -0.217172   0.000000
     4  C   -0.582908  -0.000000
     5  C   -0.040355  -0.000000
     6  C   -0.010124   0.000000
     7  O   -0.227467  -0.000000
     8  O   -0.367734  -0.000000
     9  N    0.091289  -0.000000
    10  C   -0.117568   0.000000
    11  C   -0.523424   0.000000
    12  C   -0.417071   0.000000
    13  C   -0.417136  -0.000000
    14  H    0.224013  -0.000000
    15  H    0.357046  -0.000000
    16  H    0.161018  -0.000000
    17  H    0.161139   0.000000
    18  H    0.169388  -0.000000
    19  H    0.168182   0.000000
    20  H    0.135698   0.000000
    21  H    0.173973   0.000000
    22  H    0.168152   0.000000
    23  H    0.173905   0.000000
    24  H    0.135901   0.000000
    25  C    0.581020  -0.000000
    26  C   -0.685395  -0.000000
    27  C   -0.453827  -0.000000
    28  C   -0.685049  -0.000000
    29  H    0.238983   0.000000
    30  H    0.176597  -0.000000
    31  H    0.164623  -0.000000
    32  H    0.149533   0.000000
    33  H    0.141234   0.000000
    34  H    0.184313   0.000000
    35  H    0.141254   0.000000
    36  H    0.176595  -0.000000
    37  H    0.149527   0.000000
    38  H    0.164663  -0.000000
 Sum of Mulliken charges =  -0.00000   0.00000

 Dipole moment (field-independent basis, Debye):
    X=             -2.3646    Y=             -4.7551    Z=             -0.0040  Tot=              5.3105
 Quadrupole moment (field-independent basis, Debye-Ang):
   XX=            -82.2683   YY=           -130.1642   ZZ=           -105.5969
   XY=              1.5725   XZ=             -0.0016   YZ=              0.0007

 Normal termination of Gaussian 16 at Wed Jan 24 22:53:12 2024.
