 Gaussian 16, Revision A.03,
 Gaussian 16:  ES64L-G16RevA.03 25-Dec-2016

 ----------------------------------------------------------------------
 #P UB3LYP/6-311++G(d,p) nosym opt freq SCRF=(PCM,Solvent=n,n-DiMethylF
 ormamide)
 ----------------------------------------------------------------------

 -------
 Radical
 -------
 Symbolic Z-matrix:
 Charge = -1 Multiplicity = 2

 SCF Done:  E(UB3LYP) =  -1204.08944311     A.U. after   20 cycles
 SCF Done:  E(UB3LYP) =  -1204.08968690     A.U. after   16 cycles
 SCF Done:  E(UB3LYP) =  -1204.08979589     A.U. after   16 cycles
 SCF Done:  E(UB3LYP) =  -1204.08981779     A.U. after   15 cycles
 SCF Done:  E(UB3LYP) =  -1204.08983629     A.U. after   14 cycles
 SCF Done:  E(UB3LYP) =  -1204.08984338     A.U. after   13 cycles
 SCF Done:  E(UB3LYP) =  -1204.08984721     A.U. after   13 cycles
 SCF Done:  E(UB3LYP) =  -1204.08984854     A.U. after   10 cycles
 SCF Done:  E(UB3LYP) =  -1204.08984901     A.U. after   10 cycles
 Optimization completed.
    -- Stationary point found.
 Normal termination of Gaussian 16 at Sat Feb 10 16:43:50 2024.

 ----------------------------------------------------------------------
 #P Geom=AllCheck Guess=TCheck SCRF=Check GenChk UB3LYP/6-311++G(d,p) F
 req
 ----------------------------------------------------------------------

 Structure from the checkpoint file:  "152-rad.chk"
 -------
 Radical
 -------
 Charge = -1 Multiplicity = 2

                          Input orientation:
 ---------------------------------------------------------------------
 Center     Atomic      Atomic             Coordinates (Angstroms)
 Number     Number       Type             X           Y           Z
 ---------------------------------------------------------------------
      1          7           0       -2.954731   -1.834001   -0.325177
      2          6           0       -2.547982   -0.530993   -0.147843
      3          6           0       -3.506106    0.480983   -0.014613
      4          6           0       -3.123685    1.802242    0.230002
      5          6           0       -1.787062    2.141526    0.347185
      6          6           0       -0.786014    1.159497    0.207358
      7          6           0        0.612341    1.595294    0.331724
      8          8           0        0.871751    2.807380    0.557222
      9          6           0        1.651712    0.576611    0.179482
     10          6           0        3.050343    0.826754    0.290415
     11         17           0        3.721734    2.428285    0.662559
     12          6           0        4.001420   -0.160208    0.124054
     13          6           0        3.606214   -1.476565   -0.167362
     14          6           0        2.265962   -1.771961   -0.280543
     15          6           0        1.278422   -0.779614   -0.111545
     16          6           0       -0.119991   -1.199733   -0.243991
     17          8           0       -0.383058   -2.413072   -0.523531
     18          6           0       -1.149842   -0.198088   -0.053294
     19          1           0       -3.893575   -1.987810   -0.659442
     20          1           0       -2.222112   -2.479493   -0.605953
     21          1           0       -4.556918    0.221221   -0.093985
     22          1           0       -3.888298    2.565672    0.331600
     23          1           0       -1.482675    3.160534    0.542876
     24          1           0        5.050429    0.088812    0.221036
     25          1           0        4.358741   -2.245818   -0.297270
     26          1           0        1.932976   -2.777457   -0.500964
 ---------------------------------------------------------------------

 SCF Done:  E(UB3LYP) =  -1204.08984901     A.U. after    2 cycles

 Alpha  occ. eigenvalues -- -101.54563 -19.07856 -19.07161 -14.30812 -10.23761
 Alpha  occ. eigenvalues --  -10.22969 -10.22705 -10.21886 -10.18885 -10.18069
 Alpha  occ. eigenvalues --  -10.18030 -10.17725 -10.17386 -10.17323 -10.17203
 Alpha  occ. eigenvalues --  -10.17109 -10.16235 -10.15640  -9.46044  -7.22493
 Alpha  occ. eigenvalues --   -7.21569  -7.21459  -1.00452  -0.99950  -0.91610
 Alpha  occ. eigenvalues --   -0.88564  -0.84404  -0.82989  -0.78680  -0.74411
 Alpha  occ. eigenvalues --   -0.73895  -0.72794  -0.66767  -0.63984  -0.62726
 Alpha  occ. eigenvalues --   -0.58358  -0.55570  -0.55042  -0.52929  -0.50050
 Alpha  occ. eigenvalues --   -0.48018  -0.47670  -0.46655  -0.45017  -0.44182
 Alpha  occ. eigenvalues --   -0.43000  -0.42845  -0.41709  -0.41053  -0.39892
 Alpha  occ. eigenvalues --   -0.39332  -0.37910  -0.37818  -0.36221  -0.35873
 Alpha  occ. eigenvalues --   -0.35210  -0.34449  -0.32814  -0.31342  -0.30950
 Alpha  occ. eigenvalues --   -0.27080  -0.25209  -0.25134  -0.24721  -0.23150
 Alpha  occ. eigenvalues --   -0.21120  -0.14078
 Alpha virt. eigenvalues --   -0.05255  -0.02567  -0.00233   0.00106   0.00453
 Alpha virt. eigenvalues --    0.00789   0.01416   0.02198   0.02920   0.03995
 Alpha virt. eigenvalues --    0.04411   0.04481   0.04731   0.05172   0.06062

  Beta  occ. eigenvalues -- -101.54561 -19.07367 -19.06586 -14.30789 -10.23741
  Beta  occ. eigenvalues --  -10.22792 -10.22536 -10.21886 -10.18807 -10.18030
  Beta  occ. eigenvalues --  -10.17917 -10.17646 -10.17383 -10.17253 -10.17218
  Beta  occ. eigenvalues --  -10.17076 -10.16143 -10.15599  -9.46041  -7.22493
  Beta  occ. eigenvalues --   -7.21559  -7.21458  -0.99600  -0.98948  -0.91528
  Beta  occ. eigenvalues --   -0.88427  -0.84182  -0.82883  -0.78309  -0.74235
  Beta  occ. eigenvalues --   -0.73627  -0.72613  -0.66087  -0.63789  -0.62490
  Beta  occ. eigenvalues --   -0.58273  -0.55348  -0.54828  -0.52811  -0.49955
  Beta  occ. eigenvalues --   -0.47882  -0.47374  -0.46555  -0.44911  -0.44066
  Beta  occ. eigenvalues --   -0.42957  -0.41807  -0.41524  -0.40572  -0.39668
  Beta  occ. eigenvalues --   -0.38858  -0.37771  -0.36069  -0.35926  -0.35194
  Beta  occ. eigenvalues --   -0.34986  -0.34263  -0.32214  -0.31274  -0.30307
  Beta  occ. eigenvalues --   -0.25173  -0.24654  -0.24433  -0.24277  -0.22658
  Beta  occ. eigenvalues --   -0.20350
  Beta virt. eigenvalues --   -0.08430  -0.04274  -0.01511  -0.00218   0.00421
  Beta virt. eigenvalues --    0.00494   0.00808   0.01427   0.02213   0.02934
  Beta virt. eigenvalues --    0.04022   0.04427   0.04541   0.05190   0.05360

 Mulliken charges and spin densities:
               1          2
     1  N   -0.402574   0.009612
     2  C    0.111212   0.023734
     3  C   -0.202784   0.079294
     4  C   -0.472512   0.026076
     5  C    0.056541   0.066500
     6  C    0.277635   0.042750
     7  C   -1.523948   0.082263
     8  O   -0.354941   0.213902
     9  C   -0.242877   0.043896
    10  C    0.976129   0.036575
    11  Cl   0.339932   0.000523
    12  C   -0.071711   0.033205
    13  C   -0.687558   0.060954
    14  C    0.512170   0.024761
    15  C    0.313539   0.050842
    16  C   -0.940400   0.082977
    17  O   -0.445438   0.179977
    18  C    0.109129  -0.035084
    19  H    0.267900  -0.000644
    20  H    0.313042  -0.002675
    21  H    0.160501  -0.005715
    22  H    0.183163  -0.002217
    23  H    0.158607  -0.004223
    24  H    0.200317  -0.002603
    25  H    0.183461  -0.004720
    26  H    0.181465   0.000040
 Sum of Mulliken charges =  -1.00000   1.00000

 Dipole moment (field-independent basis, Debye):
    X=             -3.6218    Y=             -4.6657    Z=             -1.7441  Tot=              6.1586
 Quadrupole moment (field-independent basis, Debye-Ang):
   XX=           -111.8315   YY=           -144.8643   ZZ=           -119.4342
   XY=            -12.6428   XZ=              0.3698   YZ=             -3.8803

  Exact polarizability: 499.799  -4.590 392.399  10.678  46.962 151.901
 Approx polarizability: 505.875  -2.093 468.847  10.772  57.585 174.908

                      1                      2                      3
                      A                      A                      A
 Frequencies --     34.5012                55.1526                95.0078
 Red. masses --     11.3138                 6.3957                 7.1428
 Frc consts  --      0.0079                 0.0115                 0.0380
 IR Inten    --      5.9513                 8.5250                 0.4560

                      4                      5                      6
                      A                      A                      A
 Frequencies --    162.2514               179.7385               196.4377
 Red. masses --      6.9319                10.1349                 4.5077
 Frc consts  --      0.1075                 0.1929                 0.1025
 IR Inten    --      2.2546                10.3991                 0.5769

                      7                      8                      9
                      A                      A                      A
 Frequencies --    219.8381               255.6054               270.8791
 Red. masses --      4.7100                 7.0354                 4.0801
 Frc consts  --      0.1341                 0.2708                 0.1764
 IR Inten    --      3.1424                 5.3775                22.7976

                     10                     11                     12
                      A                      A                      A
 Frequencies --    348.1662               362.0848               367.8318
 Red. masses --      5.1946                 6.7515                 1.9728
 Frc consts  --      0.3710                 0.5215                 0.1573
 IR Inten    --     79.9685                 1.6700               230.0007

                     13                     14                     15
                      A                      A                      A
 Frequencies --    389.7538               418.1394               418.7891
 Red. masses --      3.5557                 6.5444                 6.3434
 Frc consts  --      0.3182                 0.6742                 0.6555
 IR Inten    --     93.5042                 0.3471                 3.5083

                     16                     17                     18
                      A                      A                      A
 Frequencies --    427.1841               468.7112               492.9241
 Red. masses --      6.9102                 5.0227                 4.1227
 Frc consts  --      0.7430                 0.6501                 0.5902
 IR Inten    --     68.6764                25.7076                 6.6802

                     19                     20                     21
                      A                      A                      A
 Frequencies --    496.2678               518.2455               567.9903
 Red. masses --      7.6716                 5.3758                 5.6492
 Frc consts  --      1.1132                 0.8507                 1.0738
 IR Inten    --      1.4410                 4.1800                 8.3010

                     22                     23                     24
                      A                      A                      A
 Frequencies --    571.4221               607.5198               642.4044
 Red. masses --      4.2701                 4.9927                 1.2945
 Frc consts  --      0.8215                 1.0857                 0.3147
 IR Inten    --      7.0087                57.2954                99.5965

                     25                     26                     27
                      A                      A                      A
 Frequencies --    652.2099               698.6114               713.4977
 Red. masses --      3.8908                 6.8403                 2.5133
 Frc consts  --      0.9751                 1.9670                 0.7538
 IR Inten    --     20.5605                 6.7376                71.6249

                     28                     29                     30
                      A                      A                      A
 Frequencies --    733.3818               754.2353               766.9885
 Red. masses --      7.9036                 7.3893                 1.5027
 Frc consts  --      2.5046                 2.4767                 0.5208
 IR Inten    --    152.9178                16.8482                 0.4385

                     31                     32                     33
                      A                      A                      A
 Frequencies --    799.7763               815.4020               819.3493
 Red. masses --      1.7269                 6.4892                 4.3798
 Frc consts  --      0.6508                 2.5421                 1.7324
 IR Inten    --    104.1160                39.6860                 6.6568

                     34                     35                     36
                      A                      A                      A
 Frequencies --    880.1211               888.4292               917.5600
 Red. masses --      1.4666                 6.6786                 1.3830
 Frc consts  --      0.6693                 3.1059                 0.6860
 IR Inten    --      0.2417                24.1223                 0.0563

                     37                     38                     39
                      A                      A                      A
 Frequencies --    931.6463               980.8260               997.0086
 Red. masses --      6.6868                 1.2861                 1.3115
 Frc consts  --      3.4195                 0.7290                 0.7681
 IR Inten    --     14.0806                 1.0022                 1.6752

                     40                     41                     42
                      A                      A                      A
 Frequencies --   1025.3640              1071.5915              1089.0374
 Red. masses --      3.5667                 2.2164                 2.0270
 Frc consts  --      2.2094                 1.4995                 1.4164
 IR Inten    --     64.3819                78.6121                39.5262

                     43                     44                     45
                      A                      A                      A
 Frequencies --   1121.8782              1140.7504              1161.3267
 Red. masses --      3.1939                 1.4796                 1.7540
 Frc consts  --      2.3684                 1.1344                 1.3938
 IR Inten    --     13.0701               128.7875                88.6472

                     46                     47                     48
                      A                      A                      A
 Frequencies --   1180.7068              1189.6013              1219.7034
 Red. masses --      1.1968                 2.5920                 2.8300
 Frc consts  --      0.9830                 2.1612                 2.4806
 IR Inten    --      5.8020                21.4092               238.2715

                     49                     50                     51
                      A                      A                      A
 Frequencies --   1235.5681              1313.2053              1325.6520
 Red. masses --      2.5556                 2.6380                 7.4041
 Frc consts  --      2.2987                 2.6804                 7.6662
 IR Inten    --     36.6175                 0.8237                18.2127

                     52                     53                     54
                      A                      A                      A
 Frequencies --   1355.8516              1366.7750              1392.0466
 Red. masses --      5.4967                 4.3540                 3.5240
 Frc consts  --      5.9536                 4.7921                 4.0234
 IR Inten    --    136.0575                78.1848               991.1769

                     55                     56                     57
                      A                      A                      A
 Frequencies --   1424.1980              1455.8315              1470.7168
 Red. masses --      2.6501                 3.5248                 3.3850
 Frc consts  --      3.1670                 4.4015                 4.3138
 IR Inten    --    211.6557                49.6120                 9.0720

                     58                     59                     60
                      A                      A                      A
 Frequencies --   1502.2497              1514.9793              1551.0571
 Red. masses --      4.0599                 5.1620                 3.8927
 Frc consts  --      5.3982                 6.9805                 5.5177
 IR Inten    --   1177.9820               683.3365               217.4057

                     61                     62                     63
                      A                      A                      A
 Frequencies --   1589.6280              1599.5570              1610.6367
 Red. masses --      1.4321                 5.1641                 6.3124
 Frc consts  --      2.1322                 7.7847                 9.6481
 IR Inten    --    237.8124               118.7477                53.3637

                     64                     65                     66
                      A                      A                      A
 Frequencies --   1613.7549              3152.0153              3168.4009
 Red. masses --      6.2651                 1.0864                 1.0933
 Frc consts  --      9.6128                 6.3591                 6.4668
 IR Inten    --     57.3141                32.4826                49.5807

                     67                     68                     69
                      A                      A                      A
 Frequencies --   3174.3491              3196.1036              3207.0089
 Red. masses --      1.0878                 1.0927                 1.0928
 Frc consts  --      6.4584                 6.5763                 6.6220
 IR Inten    --     17.0530                 7.6086                24.1670

                     70                     71                     72
                      A                      A                      A
 Frequencies --   3208.1050              3451.4213              3652.0998
 Red. masses --      1.0912                 1.0568                 1.0931
 Frc consts  --      6.6168                 7.4169                 8.5898
 IR Inten    --     12.2666               169.5186               106.0190

 - Thermochemistry -
 -------------------
 Temperature   298.150 Kelvin.  Pressure   1.00000 Atm.
 Atom     1 has atomic number  7 and mass  14.00307

 Molecular mass:   257.02436 amu.
 Principal axes and moments of inertia in atomic units:
                           1         2         3
     Eigenvalues --  2566.020056016.051008579.13818
           X            0.97830  -0.20437  -0.03411
           Y            0.19419   0.96178  -0.19304
           Z            0.07226   0.18223   0.98060
 This molecule is an asymmetric top.
 Rotational symmetry number  1.
 Warning -- assumption of classical behavior for rotation
           may cause significant error
 Rotational temperatures (Kelvin)      0.03375     0.01440     0.01010
 Rotational constants (GHZ):           0.70332     0.29999     0.21036
 Zero-point vibrational energy     482376.5 (Joules/Mol)
                                  115.29076 (Kcal/Mol)
 Warning -- explicit consideration of  23 degrees of freedom as
           vibrations may cause significant error
 Vibrational temperatures:     49.64    79.35   136.70   233.44   258.60
          (Kelvin)            282.63   316.30   367.76   389.73   500.93
                              520.96   529.23   560.77   601.61   602.54
                              614.62   674.37   709.21   714.02   745.64
                              817.21   822.15   874.09   924.28   938.38
                             1005.15  1026.56  1055.17  1085.18  1103.53
                             1150.70  1173.18  1178.86  1266.30  1278.25
                             1320.16  1340.43  1411.19  1434.47  1475.27
                             1541.78  1566.88  1614.13  1641.29  1670.89
                             1698.77  1711.57  1754.88  1777.71  1889.41
                             1907.32  1950.77  1966.48  2002.84  2049.10
                             2094.62  2116.03  2161.40  2179.72  2231.63
                             2287.12  2301.41  2317.35  2321.83  4535.05
                             4558.62  4567.18  4598.48  4614.17  4615.75
                             4965.83  5254.56

 Zero-point correction=                           0.183728 (Hartree/Particle)
 Thermal correction to Energy=                    0.197507
 Thermal correction to Enthalpy=                  0.198451
 Thermal correction to Gibbs Free Energy=         0.142131
 Sum of electronic and zero-point Energies=          -1203.906121
 Sum of electronic and thermal Energies=             -1203.892342
 Sum of electronic and thermal Enthalpies=           -1203.891398
 Sum of electronic and thermal Free Energies=        -1203.947718

                     E (Thermal)             CV                S
                      KCal/Mol        Cal/Mol-Kelvin    Cal/Mol-Kelvin
 Total                  123.937             55.618            118.536
 Electronic               0.000              0.000              1.377
 Translational            0.889              2.981             42.532
 Rotational               0.889              2.981             33.248
 Vibrational            122.160             49.657             41.378
 Vibration     1          0.594              1.983              5.552
 Vibration     2          0.596              1.976              4.624
 Vibration     3          0.603              1.953              3.554
 Vibration     4          0.622              1.889              2.523
 Vibration     5          0.629              1.867              2.331
 Vibration     6          0.636              1.845              2.166
 Vibration     7          0.647              1.811              1.960
 Vibration     8          0.666              1.753              1.692
 Vibration     9          0.675              1.727              1.591
 Vibration    10          0.726              1.579              1.174
 Vibration    11          0.736              1.550              1.113
 Vibration    12          0.740              1.538              1.089
 Vibration    13          0.758              1.492              1.001
 Vibration    14          0.781              1.431              0.898
 Vibration    15          0.782              1.429              0.896
 Vibration    16          0.789              1.411              0.868
 Vibration    17          0.826              1.319              0.741
 Vibration    18          0.849              1.266              0.676
 Vibration    19          0.852              1.258              0.668
 Vibration    20          0.873              1.210              0.614
 Vibration    21          0.924              1.100              0.508
 Vibration    22          0.928              1.093              0.502
 Vibration    23          0.966              1.016              0.437

                           ! Non-Optimized Parameters !
 Normal termination of Gaussian 16 at Sat Feb 10 17:34:41 2024.
