 Q-Chem 5.4, Q-Chem, Inc., Pleasanton, CA (2021)
 Q-Chem 5.4.0 for Intel X86 EM64T Linux

User input:
--------------------------------------------------------------
$molecule
0 1
C                 -0.6497340000      2.8884150000      0.4173750000
C                 -1.6499950000      2.5011570000     -0.4684210000
C                 -1.4200840000      1.4589580000     -1.3685570000
C                  0.5846600000      2.2339640000      0.3985990000
C                  0.8188070000      1.1857760000     -0.5066890000
C                 -0.1930020000      0.7991340000     -1.3841850000
C                  1.6516490000      2.6388410000      1.3304230000
C                  2.9554110000      1.9249450000      1.2699660000
C                  3.2115130000      0.9305470000      0.3729210000
C                  2.1306460000      0.4511930000     -0.5350440000
O                  1.5381820000      3.5374620000      2.1577010000
O                  2.2774160000     -0.5191570000     -1.2526900000
O                  3.8717660000      2.3728370000      2.1302370000
H                 -0.8060280000      3.6904140000      1.1282750000
H                 -2.6075120000      3.0087990000     -0.4585090000
H                 -2.1999820000      1.1596210000     -2.0594540000
H                 -0.0002970000     -0.0151440000     -2.0714640000
H                  3.4332140000      3.0806940000      2.6415580000
N                  4.4512430000      0.2792710000      0.4327200000
N                  4.9666640000      0.0022230000     -0.6754030000
C                  6.1806690000     -0.7282240000     -0.6071270000
C                  6.7946810000     -1.1455630000      0.5839630000
C                  6.7629360000     -1.0285160000     -1.8428210000
C                  7.9556030000     -1.7443510000     -1.8945970000
C                  8.5666890000     -2.1587980000     -0.7127230000
C                  7.9840080000     -1.8574050000      0.5234330000
H                  6.3305610000     -0.9017720000      1.5307760000
H                  6.2611180000     -0.6953260000     -2.7433770000
H                  8.4059670000     -1.9788420000     -2.8521350000
H                  9.4958290000     -2.7164920000     -0.7495660000
H                  8.4650040000     -2.1817300000      1.4394660000
$end

$rem
BASIS  =  6-311++G(d,p)
GUI  =  2
JOB_TYPE  =  SP
METHOD  =  B3LYP
SCF_CONVERGENCE  = 8
SOLVENT_METHOD = sm12
$end

$smx
solvent dimethylformamide
charges CM5
$end

--------------------------------------------------------------

             Standard Nuclear Orientation (Angstroms)
    I     Atom           X                Y                Z
 ----------------------------------------------------------------
    1      C      -0.6497340000     2.8884150000     0.4173750000
    2      C      -1.6499950000     2.5011570000    -0.4684210000
    3      C      -1.4200840000     1.4589580000    -1.3685570000
    4      C       0.5846600000     2.2339640000     0.3985990000
    5      C       0.8188070000     1.1857760000    -0.5066890000
    6      C      -0.1930020000     0.7991340000    -1.3841850000
    7      C       1.6516490000     2.6388410000     1.3304230000
    8      C       2.9554110000     1.9249450000     1.2699660000
    9      C       3.2115130000     0.9305470000     0.3729210000
   10      C       2.1306460000     0.4511930000    -0.5350440000
   11      O       1.5381820000     3.5374620000     2.1577010000
   12      O       2.2774160000    -0.5191570000    -1.2526900000
   13      O       3.8717660000     2.3728370000     2.1302370000
   14      H      -0.8060280000     3.6904140000     1.1282750000
   15      H      -2.6075120000     3.0087990000    -0.4585090000
   16      H      -2.1999820000     1.1596210000    -2.0594540000
   17      H      -0.0002970000    -0.0151440000    -2.0714640000
   18      H       3.4332140000     3.0806940000     2.6415580000
   19      N       4.4512430000     0.2792710000     0.4327200000
   20      N       4.9666640000     0.0022230000    -0.6754030000
   21      C       6.1806690000    -0.7282240000    -0.6071270000
   22      C       6.7946810000    -1.1455630000     0.5839630000
   23      C       6.7629360000    -1.0285160000    -1.8428210000
   24      C       7.9556030000    -1.7443510000    -1.8945970000
   25      C       8.5666890000    -2.1587980000    -0.7127230000
   26      C       7.9840080000    -1.8574050000     0.5234330000
   27      H       6.3305610000    -0.9017720000     1.5307760000
   28      H       6.2611180000    -0.6953260000    -2.7433770000
   29      H       8.4059670000    -1.9788420000    -2.8521350000
   30      H       9.4958290000    -2.7164920000    -0.7495660000
   31      H       8.4650040000    -2.1817300000     1.4394660000
 ----------------------------------------------------------------

   16    -951.1012077399      3.88e-09  Convergence criterion met
 Total energy in the final basis set =     -951.1272567740

                    Orbital Energies (a.u.)
 --------------------------------------------------------------

 Alpha MOs
 -- Occupied --
-19.1896 -19.1530 -19.1351 -14.3827 -14.3791 -10.2978 -10.2908 -10.2813
-10.2387 -10.2195 -10.2152 -10.2146 -10.2030 -10.2009 -10.1999 -10.1991
-10.1930 -10.1930 -10.1918 -10.1904 -10.1891  -1.1199  -1.0762  -1.0728
 -1.0544  -0.8976  -0.8842  -0.8525  -0.8069  -0.7831  -0.7719  -0.7652
 -0.7220  -0.6904  -0.6633  -0.6417  -0.6231  -0.6122  -0.5947  -0.5782
 -0.5581  -0.5389  -0.5206  -0.5034  -0.5006  -0.4894  -0.4749  -0.4728
 -0.4681  -0.4547  -0.4530  -0.4509  -0.4425  -0.4377  -0.4297  -0.4200
 -0.4122  -0.4090  -0.3852  -0.3799  -0.3769  -0.3737  -0.3710  -0.3610
 -0.3101  -0.3008  -0.2952  -0.2847  -0.2818  -0.2735  -0.2594  -0.2387

          Ground-State Mulliken Net Atomic Charges

     Atom                 Charge (a.u.)
  ----------------------------------------
      1 C                     0.751874
      2 C                     0.583774
      3 C                     0.787956
      4 C                     0.805013
      5 C                    -0.072628
      6 C                     0.109467
      7 C                    -0.573650
      8 C                    -0.261250
      9 C                    -1.083962
     10 C                    -1.699923
     11 O                    -0.265687
     12 O                    -0.242870
     13 O                    -0.169776
     14 H                     0.228986
     15 H                     0.335393
     16 H                     0.334205
     17 H                     0.177683
     18 H                     0.312500
     19 N                    -0.085666
     20 N                    -0.012162
     21 C                    -1.765376
     22 C                    -0.414638
     23 C                    -0.054367
     24 C                     0.433032
     25 C                     0.202745
     26 C                     0.283270
     27 H                     0.203517
     28 H                     0.235431
     29 H                     0.319330
     30 H                     0.291632
     31 H                     0.306148
  ----------------------------------------
  Sum of atomic charges =     0.000000

                    Cartesian Multipole Moments
 -----------------------------------------------------------------
    Charge (ESU x 10^10)
                 0.0000
    Dipole Moment (Debye)
         X      -2.1526      Y       0.5491      Z      -0.8123
       Tot       2.3653
    Quadrupole Moments (Debye-Ang)
        XX     -93.6258     XY     -16.6761     YY    -118.3659
        XZ       0.9079     YZ      -2.8665     ZZ    -116.4194

 Total job time:  878.73s(wall), 6430.37s(cpu)
        *  Thank you very much for using Q-Chem.  Have a nice day.  *
