 Q-Chem 5.4, Q-Chem, Inc., Pleasanton, CA (2021)
 Q-Chem 5.4.0 for Intel X86 EM64T Linux

User input:
--------------------------------------------------------------
$molecule
-1 2
C                  4.8622850000     -2.8569540000     -0.3600190000
C                  5.5926090000     -1.9624130000     -1.1152680000
C                  5.0057840000     -0.7476230000     -1.5313360000
C                  3.5266920000     -2.5758870000      0.0057570000
C                  2.9350200000     -1.3560370000     -0.4120180000
C                  3.7018910000     -0.4557290000     -1.1821770000
C                  2.7796990000     -3.5265930000      0.8065650000
C                  1.4143420000     -3.1943860000      1.1529750000
C                  0.7935380000     -1.9736540000      0.7135530000
C                  1.5545590000     -1.0052610000     -0.0684480000
C                  0.6800710000     -4.1086700000      1.9655180000
C                 -0.6230030000     -3.8137890000      2.3362000000
C                 -0.5709940000     -1.6975300000      1.0737270000
C                 -1.2152370000     -2.6326260000      1.8876400000
O                  3.3237140000     -4.6195680000      1.1943080000
O                  1.0842740000      0.1077480000     -0.4486390000
O                  1.2307960000     -5.2652250000      2.3960730000
Br                -3.0427490000     -2.2942850000      2.4464800000
N                 -1.2179600000     -0.5789340000      0.5938100000
H                  5.2872040000     -3.7956900000     -0.0253750000
H                  6.6179220000     -2.1911630000     -1.3898460000
H                  5.5803940000     -0.0439550000     -2.1259620000
H                  3.2275600000      0.4689700000     -1.4879380000
H                 -1.1638280000     -4.5091410000      2.9639710000
H                  2.1666310000     -5.2571910000      2.0150360000
H                 -0.5862960000      0.1022030000      0.1721350000
H                 -2.0186440000     -0.2597910000      1.1146990000
$end
$rem
MAX_SCF_CYCLES=200
BASIS  =  6-311++G(d,p)
GUI  =  2
JOB_TYPE  =  SP
METHOD  =  B3LYP
SOLVENT_METHOD = PCM
$end
$pcm
theory = CPCM
$end
$solvent
dielectric 37.219
opticaldielectric 1.43
$end

--------------------------------------------------------------

             Standard Nuclear Orientation (Angstroms)
    I     Atom           X                Y                Z
 ----------------------------------------------------------------
    1      C       4.8622850000    -2.8569540000    -0.3600190000
    2      C       5.5926090000    -1.9624130000    -1.1152680000
    3      C       5.0057840000    -0.7476230000    -1.5313360000
    4      C       3.5266920000    -2.5758870000     0.0057570000
    5      C       2.9350200000    -1.3560370000    -0.4120180000
    6      C       3.7018910000    -0.4557290000    -1.1821770000
    7      C       2.7796990000    -3.5265930000     0.8065650000
    8      C       1.4143420000    -3.1943860000     1.1529750000
    9      C       0.7935380000    -1.9736540000     0.7135530000
   10      C       1.5545590000    -1.0052610000    -0.0684480000
   11      C       0.6800710000    -4.1086700000     1.9655180000
   12      C      -0.6230030000    -3.8137890000     2.3362000000
   13      C      -0.5709940000    -1.6975300000     1.0737270000
   14      C      -1.2152370000    -2.6326260000     1.8876400000
   15      O       3.3237140000    -4.6195680000     1.1943080000
   16      O       1.0842740000     0.1077480000    -0.4486390000
   17      O       1.2307960000    -5.2652250000     2.3960730000
   18      Br     -3.0427490000    -2.2942850000     2.4464800000
   19      N      -1.2179600000    -0.5789340000     0.5938100000
   20      H       5.2872040000    -3.7956900000    -0.0253750000
   21      H       6.6179220000    -2.1911630000    -1.3898460000
   22      H       5.5803940000    -0.0439550000    -2.1259620000
   23      H       3.2275600000     0.4689700000    -1.4879380000
   24      H      -1.1638280000    -4.5091410000     2.9639710000
   25      H       2.1666310000    -5.2571910000     2.0150360000
   26      H      -0.5862960000     0.1022030000     0.1721350000
   27      H      -2.0186440000    -0.2597910000     1.1146990000
 ----------------------------------------------------------------

    8   -3393.2816762184      7.74e-06  Convergence criterion met
 Total energy in the final basis set =    -3393.2816762184

                    Orbital Energies (a.u.)
 --------------------------------------------------------------

 Alpha MOs
 -- Occupied --
******** -62.4859 -56.3062 -56.3026 -56.3025 -19.1308 -19.0921 -19.0837
-14.3086 -10.2358 -10.2350 -10.2343 -10.2268 -10.2258 -10.1842 -10.1810
-10.1778 -10.1773 -10.1767 -10.1754 -10.1748 -10.1733 -10.1725  -8.6945
 -6.5254  -6.5133  -6.5131  -2.6364  -2.6330  -2.6328  -2.6232  -2.6231
 -1.0558  -1.0124  -1.0074  -0.9237  -0.8645  -0.8476  -0.8139  -0.7756
 -0.7556  -0.7409  -0.7265  -0.6734  -0.6401  -0.6300  -0.5963  -0.5736
 -0.5528  -0.5300  -0.5187  -0.5059  -0.4820  -0.4681  -0.4589  -0.4519
 -0.4400  -0.4277  -0.4265  -0.4244  -0.4141  -0.4076  -0.4028  -0.3973
 -0.3790  -0.3676  -0.3637  -0.3563  -0.3536  -0.3409  -0.3154  -0.2988
 -0.2943  -0.2675  -0.2612  -0.2606  -0.2499  -0.2474  -0.2079  -0.1457

 Beta MOs
 -- Occupied --
******** -62.4859 -56.3062 -56.3026 -56.3025 -19.1302 -19.0877 -19.0794
-14.3080 -10.2342 -10.2338 -10.2326 -10.2265 -10.2243 -10.1840 -10.1810
-10.1773 -10.1766 -10.1757 -10.1750 -10.1743 -10.1731 -10.1725  -8.6945
 -6.5255  -6.5132  -6.5131  -2.6364  -2.6330  -2.6328  -2.6231  -2.6231
 -1.0538  -1.0049  -1.0000  -0.9220  -0.8623  -0.8458  -0.8120  -0.7731
 -0.7534  -0.7390  -0.7240  -0.6671  -0.6379  -0.6279  -0.5952  -0.5719
 -0.5509  -0.5284  -0.5175  -0.5044  -0.4792  -0.4668  -0.4578  -0.4505
 -0.4316  -0.4271  -0.4250  -0.4210  -0.4115  -0.4060  -0.3942  -0.3865
 -0.3773  -0.3632  -0.3551  -0.3538  -0.3452  -0.3399  -0.3117  -0.2986
 -0.2864  -0.2575  -0.2546  -0.2534  -0.2452  -0.2436  -0.1967

          Ground-State Mulliken Net Atomic Charges

     Atom                 Charge (a.u.)    Spin (a.u.)
  --------------------------------------------------------
      1 C                    -0.008272       0.041711
      2 C                    -0.521846       0.019929
      3 C                    -0.577643       0.044328
      4 C                     0.161309       0.006797
      5 C                    -0.036475       0.028575
      6 C                     0.091290       0.017736
      7 C                    -0.268394       0.137521
      8 C                     0.622879      -0.002118
      9 C                     0.537620       0.020895
     10 C                    -0.215582       0.090791
     11 C                    -0.332794       0.052500
     12 C                    -0.065604       0.071037
     13 C                    -0.474136       0.023494
     14 C                     0.119174       0.092547
     15 O                    -0.506620       0.163181
     16 O                    -0.461367       0.163520
     17 O                    -0.416460       0.018467
     18 Br                   -0.242122       0.004156
     19 N                    -0.367155       0.025718
     20 H                     0.181944      -0.001352
     21 H                     0.199919      -0.002047
     22 H                     0.200085      -0.003369
     23 H                     0.179123      -0.000556
     24 H                     0.240644      -0.006270
     25 H                     0.369413      -0.003656
     26 H                     0.330207      -0.002432
     27 H                     0.260862      -0.001105
  --------------------------------------------------------
  Sum of atomic charges =    -1.000000

                    Cartesian Multipole Moments
 -----------------------------------------------------------------
    Charge (ESU x 10^10)
                -4.8032
    Dipole Moment (Debye)
         X      -6.6034      Y      13.9868      Z      -4.0056
       Tot      15.9775
    Quadrupole Moments (Debye-Ang)
        XX    -144.4286     XY      24.1135     YY    -188.8734
        XZ      -9.2496     YZ      22.2472     ZZ    -137.6578

 Total job time:  71.02s(wall), 492.10s(cpu)
        *  Thank you very much for using Q-Chem.  Have a nice day.  *
