 Q-Chem 5.4, Q-Chem, Inc., Pleasanton, CA (2021)
 Q-Chem 5.4.0 for Intel X86 EM64T Linux

User input:
--------------------------------------------------------------
$molecule
-2 1
C                  7.0974530000     -1.8451810000     -0.5879930000
C                  7.6251970000     -0.8160340000     -1.4556560000
C                  6.7586740000      0.2527410000     -1.8964250000
C                  5.4532470000      0.2597420000     -1.4760260000
C                  4.8759160000     -0.7150210000     -0.6288640000
C                  5.7053240000     -1.8175850000     -0.1532830000
C                  5.1501350000     -2.8261860000      0.7095420000
C                  3.7360590000     -2.6562320000      1.0540670000
C                  2.9340960000     -1.5670670000      0.5785600000
C                  3.4844460000     -0.5395580000     -0.2945990000
C                  3.1238700000     -3.6130050000      1.8994260000
C                  1.7951630000     -3.5228000000      2.2699910000
C                  1.0052880000     -2.4445690000      1.7978960000
C                  1.5770520000     -1.4959410000      0.9712410000
O                  5.7891150000     -3.8369770000      1.1839720000
O                  2.7639630000      0.4324490000     -0.7174160000
H                  4.7808360000      1.0528140000     -1.7934280000
H                  3.7566820000     -4.4249310000      2.2425890000
H                  1.0067520000     -0.6553140000      0.5883900000
C                  7.2791750000      1.3398430000     -2.8011290000
H                 -0.0420050000     -2.3659960000      2.0848390000
C                  8.9770670000     -0.8707840000     -1.8593270000
C                  8.0048770000     -2.8641470000     -0.1952640000
C                  9.3342570000     -2.8799820000     -0.6177180000
C                  9.8489010000     -1.8880470000     -1.4556280000
C                 11.2890040000     -1.9021400000     -1.9116760000
H                  1.3561480000     -4.2764770000      2.9217780000
H                  8.1156530000      1.8998740000     -2.3519290000
H                  6.4822000000      2.0552810000     -3.0249940000
H                  7.6564900000      0.9478940000     -3.7598770000
H                  9.3585870000     -0.0897830000     -2.5116630000
H                  7.6112890000     -3.6349030000      0.4536130000
H                  9.9843220000     -3.6884240000     -0.2833780000
H                 11.8383270000     -1.0083520000     -1.5797890000
H                 11.3758700000     -1.9339970000     -3.0079470000
H                 11.8162410000     -2.7767440000     -1.5152360000
$end
$rem
MAX_SCF_CYCLES=200
BASIS  =  6-311++G(d,p)
GUI  =  2
JOB_TYPE  =  SP
METHOD  =  B3LYP
SOLVENT_METHOD = PCM
$end
$pcm
theory = CPCM
$end
$solvent
dielectric 37.219
opticaldielectric 1.43
$end

--------------------------------------------------------------

             Standard Nuclear Orientation (Angstroms)
    I     Atom           X                Y                Z
 ----------------------------------------------------------------
    1      C       7.0974530000    -1.8451810000    -0.5879930000
    2      C       7.6251970000    -0.8160340000    -1.4556560000
    3      C       6.7586740000     0.2527410000    -1.8964250000
    4      C       5.4532470000     0.2597420000    -1.4760260000
    5      C       4.8759160000    -0.7150210000    -0.6288640000
    6      C       5.7053240000    -1.8175850000    -0.1532830000
    7      C       5.1501350000    -2.8261860000     0.7095420000
    8      C       3.7360590000    -2.6562320000     1.0540670000
    9      C       2.9340960000    -1.5670670000     0.5785600000
   10      C       3.4844460000    -0.5395580000    -0.2945990000
   11      C       3.1238700000    -3.6130050000     1.8994260000
   12      C       1.7951630000    -3.5228000000     2.2699910000
   13      C       1.0052880000    -2.4445690000     1.7978960000
   14      C       1.5770520000    -1.4959410000     0.9712410000
   15      O       5.7891150000    -3.8369770000     1.1839720000
   16      O       2.7639630000     0.4324490000    -0.7174160000
   17      H       4.7808360000     1.0528140000    -1.7934280000
   18      H       3.7566820000    -4.4249310000     2.2425890000
   19      H       1.0067520000    -0.6553140000     0.5883900000
   20      C       7.2791750000     1.3398430000    -2.8011290000
   21      H      -0.0420050000    -2.3659960000     2.0848390000
   22      C       8.9770670000    -0.8707840000    -1.8593270000
   23      C       8.0048770000    -2.8641470000    -0.1952640000
   24      C       9.3342570000    -2.8799820000    -0.6177180000
   25      C       9.8489010000    -1.8880470000    -1.4556280000
   26      C      11.2890040000    -1.9021400000    -1.9116760000
   27      H       1.3561480000    -4.2764770000     2.9217780000
   28      H       8.1156530000     1.8998740000    -2.3519290000
   29      H       6.4822000000     2.0552810000    -3.0249940000
   30      H       7.6564900000     0.9478940000    -3.7598770000
   31      H       9.3585870000    -0.0897830000    -2.5116630000
   32      H       7.6112890000    -3.6349030000     0.4536130000
   33      H       9.9843220000    -3.6884240000    -0.2833780000
   34      H      11.8383270000    -1.0083520000    -1.5797890000
   35      H      11.3758700000    -1.9339970000    -3.0079470000
   36      H      11.8162410000    -2.7767440000    -1.5152360000
 ----------------------------------------------------------------

    9    -921.5294766169      2.37e-06  Convergence criterion met
 Total energy in the final basis set =     -921.5294766169

                    Orbital Energies (a.u.)
 --------------------------------------------------------------

 Alpha MOs
 -- Occupied --
-19.0264 -19.0238 -10.1795 -10.1793 -10.1620 -10.1614 -10.1610 -10.1547
-10.1529 -10.1524 -10.1518 -10.1505 -10.1494 -10.1490 -10.1488 -10.1478
-10.1420 -10.1411 -10.1411 -10.1392 -10.1384 -10.1322  -0.9475  -0.9439
 -0.8482  -0.8293  -0.8044  -0.7674  -0.7493  -0.7255  -0.7240  -0.7089
 -0.6824  -0.6612  -0.6319  -0.6015  -0.5917  -0.5746  -0.5592  -0.5290
 -0.5108  -0.4861  -0.4734  -0.4608  -0.4430  -0.4336  -0.4180  -0.4137
 -0.4097  -0.4077  -0.4021  -0.4011  -0.3883  -0.3821  -0.3793  -0.3702
 -0.3666  -0.3621  -0.3591  -0.3503  -0.3448  -0.3319  -0.3283  -0.3195
 -0.3139  -0.3106  -0.3000  -0.2837  -0.2487  -0.2332  -0.2284  -0.2224
 -0.2066  -0.1953  -0.1910  -0.1123

          Ground-State Mulliken Net Atomic Charges

     Atom                 Charge (a.u.)
  ----------------------------------------
      1 C                     0.658702
      2 C                     0.535804
      3 C                     0.515891
      4 C                    -0.277206
      5 C                     0.258012
      6 C                     0.426936
      7 C                    -0.702527
      8 C                     0.170059
      9 C                     0.266131
     10 C                    -0.479987
     11 C                     0.012795
     12 C                    -0.535272
     13 C                    -0.411792
     14 C                    -0.090379
     15 O                    -0.623390
     16 O                    -0.659449
     17 H                     0.095674
     18 H                     0.148256
     19 H                     0.144856
     20 C                    -0.417330
     21 H                     0.178772
     22 C                    -0.356805
     23 C                    -0.881676
     24 C                    -1.068228
     25 C                    -0.095145
     26 C                    -0.406624
     27 H                     0.177769
     28 H                     0.154905
     29 H                     0.172107
     30 H                     0.154991
     31 H                     0.112409
     32 H                     0.145625
     33 H                     0.167039
     34 H                     0.173443
     35 H                     0.171411
     36 H                     0.164219
  ----------------------------------------
  Sum of atomic charges =    -2.000006

                    Cartesian Multipole Moments
 -----------------------------------------------------------------
    Charge (ESU x 10^10)
                -9.6064
    Dipole Moment (Debye)
         X     -44.1086      Y      16.4106      Z      -1.2904
       Tot      47.0802
    Quadrupole Moments (Debye-Ang)
        XX    -372.3284     XY      94.2405     YY    -197.4826
        XZ      -9.9800     YZ      13.8158     ZZ    -149.8597

 Total job time:  128.47s(wall), 678.36s(cpu)
        *  Thank you very much for using Q-Chem.  Have a nice day.  *
