 Q-Chem 5.4, Q-Chem, Inc., Pleasanton, CA (2021)
 Q-Chem 5.4.0 for Intel X86 EM64T Linux

User input:
--------------------------------------------------------------
$molecule
0 1
C                  4.9029970000     -2.8623300000     -0.3630670000
C                  5.6242480000     -1.9593240000     -1.1344150000
C                  5.0332520000     -0.7631140000     -1.5522490000
C                  3.5821630000     -2.5776760000     -0.0015730000
C                  2.9874270000     -1.3738800000     -0.4220410000
C                  3.7217120000     -0.4713050000     -1.1982320000
C                  2.8258940000     -3.5522360000      0.8221110000
C                  1.4474290000     -3.2304490000      1.1860720000
C                  0.8433200000     -2.0076170000      0.7590090000
C                  1.5884370000     -1.0473370000     -0.0526500000
C                  0.7096640000     -4.1371010000      1.9658330000
C                 -0.6241450000     -3.8250770000      2.3177490000
C                 -0.4835350000     -1.7216860000      1.1223230000
C                 -1.2040090000     -2.6512800000      1.9078190000
O                  3.3609220000     -4.6119130000      1.1879220000
O                  1.0732700000      0.0183050000     -0.4294500000
O                  1.2072560000     -5.2999230000      2.4018010000
H                  5.3415860000     -3.7941920000     -0.0291290000
H                  6.6476550000     -2.1836850000     -1.4124840000
H                  5.5989310000     -0.0609540000     -2.1539160000
H                  3.2452170000      0.4491570000     -1.5111740000
H                  2.1378360000     -5.3571370000      2.0691330000
O                 -1.1148320000     -0.5990540000      0.7603470000
H                 -2.2252320000     -2.4069470000      2.1743360000
H                 -1.1710960000     -4.5408630000      2.9195170000
H                 -0.4740780000     -0.0693730000      0.2229680000
$end

$rem
BASIS  =  6-311++G(d,p)
GUI  =  2
JOB_TYPE  =  SP
METHOD  =  B3LYP
SCF_CONVERGENCE  = 8
SOLVENT_METHOD = sm12
$end

$smx
solvent dimethylformamide
charges CM5
$end

--------------------------------------------------------------

             Standard Nuclear Orientation (Angstroms)
    I     Atom           X                Y                Z
 ----------------------------------------------------------------
    1      C       4.9029970000    -2.8623300000    -0.3630670000
    2      C       5.6242480000    -1.9593240000    -1.1344150000
    3      C       5.0332520000    -0.7631140000    -1.5522490000
    4      C       3.5821630000    -2.5776760000    -0.0015730000
    5      C       2.9874270000    -1.3738800000    -0.4220410000
    6      C       3.7217120000    -0.4713050000    -1.1982320000
    7      C       2.8258940000    -3.5522360000     0.8221110000
    8      C       1.4474290000    -3.2304490000     1.1860720000
    9      C       0.8433200000    -2.0076170000     0.7590090000
   10      C       1.5884370000    -1.0473370000    -0.0526500000
   11      C       0.7096640000    -4.1371010000     1.9658330000
   12      C      -0.6241450000    -3.8250770000     2.3177490000
   13      C      -0.4835350000    -1.7216860000     1.1223230000
   14      C      -1.2040090000    -2.6512800000     1.9078190000
   15      O       3.3609220000    -4.6119130000     1.1879220000
   16      O       1.0732700000     0.0183050000    -0.4294500000
   17      O       1.2072560000    -5.2999230000     2.4018010000
   18      H       5.3415860000    -3.7941920000    -0.0291290000
   19      H       6.6476550000    -2.1836850000    -1.4124840000
   20      H       5.5989310000    -0.0609540000    -2.1539160000
   21      H       3.2452170000     0.4491570000    -1.5111740000
   22      H       2.1378360000    -5.3571370000     2.0691330000
   23      O      -1.1148320000    -0.5990540000     0.7603470000
   24      H      -2.2252320000    -2.4069470000     2.1743360000
   25      H      -1.1710960000    -4.5408630000     2.9195170000
   26      H      -0.4740780000    -0.0693730000     0.2229680000
 ----------------------------------------------------------------

   15    -839.4699965458      2.21e-09  Convergence criterion met
 Total energy in the final basis set =     -839.4947696747

                    Orbital Energies (a.u.)
 --------------------------------------------------------------

 Alpha MOs
 -- Occupied --
-19.1647 -19.1647 -19.1379 -19.1379 -10.2881 -10.2881 -10.2695 -10.2695
-10.2120 -10.2116 -10.2116 -10.2111 -10.2063 -10.2056 -10.1988 -10.1986
-10.1982 -10.1979  -1.0942  -1.0926  -1.0612  -1.0599  -0.8968  -0.8807
 -0.8209  -0.7820  -0.7777  -0.7678  -0.7043  -0.6735  -0.6630  -0.6342
 -0.6057  -0.5733  -0.5629  -0.5572  -0.5422  -0.5041  -0.4959  -0.4900
 -0.4727  -0.4657  -0.4552  -0.4526  -0.4509  -0.4407  -0.4374  -0.4314
 -0.4290  -0.4050  -0.3914  -0.3870  -0.3832  -0.3784  -0.3689  -0.3357
 -0.2985  -0.2964  -0.2826  -0.2805  -0.2799  -0.2362

          Ground-State Mulliken Net Atomic Charges

     Atom                 Charge (a.u.)
  ----------------------------------------
      1 C                     0.348892
      2 C                     0.368491
      3 C                     0.368069
      4 C                    -0.319840
      5 C                    -0.319672
      6 C                     0.349066
      7 C                    -0.780418
      8 C                     0.108903
      9 C                     0.109481
     10 C                    -0.780187
     11 C                    -0.791776
     12 C                     0.556223
     13 C                    -0.793348
     14 C                     0.556501
     15 O                    -0.319990
     16 O                    -0.320330
     17 O                    -0.319350
     18 H                     0.214137
     19 H                     0.325232
     20 H                     0.325166
     21 H                     0.214060
     22 H                     0.299717
     23 O                    -0.319175
     24 H                     0.310072
     25 H                     0.310242
     26 H                     0.299833
  ----------------------------------------
  Sum of atomic charges =     0.000000

                    Cartesian Multipole Moments
 -----------------------------------------------------------------
    Charge (ESU x 10^10)
                 0.0000
    Dipole Moment (Debye)
         X       2.2949      Y       0.6894      Z      -1.2700
       Tot       2.7119
    Quadrupole Moments (Debye-Ang)
        XX     -78.4992     XY       5.9747     YY    -114.9954
        XZ     -13.6115     YZ       3.0586     ZZ    -101.4104

 Total job time:  520.56s(wall), 4062.75s(cpu)
        *  Thank you very much for using Q-Chem.  Have a nice day.  *
