 Gaussian 16, Revision A.03,
 Gaussian 16:  ES64L-G16RevA.03 25-Dec-2016

 ----------------------------------------------------------------------
 #P UB3LYP/6-311++G(d,p) nosym opt freq SCRF=(PCM,Solvent=n,n-DiMethylF
 ormamide)
 ----------------------------------------------------------------------

 --------
 Oxidized
 --------
 Symbolic Z-matrix:
 Charge =  0 Multiplicity = 1

 SCF Done:  E(UB3LYP) =  -420.903374993     A.U. after   14 cycles
 SCF Done:  E(UB3LYP) =  -420.903457733     A.U. after   11 cycles
 SCF Done:  E(UB3LYP) =  -420.903468207     A.U. after   10 cycles
 SCF Done:  E(UB3LYP) =  -420.903466744     A.U. after   10 cycles
 SCF Done:  E(UB3LYP) =  -420.903467866     A.U. after   10 cycles
 Optimization completed.
    -- Stationary point found.
 Normal termination of Gaussian 16 at Sat Feb 10 10:04:53 2024.

 ----------------------------------------------------------------------
 #P Geom=AllCheck Guess=TCheck SCRF=Check GenChk UB3LYP/6-311++G(d,p) F
 req
 ----------------------------------------------------------------------

 Structure from the checkpoint file:  "032.chk"
 --------
 Oxidized
 --------
 Charge =  0 Multiplicity = 1

                          Input orientation:
 ---------------------------------------------------------------------
 Center     Atomic      Atomic             Coordinates (Angstroms)
 Number     Number       Type             X           Y           Z
 ---------------------------------------------------------------------
      1          6           0       -2.227558   -0.375667    0.002679
      2          6           0       -0.764151   -0.063109   -0.001389
      3          6           0       -0.266447    1.187092   -0.039136
      4          6           0        1.182025    1.467025   -0.040838
      5          8           0        1.608026    2.617116   -0.075936
      6          6           0        2.112464    0.313509   -0.000948
      7          6           0        1.643870   -0.939309    0.036771
      8          6           0        0.188051   -1.220021    0.039530
      9          8           0       -0.221995   -2.372403    0.073332
     10          1           0       -2.496886   -0.942084    0.898567
     11          1           0       -2.489204   -1.001835   -0.854859
     12          1           0       -2.821206    0.537723   -0.030909
     13          1           0       -0.915675    2.055741   -0.069544
     14          1           0        3.172354    0.540731   -0.003867
     15          1           0        2.296333   -1.804506    0.066547
 ---------------------------------------------------------------------

 SCF Done:  E(UB3LYP) =  -420.903467866     A.U. after    1 cycles

 Alpha  occ. eigenvalues --  -19.14692 -19.14338 -10.29046 -10.28810 -10.22394
 Alpha  occ. eigenvalues --  -10.21454 -10.21370 -10.20608 -10.18031  -1.07553
 Alpha  occ. eigenvalues --   -1.07006  -0.86960  -0.81152  -0.73378  -0.69731
 Alpha  occ. eigenvalues --   -0.63308  -0.59773  -0.52955  -0.51267  -0.48681
 Alpha  occ. eigenvalues --   -0.46167  -0.45757  -0.44618  -0.43189  -0.42804
 Alpha  occ. eigenvalues --   -0.41184  -0.40602  -0.39465  -0.31473  -0.29496
 Alpha  occ. eigenvalues --   -0.29420  -0.28341
 Alpha virt. eigenvalues --   -0.13864  -0.03171  -0.00629  -0.00453   0.00796
 Alpha virt. eigenvalues --    0.01373   0.03304   0.03534   0.03632   0.05497
 Alpha virt. eigenvalues --    0.06654   0.06671   0.07186   0.07422   0.09070

  Beta  occ. eigenvalues --  -19.14692 -19.14338 -10.29046 -10.28810 -10.22394
  Beta  occ. eigenvalues --  -10.21454 -10.21370 -10.20608 -10.18031  -1.07553
  Beta  occ. eigenvalues --   -1.07006  -0.86960  -0.81152  -0.73378  -0.69731
  Beta  occ. eigenvalues --   -0.63308  -0.59773  -0.52955  -0.51267  -0.48681
  Beta  occ. eigenvalues --   -0.46167  -0.45757  -0.44618  -0.43189  -0.42804
  Beta  occ. eigenvalues --   -0.41184  -0.40602  -0.39465  -0.31473  -0.29496
  Beta  occ. eigenvalues --   -0.29420  -0.28341
  Beta virt. eigenvalues --   -0.13864  -0.03171  -0.00629  -0.00453   0.00796
  Beta virt. eigenvalues --    0.01373   0.03304   0.03534   0.03632   0.05497
  Beta virt. eigenvalues --    0.06654   0.06671   0.07186   0.07422   0.09070

 Mulliken charges and spin densities:
               1          2
     1  C   -0.374057   0.000000
     2  C    1.455447  -0.000000
     3  C   -0.874270   0.000000
     4  C   -0.328243  -0.000000
     5  O   -0.305178   0.000000
     6  C    0.136786   0.000000
     7  C    0.210752  -0.000000
     8  C   -0.892244   0.000000
     9  O   -0.271024  -0.000000
    10  H    0.187661  -0.000000
    11  H    0.187383  -0.000000
    12  H    0.169805  -0.000000
    13  H    0.210951   0.000000
    14  H    0.243843   0.000000
    15  H    0.242387   0.000000
 Sum of Mulliken charges =  -0.00000   0.00000

 Dipole moment (field-independent basis, Debye):
    X=             -0.8726    Y=             -0.5960    Z=              0.0181  Tot=              1.0569
 Quadrupole moment (field-independent basis, Debye-Ang):
   XX=            -45.4020   YY=            -70.8155   ZZ=            -52.0782
   XY=             -9.6691   XZ=              0.3315   YZ=              0.5483

  Exact polarizability: 120.358  34.359 177.321  -0.851  -3.456  63.574
 Approx polarizability: 129.561  56.474 242.367  -1.555  -5.093  74.095

                      1                      2                      3
                      A                      A                      A
 Frequencies --     80.0620               133.9925               175.9096
 Red. masses --      7.5689                 1.3702                 2.0624
 Frc consts  --      0.0286                 0.0145                 0.0376
 IR Inten    --     22.1800                 0.0268                 1.1220

                      4                      5                      6
                      A                      A                      A
 Frequencies --    254.6655               290.8076               389.2053
 Red. masses --      4.0900                 3.1961                 3.0590
 Frc consts  --      0.1563                 0.1593                 0.2730
 IR Inten    --      0.2517                 1.0999                 1.9402

                      7                      8                      9
                      A                      A                      A
 Frequencies --    400.2772               442.2426               487.7687
 Red. masses --      8.9502                 7.8772                 6.8802
 Frc consts  --      0.8449                 0.9077                 0.9644
 IR Inten    --     33.9398                 7.2576                 1.1723

                     10                     11                     12
                      A                      A                      A
 Frequencies --    583.7751               586.6034               682.3147
 Red. masses --      4.4561                 2.1552                 6.2134
 Frc consts  --      0.8947                 0.4370                 1.7043
 IR Inten    --      1.1640                 0.3418                 4.2985

                     13                     14                     15
                      A                      A                      A
 Frequencies --    769.3938               788.3001               812.6378
 Red. masses --      4.0134                 5.4312                 1.5142
 Frc consts  --      1.3998                 1.9885                 0.5892
 IR Inten    --      0.2546                 0.2908                24.1275

                     16                     17                     18
                      A                      A                      A
 Frequencies --    891.4787               920.2710              1007.9377
 Red. masses --      3.8674                 1.6319                 1.2459
 Frc consts  --      1.8109                 0.8143                 0.7458
 IR Inten    --     24.1635                81.4798                 0.0182

                     19                     20                     21
                      A                      A                      A
 Frequencies --   1015.2370              1056.0897              1106.3387
 Red. masses --      1.7211                 1.5446                 1.8413
 Frc consts  --      1.0452                 1.0150                 1.3279
 IR Inten    --     56.5919                 3.9882                59.5496

                     22                     23                     24
                      A                      A                      A
 Frequencies --   1152.4823              1236.9280              1299.6154
 Red. masses --      1.7831                 1.6686                 3.4774
 Frc consts  --      1.3954                 1.5041                 3.4605
 IR Inten    --     18.1715                10.7291               155.6474

                     25                     26                     27
                      A                      A                      A
 Frequencies --   1362.3014              1390.9136              1408.7440
 Red. masses --      2.0339                 1.9026                 1.3328
 Frc consts  --      2.2240                 2.1687                 1.5584
 IR Inten    --     30.8891                 0.7114                18.4133

                     28                     29                     30
                      A                      A                      A
 Frequencies --   1458.6963              1470.2536              1648.4102
 Red. masses --      1.0430                 1.0736                 7.5105
 Frc consts  --      1.3075                 1.3673                12.0240
 IR Inten    --     14.3099                25.1357               104.9186

                     31                     32                     33
                      A                      A                      A
 Frequencies --   1672.5872              1686.3581              1712.6802
 Red. masses --     10.5850                10.5861                 7.9742
 Frc consts  --     17.4469                17.7373                13.7812
 IR Inten    --     33.1686              1194.4149                10.2014

                     34                     35                     36
                      A                      A                      A
 Frequencies --   3035.9976              3086.3662              3127.0620
 Red. masses --      1.0367                 1.0992                 1.1024
 Frc consts  --      5.6300                 6.1690                 6.3512
 IR Inten    --      9.2549                10.2969                16.1212

                     37                     38                     39
                      A                      A                      A
 Frequencies --   3177.2545              3182.0966              3198.7197
 Red. masses --      1.0924                 1.0876                 1.0998
 Frc consts  --      6.4971                 6.4886                 6.6300
 IR Inten    --      6.3748                 3.7625                 2.9717

 - Thermochemistry -
 -------------------
 Temperature   298.150 Kelvin.  Pressure   1.00000 Atm.
 Atom     1 has atomic number  6 and mass  12.00000

 Molecular mass:   122.03678 amu.
 Principal axes and moments of inertia in atomic units:
                           1         2         3
     Eigenvalues --   612.049251252.681881853.65280
           X            0.60540   0.79591  -0.00424
           Y            0.79560  -0.60500   0.03151
           Z           -0.02252   0.02245   0.99949
 This molecule is an asymmetric top.
 Rotational symmetry number  1.
 Warning -- assumption of classical behavior for rotation
           may cause significant error
 Rotational temperatures (Kelvin)      0.14151     0.06914     0.04673
 Rotational constants (GHZ):           2.94869     1.44070     0.97361
 Zero-point vibrational energy     294178.3 (Joules/Mol)
                                   70.31031 (Kcal/Mol)
 Warning -- explicit consideration of  11 degrees of freedom as
           vibrations may cause significant error
 Vibrational temperatures:    115.19   192.79   253.09   366.41   418.41
          (Kelvin)            559.98   575.91   636.29   701.79   839.92
                              843.99   981.70  1106.99  1134.19  1169.20
                             1282.64  1324.06  1450.20  1460.70  1519.48
                             1591.77  1658.16  1779.66  1869.86  1960.05
                             2001.21  2026.87  2098.74  2115.37  2371.69
                             2406.48  2426.29  2464.16  4368.12  4440.59
                             4499.14  4571.36  4578.33  4602.24

 Zero-point correction=                           0.112047 (Hartree/Particle)
 Thermal correction to Energy=                    0.119990
 Thermal correction to Enthalpy=                  0.120934
 Thermal correction to Gibbs Free Energy=         0.079323
 Sum of electronic and zero-point Energies=           -420.791421
 Sum of electronic and thermal Energies=              -420.783478
 Sum of electronic and thermal Enthalpies=            -420.782534
 Sum of electronic and thermal Free Energies=         -420.824145

                     E (Thermal)             CV                S
                      KCal/Mol        Cal/Mol-Kelvin    Cal/Mol-Kelvin
 Total                   75.295             29.310             87.578
 Electronic               0.000              0.000              0.000
 Translational            0.889              2.981             40.312
 Rotational               0.889              2.981             28.743
 Vibrational             73.517             23.348             18.524
 Vibration     1          0.600              1.963              3.889
 Vibration     2          0.613              1.919              2.888
 Vibration     3          0.628              1.872              2.371
 Vibration     4          0.665              1.755              1.698
 Vibration     5          0.687              1.691              1.469
 Vibration     6          0.757              1.493              1.003
 Vibration     7          0.766              1.470              0.962
 Vibration     8          0.802              1.378              0.820
 Vibration     9          0.844              1.277              0.689
 Vibration    10          0.941              1.066              0.478
 Vibration    11          0.944              1.060              0.473

 Optimization completed.
    -- Stationary point found.
 Normal termination of Gaussian 16 at Sat Feb 10 10:09:17 2024.
