 Gaussian 16, Revision A.03,
 Gaussian 16:  ES64L-G16RevA.03 25-Dec-2016

 ----------------------------------------------------------------------
 #P UB3LYP/6-311++G(d,p) nosym opt freq SCRF=(PCM,Solvent=n,n-DiMethylF
 ormamide)
 ----------------------------------------------------------------------

 -------
 Radical
 -------
 Symbolic Z-matrix:
 Charge = -1 Multiplicity = 2

 SCF Done:  E(UB3LYP) =  -1302.37909755     A.U. after   22 cycles
 SCF Done:  E(UB3LYP) =  -1302.37931356     A.U. after   17 cycles
 SCF Done:  E(UB3LYP) =  -1302.37934136     A.U. after   16 cycles
 SCF Done:  E(UB3LYP) =  -1302.37935768     A.U. after   14 cycles
 SCF Done:  E(UB3LYP) =  -1302.37935877     A.U. after   12 cycles
 SCF Done:  E(UB3LYP) =  -1302.37935997     A.U. after   11 cycles
 SCF Done:  E(UB3LYP) =  -1302.37936045     A.U. after   10 cycles
 SCF Done:  E(UB3LYP) =  -1302.37936068     A.U. after   10 cycles
 SCF Done:  E(UB3LYP) =  -1302.37936099     A.U. after   11 cycles
 SCF Done:  E(UB3LYP) =  -1302.37936152     A.U. after   12 cycles
 SCF Done:  E(UB3LYP) =  -1302.37936086     A.U. after   15 cycles
 SCF Done:  E(UB3LYP) =  -1302.37936166     A.U. after   12 cycles
 SCF Done:  E(UB3LYP) =  -1302.37936169     A.U. after   11 cycles
 SCF Done:  E(UB3LYP) =  -1302.37936169     A.U. after    9 cycles
 SCF Done:  E(UB3LYP) =  -1302.37936170     A.U. after   10 cycles
 Optimization completed.
    -- Stationary point found.
 Normal termination of Gaussian 16 at Sat Feb 10 18:08:22 2024.

 ----------------------------------------------------------------------
 #P Geom=AllCheck Guess=TCheck SCRF=Check GenChk UB3LYP/6-311++G(d,p) F
 req
 ----------------------------------------------------------------------

 Structure from the checkpoint file:  "135-rad.chk"
 -------
 Radical
 -------
 Charge = -1 Multiplicity = 2

                          Input orientation:
 ---------------------------------------------------------------------
 Center     Atomic      Atomic             Coordinates (Angstroms)
 Number     Number       Type             X           Y           Z
 ---------------------------------------------------------------------
      1          6           0        5.576248   -4.604009   -1.010026
      2          6           0        6.478479   -4.092388   -1.975144
      3          6           0        6.169448   -2.825955   -2.584741
      4          6           0        4.395399   -3.942732   -0.618987
      5          6           0        4.130973   -2.661132   -1.251648
      6          6           0        5.006627   -2.152276   -2.199521
      7          6           0        3.432274   -4.466728    0.369581
      8          6           0        2.276013   -3.625773    0.685780
      9          6           0        2.038155   -2.367159    0.067214
     10          6           0        2.949870   -1.843366   -0.930433
     11          6           0        1.347492   -4.087871    1.650133
     12          6           0        0.237032   -3.345241    1.993000
     13          6           0        0.004120   -2.094704    1.376283
     14          6           0        0.890970   -1.622219    0.432902
     15          6           0        7.678776   -4.750488   -2.386332
     16          6           0        8.505192   -4.195970   -3.329858
     17          6           0        8.194807   -2.945791   -3.930049
     18          6           0        7.054825   -2.282644   -3.562354
     19          8           0        3.561089   -5.583687    0.934274
     20          8           0        2.751390   -0.736231   -1.501560
     21         17           0        6.040556   -6.158231   -0.294780
     22          1           0        4.766447   -1.195088   -2.646040
     23          1           0        1.536972   -5.047073    2.115048
     24          1           0       -0.458826   -3.719449    2.736152
     25          1           0       -0.869565   -1.511471    1.646148
     26          1           0        0.731199   -0.666836   -0.051828
     27          1           0        7.937194   -5.702286   -1.945120
     28          1           0        9.408710   -4.718939   -3.622650
     29          1           0        8.861260   -2.524424   -4.673785
     30          1           0        6.801575   -1.326790   -4.008559
 ---------------------------------------------------------------------

 SCF Done:  E(UB3LYP) =  -1302.37936170     A.U. after    1 cycles

 Alpha  occ. eigenvalues -- -101.54663 -19.07721 -19.07416 -10.24230 -10.23046
 Alpha  occ. eigenvalues --  -10.22757 -10.19743 -10.19378 -10.19137 -10.18288
 Alpha  occ. eigenvalues --  -10.18223 -10.18158 -10.18040 -10.18013 -10.17600
 Alpha  occ. eigenvalues --  -10.17500 -10.17368 -10.17346 -10.17319 -10.17152
 Alpha  occ. eigenvalues --  -10.17026  -9.46171  -7.22614  -7.21705  -7.21574
 Alpha  occ. eigenvalues --   -1.00412  -1.00132  -0.89762  -0.85850  -0.85447
 Alpha  occ. eigenvalues --   -0.82890  -0.78167  -0.76703  -0.75158  -0.74492
 Alpha  occ. eigenvalues --   -0.72751  -0.66652  -0.65790  -0.62674  -0.60825
 Alpha  occ. eigenvalues --   -0.58721  -0.56016  -0.55647  -0.52889  -0.50697
 Alpha  occ. eigenvalues --   -0.49915  -0.47624  -0.46165  -0.45073  -0.44849
 Alpha  occ. eigenvalues --   -0.43366  -0.43126  -0.42953  -0.42365  -0.41538
 Alpha  occ. eigenvalues --   -0.41352  -0.40755  -0.40010  -0.38437  -0.37805
 Alpha  occ. eigenvalues --   -0.36954  -0.35844  -0.35034  -0.34736  -0.34355
 Alpha  occ. eigenvalues --   -0.33716  -0.31956  -0.31331  -0.28450  -0.26691
 Alpha  occ. eigenvalues --   -0.25758  -0.25209  -0.24642  -0.23261  -0.22936
 Alpha  occ. eigenvalues --   -0.13949
 Alpha virt. eigenvalues --   -0.07910  -0.03082  -0.02676  -0.00418   0.00138
 Alpha virt. eigenvalues --    0.00769   0.00832   0.01477   0.01969   0.02366
 Alpha virt. eigenvalues --    0.02858   0.03521   0.03823   0.04438   0.04788

  Beta  occ. eigenvalues -- -101.54660 -19.07212 -19.06842 -10.24177 -10.22879
  Beta  occ. eigenvalues --  -10.22579 -10.19717 -10.19324 -10.19094 -10.18237
  Beta  occ. eigenvalues --  -10.18231 -10.18150 -10.18026 -10.17977 -10.17595
  Beta  occ. eigenvalues --  -10.17410 -10.17319 -10.17275 -10.17264 -10.17145
  Beta  occ. eigenvalues --  -10.17029  -9.46168  -7.22616  -7.21693  -7.21572
  Beta  occ. eigenvalues --   -0.99470  -0.99173  -0.89643  -0.85626  -0.85393
  Beta  occ. eigenvalues --   -0.82743  -0.77862  -0.76618  -0.74935  -0.74337
  Beta  occ. eigenvalues --   -0.72561  -0.66023  -0.65627  -0.62442  -0.60758
  Beta  occ. eigenvalues --   -0.58665  -0.55777  -0.55427  -0.52799  -0.50605
  Beta  occ. eigenvalues --   -0.49752  -0.47375  -0.46064  -0.45021  -0.44770
  Beta  occ. eigenvalues --   -0.43245  -0.42923  -0.42329  -0.42231  -0.41369
  Beta  occ. eigenvalues --   -0.41008  -0.40386  -0.39323  -0.37682  -0.36872
  Beta  occ. eigenvalues --   -0.36678  -0.35308  -0.34922  -0.34318  -0.33933
  Beta  occ. eigenvalues --   -0.33596  -0.31262  -0.31114  -0.28172  -0.25159
  Beta  occ. eigenvalues --   -0.25015  -0.24595  -0.24168  -0.22771  -0.22281
  Beta virt. eigenvalues --   -0.08360  -0.07104  -0.02334  -0.02126  -0.00407
  Beta virt. eigenvalues --    0.00145   0.00822   0.01004   0.01486   0.01971
  Beta virt. eigenvalues --    0.02396   0.03525   0.03549   0.03836   0.04620

 Mulliken charges and spin densities:
               1          2
     1  C    0.545394   0.038306
     2  C    0.456105   0.014103
     3  C    1.109289   0.035483
     4  C    0.229202   0.022327
     5  C    0.725243   0.018241
     6  C    0.093479   0.014023
     7  C   -1.973139   0.091438
     8  C   -0.252390   0.062844
     9  C    0.489101   0.039002
    10  C   -0.677067   0.093562
    11  C    0.151908   0.030831
    12  C   -0.463675   0.044640
    13  C   -0.480275   0.037223
    14  C    0.123557   0.030729
    15  C   -1.157525   0.011047
    16  C   -0.692459   0.005614
    17  C   -0.285627   0.030621
    18  C   -0.255084  -0.011300
    19  O   -0.340085   0.212074
    20  O   -0.441887   0.190763
    21  Cl   0.531766   0.001696
    22  H    0.137431  -0.001857
    23  H    0.167693  -0.001537
    24  H    0.183151  -0.003383
    25  H    0.184235  -0.002999
    26  H    0.161862  -0.001253
    27  H    0.172097  -0.000360
    28  H    0.199630  -0.000719
    29  H    0.188491  -0.002326
    30  H    0.169581   0.001166
 Sum of Mulliken charges =  -1.00000   1.00000

 Dipole moment (field-independent basis, Debye):
    X=            -16.1042    Y=             17.1398    Z=              0.7398  Tot=             23.5301
 Quadrupole moment (field-independent basis, Debye-Ang):
   XX=           -181.3691   YY=           -220.1686   ZZ=           -134.0246
   XY=             64.6415   XZ=             -8.3278   YZ=              6.5717

  Exact polarizability: 561.164-102.944 416.816-216.973 -88.456 373.524
 Approx polarizability: 567.144-102.128 481.862-203.051-113.500 405.867

                      1                      2                      3
                      A                      A                      A
 Frequencies --     20.5836                35.6409                85.6839
 Red. masses --     11.3515                 7.1821                 4.6587
 Frc consts  --      0.0028                 0.0054                 0.0202
 IR Inten    --      4.9547                 6.4815                 2.1763

                      4                      5                      6
                      A                      A                      A
 Frequencies --    122.1941               130.4652               159.8365
 Red. masses --      4.6405                 6.3614                 6.5077
 Frc consts  --      0.0408                 0.0638                 0.0980
 IR Inten    --      0.2123                 2.0624                14.2258

                      7                      8                      9
                      A                      A                      A
 Frequencies --    178.9189               239.4073               272.1167
 Red. masses --      6.2934                10.9877                 5.1246
 Frc consts  --      0.1187                 0.3711                 0.2236
 IR Inten    --      2.0324                 0.3388                 3.5687

                     10                     11                     12
                      A                      A                      A
 Frequencies --    275.5031               286.9252               304.5186
 Red. masses --      7.1367                 5.8466                 7.6497
 Frc consts  --      0.3192                 0.2836                 0.4179
 IR Inten    --      0.9536                 0.3634                 2.1098

                     13                     14                     15
                      A                      A                      A
 Frequencies --    333.4694               388.5468               406.0594
 Red. masses --     12.5784                11.4382                 8.2764
 Frc consts  --      0.8241                 1.0174                 0.8040
 IR Inten    --      1.0029                22.2763                 7.8972

                     16                     17                     18
                      A                      A                      A
 Frequencies --    422.7077               432.2605               463.4327
 Red. masses --      3.4922                 5.8113                 3.2737
 Frc consts  --      0.3676                 0.6398                 0.4142
 IR Inten    --      0.3683                 0.1817                21.0336

                     19                     20                     21
                      A                      A                      A
 Frequencies --    484.2424               487.9813               520.0928
 Red. masses --     11.4160                 7.4622                 4.0116
 Frc consts  --      1.5772                 1.0469                 0.6393
 IR Inten    --      1.4485                11.5026                 0.3142

                     22                     23                     24
                      A                      A                      A
 Frequencies --    546.7308               584.2067               589.3449
 Red. masses --      3.7354                 7.9961                 7.3486
 Frc consts  --      0.6579                 1.6079                 1.5038
 IR Inten    --      7.3455                10.8899                27.8784

                     25                     26                     27
                      A                      A                      A
 Frequencies --    607.7080               650.0343               674.4473
 Red. masses --      4.8661                 6.6945                 6.4196
 Frc consts  --      1.0588                 1.6666                 1.7205
 IR Inten    --      0.1631                 0.3927                45.4842

                     28                     29                     30
                      A                      A                      A
 Frequencies --    709.3956               712.2903               728.8649
 Red. masses --      3.3834                 3.2152                 7.2727
 Frc consts  --      1.0032                 0.9611                 2.2764
 IR Inten    --     28.5254                43.1701                34.6077

                     31                     32                     33
                      A                      A                      A
 Frequencies --    745.9317               756.7958               767.9344
 Red. masses --      7.2249                 1.7311                 2.3134
 Frc consts  --      2.3685                 0.5841                 0.8038
 IR Inten    --     63.6832                88.1796                45.7242

                     34                     35                     36
                      A                      A                      A
 Frequencies --    791.7754               812.7203               838.9465
 Red. masses --      1.9376                 4.6895                 6.2936
 Frc consts  --      0.7157                 1.8250                 2.6099
 IR Inten    --     21.9304                 4.1471                65.9968

                     37                     38                     39
                      A                      A                      A
 Frequencies --    862.1069               862.7277               884.0932
 Red. masses --      6.1537                 1.4963                 1.5144
 Frc consts  --      2.6947                 0.6562                 0.6974
 IR Inten    --      7.9506                 1.7234                 0.2873

                     40                     41                     42
                      A                      A                      A
 Frequencies --    936.5804               957.4697               979.6936
 Red. masses --      1.4736                 5.9932                 7.5225
 Frc consts  --      0.7616                 3.2371                 4.2540
 IR Inten    --     25.2587                52.0051                33.2404

                     43                     44                     45
                      A                      A                      A
 Frequencies --    983.4537               991.4518               999.9652
 Red. masses --      1.3603                 1.3610                 1.2903
 Frc consts  --      0.7752                 0.7882                 0.7602
 IR Inten    --      4.7161                 3.2140                 0.0520

                     46                     47                     48
                      A                      A                      A
 Frequencies --   1002.2586              1035.1430              1041.9215
 Red. masses --      1.2905                 2.2480                 1.9928
 Frc consts  --      0.7638                 1.4192                 1.2746
 IR Inten    --      0.0961                90.8796                13.8744

                     49                     50                     51
                      A                      A                      A
 Frequencies --   1092.8646              1116.8374              1144.1250
 Red. masses --      5.2962                 1.9928                 1.5401
 Frc consts  --      3.7269                 1.4645                 1.1878
 IR Inten    --    128.6675               239.7501                51.0051

                     52                     53                     54
                      A                      A                      A
 Frequencies --   1166.3595              1177.7517              1181.1820
 Red. masses --      1.3741                 1.8585                 1.3742
 Frc consts  --      1.1014                 1.5188                 1.1296
 IR Inten    --     60.3997                19.1236                15.5793

                     55                     56                     57
                      A                      A                      A
 Frequencies --   1212.4850              1215.6141              1248.6731
 Red. masses --      1.8707                 2.0919                 3.5658
 Frc consts  --      1.6203                 1.8213                 3.2757
 IR Inten    --    263.6669               103.1680                47.3606

                     58                     59                     60
                      A                      A                      A
 Frequencies --   1269.2265              1293.2060              1339.3896
 Red. masses --      2.2549                 3.7192                 4.5803
 Frc consts  --      2.1402                 3.6646                 4.8413
 IR Inten    --     17.6262               573.4918                43.0452

                     61                     62                     63
                      A                      A                      A
 Frequencies --   1346.1889              1370.0471              1383.8279
 Red. masses --      2.3690                10.1921                 3.5739
 Frc consts  --      2.5294                11.2716                 4.0323
 IR Inten    --   1027.4297                17.8082               269.2802

                     64                     65                     66
                      A                      A                      A
 Frequencies --   1396.9610              1430.7585              1474.1048
 Red. masses --      4.1243                 3.4726                 3.3033
 Frc consts  --      4.7421                 4.1883                 4.2292
 IR Inten    --   1386.5551               323.9867               220.8747

                     67                     68                     69
                      A                      A                      A
 Frequencies --   1478.4250              1484.3043              1502.5984
 Red. masses --      2.7038                 2.8943                 3.0443
 Frc consts  --      3.4820                 3.7570                 4.0497
 IR Inten    --     36.8506               490.0357               101.2551

                     70                     71                     72
                      A                      A                      A
 Frequencies --   1536.8919              1560.9413              1593.9775
 Red. masses --      6.4583                 6.6466                 7.6357
 Frc consts  --      8.9878                 9.5417                11.4305
 IR Inten    --      6.2670               126.1817               100.0215

                     73                     74                     75
                      A                      A                      A
 Frequencies --   1607.2559              1628.3486              1644.8123
 Red. masses --      6.9027                 6.0529                 5.5255
 Frc consts  --     10.5061                 9.4560                 8.8075
 IR Inten    --     34.3622                11.6419                 9.9944

                     76                     77                     78
                      A                      A                      A
 Frequencies --   3160.1056              3163.9663              3172.7273
 Red. masses --      1.0862                 1.0864                 1.0903
 Frc consts  --      6.3906                 6.4078                 6.4664
 IR Inten    --     20.2767                 1.4846                29.1751

                     79                     80                     81
                      A                      A                      A
 Frequencies --   3174.3253              3187.4976              3189.0503
 Red. masses --      1.0907                 1.0951                 1.0906
 Frc consts  --      6.4750                 6.5553                 6.5348
 IR Inten    --     24.8628                27.3579                28.1678

                     82                     83                     84
                      A                      A                      A
 Frequencies --   3192.4738              3196.1776              3217.1913
 Red. masses --      1.0922                 1.0936                 1.0918
 Frc consts  --      6.5583                 6.5824                 6.6580
 IR Inten    --     17.6896                47.0013                14.3637

 - Thermochemistry -
 -------------------
 Temperature   298.150 Kelvin.  Pressure   1.00000 Atm.
 Atom     1 has atomic number  6 and mass  12.00000

 Molecular mass:   292.02911 amu.
 Principal axes and moments of inertia in atomic units:
                           1         2         3
     Eigenvalues --  2998.647009025.05830**********
           X            0.85123  -0.11475   0.51209
           Y           -0.16168   0.87099   0.46393
           Z           -0.49926  -0.47771   0.72286
 This molecule is an asymmetric top.
 Rotational symmetry number  1.
 Warning -- assumption of classical behavior for rotation
           may cause significant error
 Rotational temperatures (Kelvin)      0.02888     0.00960     0.00720
 Rotational constants (GHZ):           0.60185     0.19997     0.15012
 Zero-point vibrational energy     560182.8 (Joules/Mol)
                                  133.88690 (Kcal/Mol)
 Warning -- explicit consideration of  25 degrees of freedom as
           vibrations may cause significant error
 Vibrational temperatures:     29.62    51.28   123.28   175.81   187.71
          (Kelvin)            229.97   257.42   344.45   391.52   396.39
                              412.82   438.13   479.79   559.03   584.23
                              608.18   621.93   666.78   696.72   702.10
                              748.30   786.62   840.54   847.94   874.36
                              935.25   970.38  1020.66  1024.83  1048.67
                             1073.23  1088.86  1104.89  1139.19  1169.32
                             1207.06  1240.38  1241.27  1272.01  1347.53
                             1377.59  1409.56  1414.97  1426.48  1438.73
                             1442.03  1489.34  1499.09  1572.39  1606.88
                             1646.14  1678.13  1694.52  1699.46  1744.50
                             1749.00  1796.56  1826.13  1860.63  1927.08
                             1936.87  1971.19  1991.02  2009.92  2058.54
                             2120.91  2127.12  2135.58  2161.90  2211.24
                             2245.85  2293.38  2312.48  2342.83  2366.52
                             4546.69  4552.24  4564.85  4567.15  4586.10
                             4588.33  4593.26  4598.59  4628.82

 Zero-point correction=                           0.213362 (Hartree/Particle)
 Thermal correction to Energy=                    0.228645
 Thermal correction to Enthalpy=                  0.229589
 Thermal correction to Gibbs Free Energy=         0.168991
 Sum of electronic and zero-point Energies=          -1302.165999
 Sum of electronic and thermal Energies=             -1302.150717
 Sum of electronic and thermal Enthalpies=           -1302.149773
 Sum of electronic and thermal Free Energies=        -1302.210371

                     E (Thermal)             CV                S
                      KCal/Mol        Cal/Mol-Kelvin    Cal/Mol-Kelvin
 Total                  143.477             61.893            127.539
 Electronic               0.000              0.000              1.377
 Translational            0.889              2.981             42.912
 Rotational               0.889              2.981             34.141
 Vibrational            141.699             55.931             49.108
 Vibration     1          0.593              1.986              6.577
 Vibration     2          0.594              1.982              5.488
 Vibration     3          0.601              1.959              3.756
 Vibration     4          0.610              1.931              3.065
 Vibration     5          0.612              1.923              2.939
 Vibration     6          0.622              1.892              2.552
 Vibration     7          0.629              1.868              2.340
 Vibration     8          0.657              1.780              1.807
 Vibration     9          0.675              1.725              1.583
 Vibration    10          0.677              1.719              1.561
 Vibration    11          0.684              1.698              1.492
 Vibration    12          0.695              1.665              1.392
 Vibration    13          0.715              1.609              1.243
 Vibration    14          0.757              1.495              1.006
 Vibration    15          0.771              1.457              0.941
 Vibration    16          0.785              1.421              0.883
 Vibration    17          0.793              1.400              0.851
 Vibration    18          0.821              1.331              0.756
 Vibration    19          0.840              1.285              0.699
 Vibration    20          0.844              1.277              0.689
 Vibration    21          0.875              1.205              0.610
 Vibration    22          0.902              1.147              0.551
 Vibration    23          0.941              1.066              0.478
 Vibration    24          0.947              1.054              0.468
 Vibration    25          0.967              1.015              0.437

 Optimization completed.
    -- Stationary point found.
 Normal termination of Gaussian 16 at Sat Feb 10 19:59:20 2024.
