 Gaussian 16, Revision A.03,
 Gaussian 16:  ES64L-G16RevA.03 25-Dec-2016

 ----------------------------------------------------------------
 #P UB3LYP/6-311++G(d,p) SCRF=(PCM,Solvent=n,n-DiMethylFormamide)
 ----------------------------------------------------------------

 ------------------
 Radical PCM in DMF
 ------------------
 Symbolic Z-matrix:
 Charge = -1 Multiplicity = 2

                         Standard orientation:
 ---------------------------------------------------------------------
 Center     Atomic      Atomic             Coordinates (Angstroms)
 Number     Number       Type             X           Y           Z
 ---------------------------------------------------------------------
      1          6           0       -1.757646   -1.168670   -0.000011
      2          6           0       -2.968455   -0.507663    0.000015
      3          6           0       -3.022125    0.897876    0.000030
      4          6           0       -0.543808   -0.448263   -0.000022
      5          6           0       -0.586929    0.971523   -0.000005
      6          6           0       -1.838110    1.613240    0.000019
      7          6           0        0.717863   -1.194955   -0.000055
      8          6           0        1.913633   -0.371111   -0.000038
      9          6           0        1.876991    1.010086   -0.000028
     10          6           0        0.653148    1.765334   -0.000001
     11          8           0        0.752391   -2.454956   -0.000012
     12          8           0        0.640026    3.023957   -0.000031
     13          1           0       -1.697738   -2.253822   -0.000025
     14          1           0       -1.841767    2.697567    0.000034
     15          8           0        3.079804   -1.095609   -0.000037
     16          8           0       -4.178377   -1.185617    0.000025
     17          1           0       -3.987315    1.392107    0.000049
     18          1           0        2.784737    1.600703   -0.000035
     19          6           0        4.300921   -0.391142    0.000096
     20          1           0       -3.985769   -2.128780    0.000018
     21          1           0        5.085749   -1.149639    0.000150
     22          1           0        4.409139    0.241043    0.891032
     23          1           0        4.409311    0.241089   -0.890787
 ---------------------------------------------------------------------

 SCF Done:  E(UB3LYP) =  -725.220604864     A.U. after   19 cycles

 The electronic state is 2-A.
 Alpha  occ. eigenvalues --  -19.15639 -19.15420 -19.07660 -19.07311 -10.23681
 Alpha  occ. eigenvalues --  -10.22807 -10.22400 -10.22045 -10.21690 -10.17704
 Alpha  occ. eigenvalues --  -10.17457 -10.17216 -10.16859 -10.16796 -10.15622
 Alpha  occ. eigenvalues --   -1.06961  -1.06229  -0.99871  -0.99693  -0.85823
 Alpha  occ. eigenvalues --   -0.80279  -0.75330  -0.74365  -0.71353  -0.66472
 Alpha  occ. eigenvalues --   -0.63366  -0.60230  -0.56802  -0.54974  -0.52243
 Alpha  occ. eigenvalues --   -0.50529  -0.47395  -0.46973  -0.46885  -0.43660
 Alpha  occ. eigenvalues --   -0.42846  -0.42270  -0.42142  -0.40994  -0.40587
 Alpha  occ. eigenvalues --   -0.40135  -0.38634  -0.37880  -0.36597  -0.34757
 Alpha  occ. eigenvalues --   -0.33947  -0.33562  -0.32183  -0.26437  -0.24985
 Alpha  occ. eigenvalues --   -0.24586  -0.23883  -0.22801  -0.14841
 Alpha virt. eigenvalues --   -0.03168  -0.00457  -0.00385   0.00288   0.01183
 Alpha virt. eigenvalues --    0.02125   0.02542   0.03666   0.04177   0.04554
 Alpha virt. eigenvalues --    0.04755   0.05332   0.06132   0.06197   0.06698

  Beta  occ. eigenvalues --  -19.15632 -19.15340 -19.06972 -19.06801 -10.23672
  Beta  occ. eigenvalues --  -10.22664 -10.22271 -10.21804 -10.21694 -10.17663
  Beta  occ. eigenvalues --  -10.17478 -10.17165 -10.16802 -10.16732 -10.15535
  Beta  occ. eigenvalues --   -1.06767  -1.06210  -0.98927  -0.98535  -0.85616
  Beta  occ. eigenvalues --   -0.79804  -0.75137  -0.74176  -0.71123  -0.65716
  Beta  occ. eigenvalues --   -0.63243  -0.59946  -0.56500  -0.54917  -0.52069
  Beta  occ. eigenvalues --   -0.50318  -0.47114  -0.46787  -0.46629  -0.43491
  Beta  occ. eigenvalues --   -0.42802  -0.41947  -0.41690  -0.40635  -0.40046
  Beta  occ. eigenvalues --   -0.39081  -0.38543  -0.36456  -0.35648  -0.34658
  Beta  occ. eigenvalues --   -0.33403  -0.33336  -0.30822  -0.25068  -0.23998
  Beta  occ. eigenvalues --   -0.23406  -0.23355  -0.22302
  Beta virt. eigenvalues --   -0.08225  -0.02435  -0.00368   0.00291   0.00616
  Beta virt. eigenvalues --    0.01189   0.02162   0.02553   0.03714   0.04194
  Beta virt. eigenvalues --    0.04777   0.05314   0.05355   0.06136   0.06792

 Mulliken charges and spin densities:
               1          2
     1  C    0.323674   0.086683
     2  C   -0.604142   0.003485
     3  C   -0.189885   0.040859
     4  C    0.568262   0.016939
     5  C    0.037011   0.020094
     6  C    0.190464   0.002175
     7  C   -0.682121   0.141434
     8  C   -0.372163   0.118242
     9  C    0.447218   0.052505
    10  C   -0.395100   0.070998
    11  O   -0.498997   0.259438
    12  O   -0.500138   0.182053
    13  H    0.144776  -0.005699
    14  H    0.168278  -0.000637
    15  O   -0.211421   0.017029
    16  O   -0.291995   0.002486
    17  H    0.202954  -0.003206
    18  H    0.196032  -0.006662
    19  C   -0.335979  -0.000299
    20  H    0.298858  -0.000154
    21  H    0.188870  -0.000137
    22  H    0.157773   0.001186
    23  H    0.157772   0.001186
 Sum of Mulliken charges =  -1.00000   1.00000

 Dipole moment (field-independent basis, Debye):
    X=             -0.7323    Y=             -1.5247    Z=              0.0003  Tot=              1.6914
 Quadrupole moment (field-independent basis, Debye-Ang):
   XX=            -88.8883   YY=           -125.1517   ZZ=            -92.0774
   XY=              6.8759   XZ=              0.0008   YZ=              0.0001

 Normal termination of Gaussian 16 at Sun Jan 21 08:24:16 2024.
