 Q-Chem 5.4, Q-Chem, Inc., Pleasanton, CA (2021)
 Q-Chem 5.4.0 for Intel X86 EM64T Linux

User input:
--------------------------------------------------------------
$molecule
-2 1
C                 -0.5517180000      1.2122290000     -0.3737850000
C                 -1.4320750000      0.1506710000     -0.8330040000
C                 -1.2149010000     -1.1982220000     -0.6576990000
C                 -0.0339470000     -1.7035390000      0.0324930000
C                  0.8323790000     -0.6954400000      0.4857340000
C                  0.6427460000      0.7284230000      0.3233020000
O                 -0.8596910000      2.4259140000     -0.5955140000
O                  0.1477480000     -2.9865750000      0.1850350000
C                  1.6345560000      1.6400410000      0.8516380000
C                  2.8657810000      1.0242770000      1.5729870000
O                  1.6252830000      2.8867560000      0.7997670000
H                 -2.3274350000      0.4941710000     -1.3547160000
H                  3.4416370000      0.3658750000      0.9117310000
H                  2.5735850000      0.4256650000      2.4440110000
H                  3.4966180000      1.8554620000      1.8980320000
C                 -2.1952550000     -2.2198050000     -1.1753080000
H                  1.7165690000     -1.0561320000      1.0017700000
H                 -3.0463340000     -1.7396900000     -1.6748380000
H                 -2.5645680000     -2.8538540000     -0.3582500000
H                 -1.7056790000     -2.9095090000     -1.8758260000
$end

$rem
BASIS  =  6-311++G(d,p)
GUI  =  2
JOB_TYPE  =  SP
METHOD  =  B3LYP
SCF_CONVERGENCE  = 8
SOLVENT_METHOD = sm12
$end

$smx
solvent dimethylformamide
charges CM5
$end

--------------------------------------------------------------

             Standard Nuclear Orientation (Angstroms)
    I     Atom           X                Y                Z
 ----------------------------------------------------------------
    1      C      -0.5517180000     1.2122290000    -0.3737850000
    2      C      -1.4320750000     0.1506710000    -0.8330040000
    3      C      -1.2149010000    -1.1982220000    -0.6576990000
    4      C      -0.0339470000    -1.7035390000     0.0324930000
    5      C       0.8323790000    -0.6954400000     0.4857340000
    6      C       0.6427460000     0.7284230000     0.3233020000
    7      O      -0.8596910000     2.4259140000    -0.5955140000
    8      O       0.1477480000    -2.9865750000     0.1850350000
    9      C       1.6345560000     1.6400410000     0.8516380000
   10      C       2.8657810000     1.0242770000     1.5729870000
   11      O       1.6252830000     2.8867560000     0.7997670000
   12      H      -2.3274350000     0.4941710000    -1.3547160000
   13      H       3.4416370000     0.3658750000     0.9117310000
   14      H       2.5735850000     0.4256650000     2.4440110000
   15      H       3.4966180000     1.8554620000     1.8980320000
   16      C      -2.1952550000    -2.2198050000    -1.1753080000
   17      H       1.7165690000    -1.0561320000     1.0017700000
   18      H      -3.0463340000    -1.7396900000    -1.6748380000
   19      H      -2.5645680000    -2.8538540000    -0.3582500000
   20      H      -1.7056790000    -2.9095090000    -1.8758260000
 ----------------------------------------------------------------

   18    -573.5660274042      5.39e-09  Convergence criterion met
 Total energy in the final basis set =     -573.8562777457

                    Orbital Energies (a.u.)
 --------------------------------------------------------------

 Alpha MOs
 -- Occupied --
-19.0728 -19.0361 -19.0216 -10.2290 -10.2008 -10.1829 -10.1732 -10.1674
-10.1661 -10.1492 -10.1458 -10.1365  -0.9959  -0.9541  -0.9309  -0.8051
 -0.7645  -0.7210  -0.6846  -0.6616  -0.5852  -0.5637  -0.4960  -0.4614
 -0.4516  -0.4287  -0.4264  -0.4204  -0.4173  -0.3992  -0.3831  -0.3679
 -0.3662  -0.3655  -0.3457  -0.3322  -0.3287  -0.3182  -0.2377  -0.2360
 -0.2338  -0.1995  -0.1919  -0.1349

          Ground-State Mulliken Net Atomic Charges

     Atom                 Charge (a.u.)
  ----------------------------------------
      1 C                    -1.613077
      2 C                    -1.249694
      3 C                     0.810006
      4 C                    -1.158671
      5 C                    -2.344275
      6 C                     0.631702
      7 O                    -0.302470
      8 O                    -0.398588
      9 C                     0.066429
     10 C                     1.018048
     11 O                    -0.222473
     12 H                    -0.010043
     13 H                     0.148393
     14 H                     0.147957
     15 H                     0.402773
     16 C                     1.475485
     17 H                    -0.126807
     18 H                     0.320918
     19 H                     0.202104
     20 H                     0.202284
  ----------------------------------------
  Sum of atomic charges =    -2.000000

                    Cartesian Multipole Moments
 -----------------------------------------------------------------
    Charge (ESU x 10^10)
                -9.6064
    Dipole Moment (Debye)
         X      -0.7042      Y      -2.0145      Z      -0.1954
       Tot       2.1429
    Quadrupole Moments (Debye-Ang)
        XX     -92.9977     XY      -2.2670     YY    -151.4746
        XZ      -7.2536     YZ       1.4751     ZZ     -84.2196

 Total job time:  269.20s(wall), 2006.19s(cpu)
        *  Thank you very much for using Q-Chem.  Have a nice day.  *
