 Gaussian 16, Revision A.03,
 Gaussian 16:  ES64L-G16RevA.03 25-Dec-2016

 --------------------------------------
 #P UB3LYP/6-311++G(d,p) nosym opt freq
 --------------------------------------

 -------
 Radical
 -------
 Symbolic Z-matrix:
 Charge = -3 Multiplicity = 2

 SCF Done:  E(UB3LYP) =  -1935.57429594     A.U. after   19 cycles
 Optimization completed.
    -- Stationary point found.
 Normal termination of Gaussian 16 at Mon Jan  8 21:57:18 2024.

 ----------------------------------------------------------------------
 #P Geom=AllCheck Guess=TCheck SCRF=Check GenChk UB3LYP/6-311++G(d,p) F
 req
 ----------------------------------------------------------------------

 Structure from the checkpoint file:  "225-rad.chk"
 -------
 Radical
 -------
 Charge = -3 Multiplicity = 2

                          Input orientation:
 ---------------------------------------------------------------------
 Center     Atomic      Atomic             Coordinates (Angstroms)
 Number     Number       Type             X           Y           Z
 ---------------------------------------------------------------------
      1          8           0        5.869248   -1.630207    1.235170
      2         16           0        5.462087   -0.880264    0.006883
      3          8           0        6.206587    0.408081   -0.144105
      4          8           0        5.465864   -1.715387   -1.226298
      5          6           0        3.723097   -0.396803    0.295872
      6          6           0        3.435077    0.414004    1.418678
      7          6           0        2.137104    0.800592    1.673056
      8          6           0        1.065268    0.407850    0.835975
      9          6           0       -0.294655    0.852245    1.160360
     10          8           0       -0.529734    1.574908    2.166339
     11          6           0       -1.356482    0.409409    0.251987
     12          6           0       -2.700743    0.796728    0.496226
     13          6           0       -3.723091    0.396807   -0.339529
     14          6           0       -3.435076   -0.414002   -1.462326
     15          6           0       -2.137099   -0.800593   -1.716702
     16          6           0       -1.065269   -0.407851   -0.879622
     17          6           0        0.294660   -0.852244   -1.204008
     18          8           0        0.529736   -1.574903   -2.209990
     19          6           0        1.356483   -0.409405   -0.295636
     20          6           0        2.700747   -0.796720   -0.539879
     21         16           0       -5.462095    0.880258   -0.050524
     22          8           0       -5.869309    1.630085   -1.278860
     23          8           0       -6.206565   -0.408088    0.100598
     24          8           0       -5.465851    1.715489    1.182583
     25          1           0        4.245794    0.723032    2.069054
     26          1           0        1.894341    1.422104    2.528249
     27          1           0       -2.912264    1.417139    1.357612
     28          1           0       -4.245789   -0.723029   -2.112706
     29          1           0       -1.894337   -1.422107   -2.571894
     30          1           0        2.912264   -1.417126   -1.401270
 ---------------------------------------------------------------------

 SCF Done:  E(UB3LYP) =  -1935.57429594     A.U. after    2 cycles

 Alpha  occ. eigenvalues --  -88.73985 -88.73985 -18.78694 -18.78694 -18.78414
 Alpha  occ. eigenvalues --  -18.78414 -18.78318 -18.78318 -18.78317 -18.78317
 Alpha  occ. eigenvalues --   -9.93695  -9.93693  -9.90352  -9.90352  -9.89395
 Alpha  occ. eigenvalues --   -9.89395  -9.88961  -9.88961  -9.88932  -9.88931
 Alpha  occ. eigenvalues --   -9.88844  -9.88843  -9.88675  -9.88675  -7.79840
 Alpha  occ. eigenvalues --   -7.79840  -5.76110  -5.76110  -5.76101  -5.76101
 Alpha  occ. eigenvalues --   -5.76026  -5.76026  -0.79844  -0.79844  -0.71162
 Alpha  occ. eigenvalues --   -0.70899  -0.66367  -0.66367  -0.65991  -0.65991
 Alpha  occ. eigenvalues --   -0.57731  -0.56857  -0.50378  -0.46942  -0.46677
 Alpha  occ. eigenvalues --   -0.45971  -0.38542  -0.36988  -0.34178  -0.32077
 Alpha  occ. eigenvalues --   -0.29633  -0.28037  -0.26478  -0.24615  -0.21904
 Alpha  occ. eigenvalues --   -0.19386  -0.18601  -0.17927  -0.17877  -0.14829
 Alpha  occ. eigenvalues --   -0.14622  -0.14565  -0.14487  -0.13998  -0.13924
 Alpha  occ. eigenvalues --   -0.13418  -0.13279  -0.12258  -0.11982  -0.11056
 Alpha  occ. eigenvalues --   -0.08964  -0.08462  -0.08154  -0.06834  -0.05872
 Alpha  occ. eigenvalues --   -0.05012  -0.02523  -0.02520  -0.02512  -0.02474
 Alpha  occ. eigenvalues --    0.00033   0.00037   0.01105   0.01210   0.01316
 Alpha  occ. eigenvalues --    0.01351   0.02316   0.03041   0.03553   0.04407
 Alpha  occ. eigenvalues --    0.04708   0.05243   0.05359   0.05364   0.14458
 Alpha virt. eigenvalues --    0.23143   0.23569   0.23735   0.25690   0.26145
 Alpha virt. eigenvalues --    0.26363   0.27708   0.27904   0.28431   0.29752
 Alpha virt. eigenvalues --    0.30268   0.30345   0.30853   0.31624   0.31727

  Beta  occ. eigenvalues --  -88.73986 -88.73986 -18.78412 -18.78412 -18.78315
  Beta  occ. eigenvalues --  -18.78315 -18.78314 -18.78314 -18.78113 -18.78112
  Beta  occ. eigenvalues --   -9.93544  -9.93543  -9.90296  -9.90296  -9.89348
  Beta  occ. eigenvalues --   -9.89348  -9.88965  -9.88965  -9.88850  -9.88849
  Beta  occ. eigenvalues --   -9.88755  -9.88754  -9.88682  -9.88682  -7.79841
  Beta  occ. eigenvalues --   -7.79841  -5.76111  -5.76111  -5.76101  -5.76101
  Beta  occ. eigenvalues --   -5.76028  -5.76028  -0.79840  -0.79839  -0.70159
  Beta  occ. eigenvalues --   -0.69868  -0.66363  -0.66362  -0.65985  -0.65985
  Beta  occ. eigenvalues --   -0.57474  -0.56745  -0.49977  -0.46702  -0.46562
  Beta  occ. eigenvalues --   -0.45780  -0.37838  -0.36837  -0.33973  -0.31950
  Beta  occ. eigenvalues --   -0.29556  -0.27939  -0.26232  -0.24444  -0.21802
  Beta  occ. eigenvalues --   -0.19271  -0.18395  -0.17813  -0.17776  -0.14767
  Beta  occ. eigenvalues --   -0.14562  -0.14493  -0.14462  -0.13973  -0.13895
  Beta  occ. eigenvalues --   -0.13305  -0.12093  -0.11918  -0.11736  -0.10688
  Beta  occ. eigenvalues --   -0.08162  -0.07973  -0.06792  -0.06610  -0.04855
  Beta  occ. eigenvalues --   -0.04825  -0.02512  -0.02508  -0.02500  -0.02431
  Beta  occ. eigenvalues --    0.00213   0.00779   0.01134   0.01220   0.01366
  Beta  occ. eigenvalues --    0.01369   0.03114   0.03925   0.04789   0.04939
  Beta  occ. eigenvalues --    0.05174   0.05376   0.05387   0.05772
  Beta virt. eigenvalues --    0.20351   0.23561   0.23725   0.23993   0.26137
  Beta virt. eigenvalues --    0.26357   0.26722   0.27700   0.28099   0.28419
  Beta virt. eigenvalues --    0.29756   0.30272   0.30425   0.30877   0.31740

 Mulliken charges and spin densities:
               1          2
     1  O   -0.341969   0.000017
     2  S    0.671926  -0.000202
     3  O   -0.342588   0.000007
     4  O   -0.378902   0.000454
     5  C   -0.760704   0.027988
     6  C   -0.573592   0.040734
     7  C   -0.182080   0.022103
     8  C    0.576984   0.045866
     9  C   -0.823913   0.078828
    10  O   -0.384010   0.216961
    11  C    0.317736   0.055676
    12  C    0.207422   0.018171
    13  C   -0.760664   0.027985
    14  C   -0.573599   0.040733
    15  C   -0.182079   0.022102
    16  C    0.576978   0.045862
    17  C   -0.823925   0.078827
    18  O   -0.384008   0.216959
    19  C    0.317754   0.055681
    20  C    0.207435   0.018168
    21  S    0.671920  -0.000202
    22  O   -0.341980   0.000017
    23  O   -0.342578   0.000007
    24  O   -0.378904   0.000454
    25  H    0.163714  -0.003242
    26  H    0.126578  -0.001968
    27  H    0.223380  -0.001387
    28  H    0.163713  -0.003242
    29  H    0.126578  -0.001968
    30  H    0.223379  -0.001387
 Sum of Mulliken charges =  -3.00000   1.00000

 Dipole moment (field-independent basis, Debye):
    X=             -0.0000    Y=              0.0000    Z=              0.3144  Tot=              0.3144
 Quadrupole moment (field-independent basis, Debye-Ang):
   XX=           -538.8084   YY=           -197.9417   ZZ=           -197.4995
   XY=             61.0883   XZ=              2.6754   YZ=            -12.9717

  Exact polarizability: 467.312 -31.131 193.089  30.641  53.131 237.390
 Approx polarizability: 593.734 -29.016 336.717  40.840 122.086 438.394

                      1                      2                      3
                      A                      A                      A
 Frequencies --     10.1773                12.1179                25.5743
 Red. masses --     15.8467                11.7070                14.6795
 Frc consts  --      0.0010                 0.0010                 0.0057
 IR Inten    --      0.3708                 0.0000                 2.5076

                      4                      5                      6
                      A                      A                      A
 Frequencies --     73.5146                78.6533                79.0710
 Red. masses --     10.6580                13.4102                 6.5734
 Frc consts  --      0.0339                 0.0489                 0.0242
 IR Inten    --      0.0000                 3.0118                 9.2243

                      7                      8                      9
                      A                      A                      A
 Frequencies --    123.6296               139.4965               158.3800
 Red. masses --     12.1503                 5.7446                 6.1271
 Frc consts  --      0.1094                 0.0659                 0.0906
 IR Inten    --      0.0000                 2.1701                 0.0000

                     10                     11                     12
                      A                      A                      A
 Frequencies --    176.7940               176.9892               222.3787
 Red. masses --     11.9979                15.2851                 9.9055
 Frc consts  --      0.2209                 0.2821                 0.2886
 IR Inten    --      2.7341                 0.0000                 1.8447

                     13                     14                     15
                      A                      A                      A
 Frequencies --    227.7353               250.1606               268.6128
 Red. masses --      8.2406                13.7888                13.4794
 Frc consts  --      0.2518                 0.5084                 0.5730
 IR Inten    --      0.0000                 8.8045                 0.0000

                     16                     17                     18
                      A                      A                      A
 Frequencies --    323.8355               333.0546               373.8407
 Red. masses --      7.9599                 6.9941                 7.3801
 Frc consts  --      0.4918                 0.4571                 0.6077
 IR Inten    --      1.1632                 0.0000                14.9791

                     19                     20                     21
                      A                      A                      A
 Frequencies --    376.9737               398.4606               409.1045
 Red. masses --      7.7457                10.9141                 7.2679
 Frc consts  --      0.6485                 1.0210                 0.7167
 IR Inten    --      0.0000                32.2219                 0.0000

                     22                     23                     24
                      A                      A                      A
 Frequencies --    423.1218               452.1772               471.7820
 Red. masses --      3.5647                 7.6015                 3.7401
 Frc consts  --      0.3760                 0.9157                 0.4905
 IR Inten    --      0.3466                 0.0000                 0.0000

                     25                     26                     27
                      A                      A                      A
 Frequencies --    473.0202               488.7462               505.3078
 Red. masses --     10.2833                10.3095                11.3239
 Frc consts  --      1.3556                 1.4510                 1.7036
 IR Inten    --      0.0000                18.0809                 0.0000

                     28                     29                     30
                      A                      A                      A
 Frequencies --    517.5255               526.2703               527.5429
 Red. masses --     15.2047                12.2063                11.4428
 Frc consts  --      2.3993                 1.9918                 1.8763
 IR Inten    --     24.2378                 0.0000                 0.0000

                     31                     32                     33
                      A                      A                      A
 Frequencies --    578.4616               601.3979               626.6139
 Red. masses --      5.1215                13.7864                13.2126
 Frc consts  --      1.0097                 2.9378                 3.0566
 IR Inten    --     44.7422               466.5996                 0.0000

                     34                     35                     36
                      A                      A                      A
 Frequencies --    647.9164               654.9045               681.0580
 Red. masses --      7.3330                 4.7391                 8.1541
 Frc consts  --      1.8137                 1.1976                 2.2284
 IR Inten    --     12.0132                 0.0000               100.2117

                     37                     38                     39
                      A                      A                      A
 Frequencies --    698.4812               721.3062               722.8820
 Red. masses --      6.8874                 4.7425                 8.4106
 Frc consts  --      1.9798                 1.4538                 2.5895
 IR Inten    --      0.0000                19.4694                 0.0000

                     40                     41                     42
                      A                      A                      A
 Frequencies --    728.4346               788.0505               819.4474
 Red. masses --      5.2722                 2.3401                 1.6157
 Frc consts  --      1.6483                 0.8562                 0.6392
 IR Inten    --      4.6812                 0.0000                20.2474

                     43                     44                     45
                      A                      A                      A
 Frequencies --    822.2747               837.5558               943.6831
 Red. masses --      2.3603                 7.2748                 6.8151
 Frc consts  --      0.9403                 3.0068                 3.5758
 IR Inten    --      0.0000                 7.0258                46.7486

                     46                     47                     48
                      A                      A                      A
 Frequencies --    943.7784               946.4091               946.5232
 Red. masses --     11.1348                 1.2933                 1.3077
 Frc consts  --      5.8435                 0.6825                 0.6903
 IR Inten    --      0.0002                 5.4751                 0.0004

                     49                     50                     51
                      A                      A                      A
 Frequencies --    968.5387               972.6247               975.7693
 Red. masses --      8.9235                 1.3180                 1.3499
 Frc consts  --      4.9320                 0.7346                 0.7573
 IR Inten    --    708.4558                 0.0000                12.2476

                     52                     53                     54
                      A                      A                      A
 Frequencies --    989.5737              1068.1478              1077.1008
 Red. masses --      7.4473                 2.0740                 2.1737
 Frc consts  --      4.2968                 1.3942                 1.4858
 IR Inten    --      0.0000               193.9778                 0.0000

                     55                     56                     57
                      A                      A                      A
 Frequencies --   1119.4075              1120.0729              1120.6085
 Red. masses --      2.2731                20.2746                20.2599
 Frc consts  --      1.6782                14.9863                14.9898
 IR Inten    --     81.3153                 0.0367               683.6144

                     58                     59                     60
                      A                      A                      A
 Frequencies --   1122.8685              1146.1389              1148.4500
 Red. masses --      2.0293                11.1848                 6.2132
 Frc consts  --      1.5075                 8.6567                 4.8283
 IR Inten    --      0.0000               478.6738                 0.0002

                     61                     62                     63
                      A                      A                      A
 Frequencies --   1171.3553              1174.7642              1204.8351
 Red. masses --      4.7483                 4.6414                 2.3129
 Frc consts  --      3.8385                 3.7740                 1.9781
 IR Inten    --     52.5596                 0.0000                 5.0619

                     64                     65                     66
                      A                      A                      A
 Frequencies --   1209.6334              1250.3964              1299.5279
 Red. masses --      1.6271                 1.7196                 1.9502
 Frc consts  --      1.4028                 1.5841                 1.9404
 IR Inten    --      0.0000                47.3887                 0.0000

                     67                     68                     69
                      A                      A                      A
 Frequencies --   1353.3216              1354.6601              1376.1577
 Red. masses --     11.0502                10.1455                 3.5769
 Frc consts  --     11.9240                10.9695                 3.9911
 IR Inten    --     34.4991                 0.0000               178.7287

                     70                     71                     72
                      A                      A                      A
 Frequencies --   1440.4110              1455.8409              1483.5513
 Red. masses --      5.5759                 2.5011                 2.8152
 Frc consts  --      6.8161                 3.1233                 3.6506
 IR Inten    --      0.0000               133.9196                 0.0000

                     73                     74                     75
                      A                      A                      A
 Frequencies --   1502.4456              1520.5166              1543.6216
 Red. masses --      8.7219                 8.9101                 5.9733
 Frc consts  --     11.6000                12.1371                 8.3859
 IR Inten    --    661.7686                 0.0000                99.5057

                     76                     77                     78
                      A                      A                      A
 Frequencies --   1599.5688              1607.2767              1617.0677
 Red. masses --      8.9283                 6.3768                 6.8713
 Frc consts  --     13.4594                 9.7059                10.5864
 IR Inten    --      0.0000                 0.0000                13.0539

                     79                     80                     81
                      A                      A                      A
 Frequencies --   3159.6353              3159.8071              3178.0382
 Red. masses --      1.0852                 1.0853                 1.0937
 Frc consts  --      6.3834                 6.3846                 6.5084
 IR Inten    --      0.2042                 0.0000                60.8076

                     82                     83                     84
                      A                      A                      A
 Frequencies --   3178.2503              3205.8164              3205.9183
 Red. masses --      1.0937                 1.0890                 1.0890
 Frc consts  --      6.5091                 6.5942                 6.5946
 IR Inten    --      0.0044                 2.8241                 0.0007

 - Thermochemistry -
 -------------------
 Temperature   298.150 Kelvin.  Pressure   1.00000 Atm.
 Atom     1 has atomic number  8 and mass  15.99491

 Molecular mass:   365.95041 amu.
 Principal axes and moments of inertia in atomic units:
                           1         2         3
     Eigenvalues --  2536.89657********************
           X            0.98920   0.05711   0.13497
           Y           -0.14383   0.55491   0.81938
           Z            0.02810   0.82995  -0.55713
 This molecule is an asymmetric top.
 Rotational symmetry number  1.
 Warning -- assumption of classical behavior for rotation
           may cause significant error
 Rotational temperatures (Kelvin)      0.03414     0.00375     0.00347
 Rotational constants (GHZ):           0.71140     0.07807     0.07234
 Zero-point vibrational energy     475006.9 (Joules/Mol)
                                  113.52936 (Kcal/Mol)
 Warning -- explicit consideration of  32 degrees of freedom as
           vibrations may cause significant error
 Vibrational temperatures:     14.64    17.44    36.80   105.77   113.16
          (Kelvin)            113.77   177.88   200.70   227.87   254.37
                              254.65   319.95   327.66   359.93   386.47
                              465.93   479.19   537.87   542.38   573.30
                              588.61   608.78   650.58   678.79   680.57
                              703.20   727.03   744.60   757.19   759.02
                              832.28   865.28   901.56   932.21   942.26
                              979.89  1004.96  1037.80  1040.07  1048.05
                             1133.83  1179.00  1183.07  1205.06  1357.75
                             1357.89  1361.67  1361.84  1393.51  1399.39
                             1403.91  1423.78  1536.83  1549.71  1610.58
                             1611.54  1612.31  1615.56  1649.04  1652.36
                             1685.32  1690.22  1733.49  1740.39  1799.04
                             1869.73  1947.13  1949.05  1979.98  2072.43
                             2094.63  2134.50  2161.68  2187.68  2220.93
                             2301.42  2312.51  2326.60  4546.01  4546.26
                             4572.49  4572.79  4612.45  4612.60

 Zero-point correction=                           0.180921 (Hartree/Particle)
 Thermal correction to Energy=                    0.200428
 Thermal correction to Enthalpy=                  0.201373
 Thermal correction to Gibbs Free Energy=         0.128463
 Sum of electronic and zero-point Energies=          -1935.393375
 Sum of electronic and thermal Energies=             -1935.373868
 Sum of electronic and thermal Enthalpies=           -1935.372923
 Sum of electronic and thermal Free Energies=        -1935.445833

                     E (Thermal)             CV                S
                      KCal/Mol        Cal/Mol-Kelvin    Cal/Mol-Kelvin
 Total                  125.771             74.252            153.451
 Electronic               0.000              0.000              1.377
 Translational            0.889              2.981             43.585
 Rotational               0.889              2.981             35.635
 Vibrational            123.993             68.290             72.854
 Vibration     1          0.593              1.987              7.976
 Vibration     2          0.593              1.987              7.629
 Vibration     3          0.593              1.985              6.146
 Vibration     4          0.599              1.966              4.057
 Vibration     5          0.600              1.964              3.924
 Vibration     6          0.600              1.963              3.914
 Vibration     7          0.610              1.929              3.043
 Vibration     8          0.615              1.914              2.811
 Vibration     9          0.621              1.893              2.569
 Vibration    10          0.628              1.871              2.362
 Vibration    11          0.628              1.871              2.360
 Vibration    12          0.648              1.807              1.940
 Vibration    13          0.651              1.799              1.897
 Vibration    14          0.663              1.762              1.729
 Vibration    15          0.673              1.731              1.605
 Vibration    16          0.708              1.628              1.291
 Vibration    17          0.715              1.609              1.245
 Vibration    18          0.745              1.526              1.064
 Vibration    19          0.748              1.519              1.051
 Vibration    20          0.765              1.473              0.968
 Vibration    21          0.773              1.450              0.930
 Vibration    22          0.785              1.420              0.881
 Vibration    23          0.811              1.356              0.789
 Vibration    24          0.829              1.313              0.733
 Vibration    25          0.830              1.310              0.729
 Vibration    26          0.845              1.275              0.687
 Vibration    27          0.861              1.238              0.645
 Vibration    28          0.873              1.211              0.616
 Vibration    29          0.881              1.192              0.596
 Vibration    30          0.882              1.189              0.593
 Vibration    31          0.935              1.078              0.488
 Vibration    32          0.960              1.029              0.447

 Optimization completed.
    -- Stationary point found.
 Normal termination of Gaussian 16 at Mon Jan  8 23:27:38 2024.
