 Q-Chem 5.4, Q-Chem, Inc., Pleasanton, CA (2021)
 Q-Chem 5.4.0 for Intel X86 EM64T Linux

User input:
--------------------------------------------------------------
$molecule
-3 2
O                  5.8692480000     -1.6302070000      1.2351700000
S                  5.4620870000     -0.8802640000      0.0068830000
O                  6.2065870000      0.4080810000     -0.1441050000
O                  5.4658640000     -1.7153870000     -1.2262980000
C                  3.7230970000     -0.3968030000      0.2958720000
C                  3.4350770000      0.4140040000      1.4186780000
C                  2.1371040000      0.8005920000      1.6730560000
C                  1.0652680000      0.4078500000      0.8359750000
C                 -0.2946550000      0.8522450000      1.1603600000
O                 -0.5297340000      1.5749080000      2.1663390000
C                 -1.3564820000      0.4094090000      0.2519870000
C                 -2.7007430000      0.7967280000      0.4962260000
C                 -3.7230910000      0.3968070000     -0.3395290000
C                 -3.4350760000     -0.4140020000     -1.4623260000
C                 -2.1370990000     -0.8005930000     -1.7167020000
C                 -1.0652690000     -0.4078510000     -0.8796220000
C                  0.2946600000     -0.8522440000     -1.2040080000
O                  0.5297360000     -1.5749030000     -2.2099900000
C                  1.3564830000     -0.4094050000     -0.2956360000
C                  2.7007470000     -0.7967200000     -0.5398790000
S                 -5.4620950000      0.8802580000     -0.0505240000
O                 -5.8693090000      1.6300850000     -1.2788600000
O                 -6.2065650000     -0.4080880000      0.1005980000
O                 -5.4658510000      1.7154890000      1.1825830000
H                  4.2457940000      0.7230320000      2.0690540000
H                  1.8943410000      1.4221040000      2.5282490000
H                 -2.9122640000      1.4171390000      1.3576120000
H                 -4.2457890000     -0.7230290000     -2.1127060000
H                 -1.8943370000     -1.4221070000     -2.5718940000
H                  2.9122640000     -1.4171260000     -1.4012700000
$end
$rem
MAX_SCF_CYCLES=200
BASIS  =  6-311++G(d,p)
GUI  =  2
JOB_TYPE  =  SP
METHOD  =  B3LYP
SOLVENT_METHOD = COSMO
$end
$solvent
dielectric 37.219
opticaldielectric 1.43
$end

--------------------------------------------------------------

             Standard Nuclear Orientation (Angstroms)
    I     Atom           X                Y                Z
 ----------------------------------------------------------------
    1      O      -6.0772166788    -0.4535938595     1.2439358143
    2      S      -5.5299925753     0.1710982394     0.0000752514
    3      O      -6.0790069310    -0.4592080986    -1.2401697336
    4      O      -5.6142498269     1.6580649611    -0.0032040008
    5      C      -3.7497309593    -0.2436351629    -0.0003542831
    6      C      -3.3842936414    -1.6102047318    -0.0002824385
    7      C      -2.0530552690    -1.9661495774    -0.0001409166
    8      C      -1.0225260084    -0.9956895194    -0.0000462379
    9      C       0.3760523191    -1.4385007119     0.0000940258
   10      O       0.6802004902    -2.6620167856     0.0001553311
   11      C       1.3917661942    -0.3815962097     0.0001643509
   12      C       2.7692180132    -0.7270420081     0.0003053141
   13      C       3.7497242268     0.2436413713     0.0003419662
   14      C       3.3842912941     1.6102048515     0.0002774495
   15      C       2.0530484765     1.9661494882     0.0001389601
   16      C       1.0225251831     0.9956905830     0.0000445341
   17      C      -0.3760587659     1.4385011717    -0.0000987353
   18      O      -0.6802033083     2.6620176748    -0.0001645847
   19      C      -1.3917682267     0.3815960484    -0.0001715359
   20      C      -2.7692223224     0.7270427832    -0.0003184100
   21      S       5.5299977806    -0.1710990011    -0.0000685708
   22      O       6.0772593635     0.4537010379    -1.2438542323
   23      O       6.0789781776     0.4590950782     1.2402478411
   24      O       5.6142518731    -1.6580654266     0.0030781261
   25      H      -4.1625996014    -2.3651809265    -0.0005622930
   26      H      -1.7510134781    -3.0079445972    -0.0001701196
   27      H       3.0400019195    -1.7750462295     0.0004120472
   28      H       4.1625935620     2.3651835949     0.0005537161
   29      H       1.7510073601     3.0079448428     0.0001704940
   30      H      -3.0400014069     1.7750485922    -0.0004314858
 ----------------------------------------------------------------

    9   -1935.5744229865      6.12e-06  Convergence criterion met
 Total energy in the final basis set =    -1935.5744229865
    4   -1936.0486596246      5.68e-06  Convergence criterion met
 Total energy in the final basis set =    -1936.0486596246

                    Orbital Energies (a.u.)
 --------------------------------------------------------------

 Alpha MOs
 -- Occupied --
-89.0482 -89.0482 -19.0942 -19.0941 -19.0922 -19.0922 -19.0921 -19.0921
-19.0819 -19.0819 -10.2311 -10.2311 -10.1980 -10.1980 -10.1807 -10.1806
-10.1798 -10.1798 -10.1793 -10.1793 -10.1790 -10.1790 -10.1742 -10.1742
 -8.1069  -8.1069  -6.0697  -6.0697  -6.0696  -6.0696  -6.0685  -6.0685
 -1.1086  -1.1085  -1.0072  -1.0047  -0.9747  -0.9746  -0.9704  -0.9704
 -0.8682  -0.8590  -0.7957  -0.7605  -0.7559  -0.7505  -0.6775  -0.6660
 -0.6319  -0.6201  -0.5873  -0.5762  -0.5597  -0.5348  -0.5216  -0.4970
 -0.4795  -0.4737  -0.4700  -0.4557  -0.4556  -0.4545  -0.4477  -0.4335
 -0.4319  -0.4263  -0.4260  -0.4183  -0.4146  -0.4017  -0.3849  -0.3763
 -0.3747  -0.3561  -0.3538  -0.3409  -0.3372  -0.3367  -0.3367  -0.3361
 -0.3055  -0.3035  -0.2984  -0.2982  -0.2938  -0.2924  -0.2678  -0.2616
 -0.2601  -0.2589  -0.2588  -0.2523  -0.2483  -0.2433  -0.1486

 Beta MOs
 -- Occupied --
-89.0483 -89.0482 -19.0941 -19.0941 -19.0921 -19.0921 -19.0921 -19.0921
-19.0763 -19.0763 -10.2294 -10.2294 -10.1976 -10.1975 -10.1801 -10.1801
-10.1796 -10.1796 -10.1787 -10.1787 -10.1781 -10.1781 -10.1743 -10.1743
 -8.1069  -8.1069  -6.0697  -6.0697  -6.0697  -6.0696  -6.0685  -6.0685
 -1.1085  -1.1085  -0.9975  -0.9948  -0.9746  -0.9746  -0.9704  -0.9703
 -0.8656  -0.8579  -0.7918  -0.7581  -0.7546  -0.7485  -0.6706  -0.6645
 -0.6299  -0.6186  -0.5867  -0.5753  -0.5570  -0.5330  -0.5206  -0.4960
 -0.4776  -0.4729  -0.4681  -0.4554  -0.4554  -0.4542  -0.4473  -0.4324
 -0.4314  -0.4257  -0.4136  -0.4132  -0.4122  -0.3995  -0.3733  -0.3729
 -0.3613  -0.3557  -0.3450  -0.3396  -0.3371  -0.3366  -0.3357  -0.3356
 -0.3044  -0.2983  -0.2982  -0.2973  -0.2934  -0.2919  -0.2590  -0.2588
 -0.2587  -0.2508  -0.2490  -0.2472  -0.2434  -0.2383

          Ground-State Mulliken Net Atomic Charges

     Atom                 Charge (a.u.)    Spin (a.u.)
  --------------------------------------------------------
      1 O                    -0.405391      -0.000680
      2 S                     0.818266       0.002354
      3 O                    -0.406012      -0.000691
      4 O                    -0.444841       0.000224
      5 C                    -0.813897       0.022825
      6 C                    -0.613813       0.049772
      7 C                    -0.176901       0.020357
      8 C                     0.461330       0.043848
      9 C                    -0.615444       0.099458
     10 O                    -0.472179       0.203402
     11 C                     0.241779       0.044030
     12 C                     0.279923       0.021231
     13 C                    -0.813205       0.022805
     14 C                    -0.614033       0.049765
     15 C                    -0.177390       0.020356
     16 C                     0.461563       0.043849
     17 C                    -0.615737       0.099447
     18 O                    -0.472177       0.203398
     19 C                     0.242021       0.044072
     20 C                     0.279753       0.021207
     21 S                     0.818339       0.002352
     22 O                    -0.405303      -0.000680
     23 O                    -0.405831      -0.000690
     24 O                    -0.445099       0.000223
     25 H                     0.248043      -0.003576
     26 H                     0.178999      -0.001281
     27 H                     0.220099      -0.001262
     28 H                     0.248066      -0.003575
     29 H                     0.178977      -0.001281
     30 H                     0.220087      -0.001261
  --------------------------------------------------------
  Sum of atomic charges =    -3.000007

                    Cartesian Multipole Moments
 -----------------------------------------------------------------
    Charge (ESU x 10^10)
               -14.4096
    Dipole Moment (Debye)
         X       0.0001      Y       0.0014      Z      -0.0012
       Tot       0.0019
    Quadrupole Moments (Debye-Ang)
        XX    -555.4634     XY      26.6777     YY    -202.6385
        XZ       0.0102     YZ       0.0038     ZZ    -178.4997

 Total job time:  142.78s(wall), 1082.98s(cpu)
        *  Thank you very much for using Q-Chem.  Have a nice day.  *
