 Q-Chem 5.4, Q-Chem, Inc., Pleasanton, CA (2021)
 Q-Chem 5.4.0 for Intel X86 EM64T Linux

User input:
--------------------------------------------------------------
$molecule
-1 2
C                  2.6102860000     -0.1804260000      0.7131090000
O                  1.8268020000      0.2338050000     -0.4042370000
C                  0.4531340000      0.1449460000     -0.2486360000
C                 -0.2889790000      1.2693750000     -0.4989140000
C                 -1.7359510000      1.2852590000     -0.4404910000
O                 -2.4119600000      2.3284180000     -0.6722590000
C                 -2.3504180000      0.0214710000     -0.0853050000
C                 -1.6079240000     -1.1029630000      0.1627650000
C                 -0.1648530000     -1.1380810000      0.0820960000
O                  0.5033140000     -2.1983510000      0.2693680000
H                  2.4066900000     -1.2215860000      0.9681150000
H                  3.6543230000     -0.0580000000      0.4143260000
H                  2.4100970000      0.4636700000      1.5812280000
H                  0.2165480000      2.1937530000     -0.7594060000
H                 -3.4352150000      0.0039900000     -0.0265590000
H                 -2.0858950000     -2.0452810000      0.4173600000
$end

$rem
BASIS  =  6-311++G(d,p)
GUI  =  2
JOB_TYPE  =  SP
METHOD  =  B3LYP
SCF_CONVERGENCE  = 8
SOLVENT_METHOD = sm12
$end

$smx
solvent dimethylformamide
charges CM5
$end

--------------------------------------------------------------

             Standard Nuclear Orientation (Angstroms)
    I     Atom           X                Y                Z
 ----------------------------------------------------------------
    1      C       2.6102860000    -0.1804260000     0.7131090000
    2      O       1.8268020000     0.2338050000    -0.4042370000
    3      C       0.4531340000     0.1449460000    -0.2486360000
    4      C      -0.2889790000     1.2693750000    -0.4989140000
    5      C      -1.7359510000     1.2852590000    -0.4404910000
    6      O      -2.4119600000     2.3284180000    -0.6722590000
    7      C      -2.3504180000     0.0214710000    -0.0853050000
    8      C      -1.6079240000    -1.1029630000     0.1627650000
    9      C      -0.1648530000    -1.1380810000     0.0820960000
   10      O       0.5033140000    -2.1983510000     0.2693680000
   11      H       2.4066900000    -1.2215860000     0.9681150000
   12      H       3.6543230000    -0.0580000000     0.4143260000
   13      H       2.4100970000     0.4636700000     1.5812280000
   14      H       0.2165480000     2.1937530000    -0.7594060000
   15      H      -3.4352150000     0.0039900000    -0.0265590000
   16      H      -2.0858950000    -2.0452810000     0.4173600000
 ----------------------------------------------------------------

   18    -496.1952352075      3.61e-09  Convergence criterion met
 Total energy in the final basis set =     -496.2784458665

                    Orbital Energies (a.u.)
 --------------------------------------------------------------

 Alpha MOs
 -- Occupied --
-19.1422 -19.0809 -19.0775 -10.2270 -10.2254 -10.2245 -10.2119 -10.1733
-10.1714 -10.1656  -1.0552  -0.9981  -0.9965  -0.8273  -0.7558  -0.6990
 -0.6752  -0.6061  -0.5725  -0.4987  -0.4917  -0.4710  -0.4608  -0.4399
 -0.4291  -0.4066  -0.4051  -0.3851  -0.3758  -0.3716  -0.3524  -0.3023
 -0.2835  -0.2517  -0.2407  -0.2373  -0.1665

 Beta MOs
 -- Occupied --
-19.1420 -19.0733 -19.0703 -10.2259 -10.2240 -10.2237 -10.2118 -10.1724
-10.1698 -10.1649  -1.0540  -0.9855  -0.9836  -0.8212  -0.7535  -0.6945
 -0.6677  -0.6021  -0.5693  -0.4968  -0.4892  -0.4669  -0.4579  -0.4383
 -0.4271  -0.3992  -0.3897  -0.3802  -0.3694  -0.3502  -0.3453  -0.2982
 -0.2530  -0.2410  -0.2340  -0.2307

          Ground-State Mulliken Net Atomic Charges

     Atom                 Charge (a.u.)    Spin (a.u.)
  --------------------------------------------------------
      1 C                    -0.019670       0.006126
      2 O                    -0.126541       0.001508
      3 C                    -0.097490       0.114089
      4 C                     0.251700       0.018260
      5 C                    -1.150210       0.091422
      6 O                    -0.394665       0.254267
      7 C                     0.122955       0.116858
      8 C                     0.090191       0.088317
      9 C                    -0.467014       0.053850
     10 O                    -0.352160       0.278048
     11 H                     0.132699      -0.001582
     12 H                     0.242104       0.000382
     13 H                     0.137185       0.000220
     14 H                     0.180373      -0.006217
     15 H                     0.217920      -0.008793
     16 H                     0.232622      -0.006754
  --------------------------------------------------------
  Sum of atomic charges =    -1.000000

                    Cartesian Multipole Moments
 -----------------------------------------------------------------
    Charge (ESU x 10^10)
                -4.8032
    Dipole Moment (Debye)
         X       4.6145      Y      -1.2886      Z       2.2161
       Tot       5.2788
    Quadrupole Moments (Debye-Ang)
        XX     -75.6880     XY      16.3062     YY     -87.6619
        XZ      -1.5391     YZ       5.1536     ZZ     -64.2490

 Total job time:  161.31s(wall), 1236.43s(cpu)
        *  Thank you very much for using Q-Chem.  Have a nice day.  *
