 Q-Chem 5.4, Q-Chem, Inc., Pleasanton, CA (2021)
 Q-Chem 5.4.0 for Intel X86 EM64T Linux

User input:
--------------------------------------------------------------
$molecule
-1 2
C                  3.3128630000     -0.9469420000     -0.1004030000
O                  1.9344520000     -1.1544410000      0.0951290000
C                  1.0739450000     -0.1063580000     -0.0844190000
C                  1.5313570000      1.1544130000     -0.4554590000
C                  0.6248330000      2.2148530000     -0.6333750000
C                 -0.7222320000      2.0114820000     -0.4412210000
C                 -1.2120720000      0.7436680000     -0.0650160000
C                 -2.6727980000      0.6125870000      0.1203640000
O                 -3.4510730000      1.5920290000     -0.0499580000
C                 -3.1363250000     -0.6884880000      0.5022080000
C                 -2.2847700000     -1.7483290000      0.6855360000
C                 -0.8513140000     -1.6823480000      0.5198030000
O                 -0.1439240000     -2.7043940000      0.7085550000
C                 -0.3182710000     -0.3562230000      0.1242810000
H                  3.7860280000     -1.9097120000      0.0976580000
H                  3.5434090000     -0.6383100000     -1.1293880000
H                  3.7209900000     -0.1970320000      0.5911600000
H                  2.5869620000      1.3319980000     -0.6107400000
H                  1.0009430000      3.1918910000     -0.9231930000
H                 -1.4488680000      2.8044340000     -0.5691930000
H                 -4.2081630000     -0.8010490000      0.6423970000
H                 -2.6659710000     -2.7237310000      0.9752760000
$end
$rem
MAX_SCF_CYCLES=200
BASIS  =  6-311++G(d,p)
GUI  =  2
JOB_TYPE  =  SP
METHOD  =  B3LYP
SOLVENT_METHOD = PCM
$end
$pcm
theory = CPCM
$end
$solvent
dielectric 37.219
opticaldielectric 1.43
$end

--------------------------------------------------------------

             Standard Nuclear Orientation (Angstroms)
    I     Atom           X                Y                Z
 ----------------------------------------------------------------
    1      C       3.3128630000    -0.9469420000    -0.1004030000
    2      O       1.9344520000    -1.1544410000     0.0951290000
    3      C       1.0739450000    -0.1063580000    -0.0844190000
    4      C       1.5313570000     1.1544130000    -0.4554590000
    5      C       0.6248330000     2.2148530000    -0.6333750000
    6      C      -0.7222320000     2.0114820000    -0.4412210000
    7      C      -1.2120720000     0.7436680000    -0.0650160000
    8      C      -2.6727980000     0.6125870000     0.1203640000
    9      O      -3.4510730000     1.5920290000    -0.0499580000
   10      C      -3.1363250000    -0.6884880000     0.5022080000
   11      C      -2.2847700000    -1.7483290000     0.6855360000
   12      C      -0.8513140000    -1.6823480000     0.5198030000
   13      O      -0.1439240000    -2.7043940000     0.7085550000
   14      C      -0.3182710000    -0.3562230000     0.1242810000
   15      H       3.7860280000    -1.9097120000     0.0976580000
   16      H       3.5434090000    -0.6383100000    -1.1293880000
   17      H       3.7209900000    -0.1970320000     0.5911600000
   18      H       2.5869620000     1.3319980000    -0.6107400000
   19      H       1.0009430000     3.1918910000    -0.9231930000
   20      H      -1.4488680000     2.8044340000    -0.5691930000
   21      H      -4.2081630000    -0.8010490000     0.6423970000
   22      H      -2.6659710000    -2.7237310000     0.9752760000
 ----------------------------------------------------------------

    9    -649.9641403439      4.69e-06  Convergence criterion met
 Total energy in the final basis set =     -649.9641403439

                    Orbital Energies (a.u.)
 --------------------------------------------------------------

 Alpha MOs
 -- Occupied --
-19.1507 -19.0761 -19.0743 -10.2383 -10.2254 -10.2206 -10.2132 -10.1787
-10.1755 -10.1734 -10.1683 -10.1618 -10.1611 -10.1601  -1.0693  -1.0007
 -0.9984  -0.8557  -0.8019  -0.7587  -0.7415  -0.6947  -0.6737  -0.6165
 -0.6074  -0.5595  -0.5170  -0.5047  -0.4868  -0.4704  -0.4667  -0.4545
 -0.4351  -0.4179  -0.4146  -0.4084  -0.3945  -0.3861  -0.3786  -0.3631
 -0.3580  -0.3509  -0.3331  -0.3191  -0.2777  -0.2530  -0.2434  -0.2330
 -0.2309  -0.1525

 Beta MOs
 -- Occupied --
-19.1506 -19.0700 -19.0680 -10.2383 -10.2240 -10.2188 -10.2132 -10.1784
-10.1750 -10.1731 -10.1678 -10.1616 -10.1594 -10.1587  -1.0691  -0.9899
 -0.9874  -0.8538  -0.7965  -0.7575  -0.7393  -0.6934  -0.6646  -0.6134
 -0.6052  -0.5579  -0.5149  -0.5021  -0.4853  -0.4685  -0.4662  -0.4529
 -0.4331  -0.4131  -0.4078  -0.4015  -0.3910  -0.3840  -0.3583  -0.3561
 -0.3496  -0.3493  -0.3325  -0.3144  -0.2490  -0.2471  -0.2377  -0.2274
 -0.2247

          Ground-State Mulliken Net Atomic Charges

     Atom                 Charge (a.u.)    Spin (a.u.)
  --------------------------------------------------------
      1 C                    -0.303710      -0.000458
      2 O                    -0.171346      -0.000587
      3 C                     0.232740       0.037324
      4 C                    -0.065190       0.047664
      5 C                    -0.424540       0.022955
      6 C                    -0.026394       0.043555
      7 C                     0.040661       0.015424
      8 C                    -0.350793       0.113841
      9 O                    -0.524219       0.219459
     10 C                    -0.182313       0.070098
     11 C                    -0.059248       0.136929
     12 C                    -0.328057       0.060592
     13 O                    -0.512132       0.230385
     14 C                     0.179624       0.030182
     15 H                     0.199180      -0.000154
     16 H                     0.166995       0.000354
     17 H                     0.166761       0.000373
     18 H                     0.204951      -0.002946
     19 H                     0.211196      -0.001930
     20 H                     0.161791      -0.003110
     21 H                     0.193499      -0.007850
     22 H                     0.190542      -0.012101
  --------------------------------------------------------
  Sum of atomic charges =    -1.000000

                    Cartesian Multipole Moments
 -----------------------------------------------------------------
    Charge (ESU x 10^10)
                -4.8032
    Dipole Moment (Debye)
         X      10.6268      Y       3.1713      Z      -1.9124
       Tot      11.2536
    Quadrupole Moments (Debye-Ang)
        XX    -102.5502     XY      16.4788     YY    -109.4381
        XZ      -2.5982     YZ       4.0667     ZZ     -87.6607

 Total job time:  42.02s(wall), 229.85s(cpu)
        *  Thank you very much for using Q-Chem.  Have a nice day.  *
