 Gaussian 16, Revision A.03,
 Gaussian 16:  ES64L-G16RevA.03 25-Dec-2016

 ----------------------------------------------------------------
 #P UB3LYP/6-311++G(d,p) SCRF=(PCM,Solvent=n,n-DiMethylFormamide)
 ----------------------------------------------------------------

 ------------------
 Radical PCM in DMF
 ------------------
 Symbolic Z-matrix:
 Charge = -1 Multiplicity = 2

                         Standard orientation:
 ---------------------------------------------------------------------
 Center     Atomic      Atomic             Coordinates (Angstroms)
 Number     Number       Type             X           Y           Z
 ---------------------------------------------------------------------
      1          8           0        1.763672    2.826027   -0.000132
      2          6           0        1.391251    1.627122   -0.000557
      3          6           0        2.359616    0.528851   -0.000258
      4          6           0        3.740632    0.812680   -0.000060
      5          6           0        4.674025   -0.206376    0.000273
      6          6           0        4.244187   -1.548620    0.000469
      7          6           0        2.893303   -1.842574    0.000259
      8          6           0        1.924555   -0.817176   -0.000167
      9          6           0        0.495638   -1.191086   -0.000527
     10          8           0        0.191340   -2.411268    0.000265
     11          6           0       -0.478644   -0.099725   -0.000340
     12          6           0       -1.916516   -0.340910   -0.000151
     13          6           0       -2.498490   -1.637939   -0.000385
     14          6           0       -3.870725   -1.819435   -0.000264
     15          6           0       -4.744805   -0.720364    0.000165
     16          6           0       -4.215885    0.554960    0.000428
     17          6           0       -2.819635    0.773675    0.000238
     18          6           0       -2.299390    2.105032    0.000409
     19          6           0       -0.955765    2.324018    0.000143
     20          6           0       -0.021117    1.251213   -0.000235
     21          1           0        4.036533    1.855306   -0.000193
     22          1           0        5.735189    0.024511    0.000417
     23          1           0        4.975153   -2.351903    0.000783
     24          1           0        2.535916   -2.865286    0.000418
     25          1           0       -1.830956   -2.485547   -0.000667
     26          1           0       -4.271855   -2.828577   -0.000471
     27          1           0       -5.820089   -0.870666    0.000299
     28          1           0       -4.871784    1.421306    0.000787
     29          1           0       -2.998450    2.936883    0.000755
     30          1           0       -0.543167    3.325834    0.000164
 ---------------------------------------------------------------------

 SCF Done:  E(UB3LYP) =  -842.770536448     A.U. after   19 cycles

 The electronic state is 2-A.
 Alpha  occ. eigenvalues --  -19.07819 -19.07503 -10.22754 -10.22559 -10.18622
 Alpha  occ. eigenvalues --  -10.18291 -10.17905 -10.17445 -10.17408 -10.17397
 Alpha  occ. eigenvalues --  -10.17381 -10.17305 -10.17301 -10.17244 -10.17134
 Alpha  occ. eigenvalues --  -10.17117 -10.17073 -10.16997 -10.16773 -10.16236
 Alpha  occ. eigenvalues --   -1.00625  -1.00341  -0.87290  -0.85824  -0.82487
 Alpha  occ. eigenvalues --   -0.78565  -0.76148  -0.75093  -0.74267  -0.71979
 Alpha  occ. eigenvalues --   -0.67041  -0.63750  -0.62494  -0.60514  -0.59146
 Alpha  occ. eigenvalues --   -0.55754  -0.54663  -0.51782  -0.49937  -0.49199
 Alpha  occ. eigenvalues --   -0.47091  -0.46335  -0.45193  -0.43684  -0.42776
 Alpha  occ. eigenvalues --   -0.42583  -0.42498  -0.41855  -0.40565  -0.40155
 Alpha  occ. eigenvalues --   -0.39691  -0.38748  -0.38089  -0.37536  -0.35510
 Alpha  occ. eigenvalues --   -0.35304  -0.34358  -0.33987  -0.33181  -0.32284
 Alpha  occ. eigenvalues --   -0.28437  -0.26314  -0.25707  -0.24954  -0.24612
 Alpha  occ. eigenvalues --   -0.23371  -0.22406  -0.14651
 Alpha virt. eigenvalues --   -0.05258  -0.03915  -0.01271  -0.00332   0.00275
 Alpha virt. eigenvalues --    0.00294   0.00971   0.01757   0.02048   0.03407
 Alpha virt. eigenvalues --    0.03611   0.03860   0.04276   0.04705   0.05424

  Beta  occ. eigenvalues --  -19.07260 -19.06981 -10.22587 -10.22406 -10.18628
  Beta  occ. eigenvalues --  -10.18285 -10.17792 -10.17412 -10.17364 -10.17353
  Beta  occ. eigenvalues --  -10.17286 -10.17252 -10.17241 -10.17225 -10.17109
  Beta  occ. eigenvalues --  -10.17057 -10.17033 -10.16996 -10.16814 -10.16219
  Beta  occ. eigenvalues --   -0.99672  -0.99389  -0.87146  -0.85669  -0.82287
  Beta  occ. eigenvalues --   -0.78268  -0.75997  -0.74921  -0.74122  -0.71818
  Beta  occ. eigenvalues --   -0.66319  -0.63601  -0.62283  -0.60415  -0.59071
  Beta  occ. eigenvalues --   -0.55535  -0.54461  -0.51642  -0.49841  -0.49059
  Beta  occ. eigenvalues --   -0.46840  -0.46230  -0.45111  -0.43580  -0.42671
  Beta  occ. eigenvalues --   -0.42536  -0.41576  -0.41304  -0.40386  -0.39951
  Beta  occ. eigenvalues --   -0.39455  -0.38290  -0.37424  -0.35981  -0.35427
  Beta  occ. eigenvalues --   -0.34576  -0.34276  -0.33894  -0.33068  -0.31480
  Beta  occ. eigenvalues --   -0.27686  -0.25214  -0.24867  -0.24345  -0.24107
  Beta  occ. eigenvalues --   -0.22898  -0.21731
  Beta virt. eigenvalues --   -0.08917  -0.04503  -0.03073  -0.00965  -0.00320
  Beta virt. eigenvalues --    0.00295   0.00748   0.00978   0.01768   0.02049
  Beta virt. eigenvalues --    0.03414   0.03615   0.04291   0.04319   0.04857

 Mulliken charges and spin densities:
               1          2
     1  O   -0.439317   0.207364
     2  C   -0.753485   0.086756
     3  C    0.157888   0.011206
     4  C   -0.051659   0.025104
     5  C   -0.481376   0.022592
     6  C   -0.465501   0.027842
     7  C    0.023128   0.019880
     8  C    0.196600   0.003547
     9  C   -0.575949   0.100682
    10  O   -0.407385   0.198153
    11  C    0.649009   0.091355
    12  C    0.906072   0.005039
    13  C   -0.584282   0.013131
    14  C   -0.546328   0.009304
    15  C   -0.318092   0.014593
    16  C   -0.454278   0.010280
    17  C    0.468799  -0.005622
    18  C   -0.488161   0.087910
    19  C   -0.220697  -0.013357
    20  C    0.691073   0.103870
    21  H    0.163293  -0.001859
    22  H    0.182741  -0.002021
    23  H    0.183896  -0.002328
    24  H    0.161399  -0.001452
    25  H    0.150089  -0.003990
    26  H    0.189687  -0.000881
    27  H    0.179494  -0.001014
    28  H    0.150827  -0.001731
    29  H    0.169437  -0.005050
    30  H    0.163079   0.000697
 Sum of Mulliken charges =  -1.00000   1.00000

 Dipole moment (field-independent basis, Debye):
    X=             -3.2472    Y=             -1.0209    Z=             -0.0003  Tot=              3.4039
 Quadrupole moment (field-independent basis, Debye-Ang):
   XX=           -119.3487   YY=           -143.8603   ZZ=           -124.4963
   XY=            -12.1839   XZ=             -0.0002   YZ=              0.0041

 Normal termination of Gaussian 16 at Sun Jan 14 01:18:37 2024.
