 Gaussian 16, Revision A.03,
 Gaussian 16:  ES64L-G16RevA.03 25-Dec-2016

 ----------------------------------------------------------------
 #P UB3LYP/6-311++G(d,p) SCRF=(PCM,Solvent=n,n-DiMethylFormamide)
 ----------------------------------------------------------------

 ------------------
 Radical PCM in DMF
 ------------------
 Symbolic Z-matrix:
 Charge = -1 Multiplicity = 2

                         Standard orientation:
 ---------------------------------------------------------------------
 Center     Atomic      Atomic             Coordinates (Angstroms)
 Number     Number       Type             X           Y           Z
 ---------------------------------------------------------------------
      1          6           0        1.074339   -1.050903   -0.688901
      2          6           0        2.380304   -1.673158   -0.512274
      3          6           0        3.448481   -1.018212    0.019861
      4          6           0        3.369254    0.368352    0.454706
      5          6           0        2.080820    0.989765    0.290517
      6          6           0        0.970122    0.328620   -0.210805
      7          8           0        0.135669   -1.665600   -1.254171
      8          8           0        4.364086    0.973636    0.945280
      9          6           0       -1.622079    0.426812   -0.022409
     10          6           0       -2.783349    0.988673   -0.564166
     11          6           0       -1.740218   -0.662182    0.847033
     12          6           0       -2.993502   -1.175074    1.170657
     13          6           0       -4.036021    0.461311   -0.262753
     14          6           0       -4.145110   -0.620997    0.611035
     15          1           0        2.459687   -2.701882   -0.852722
     16          1           0        4.411648   -1.508786    0.133138
     17          1           0        1.987946    2.025821    0.598122
     18          1           0       -2.682280    1.844786   -1.220455
     19          1           0       -0.847594   -1.105859    1.268705
     20          1           0       -3.071233   -2.016218    1.851725
     21          1           0       -4.927507    0.896296   -0.703543
     22          1           0       -5.120636   -1.030490    0.853817
     23          6           0       -0.298409    1.093619   -0.308542
     24          8           0       -0.304483    2.299036   -0.550176
 ---------------------------------------------------------------------

 SCF Done:  E(UB3LYP) =  -726.199834459     A.U. after   20 cycles

 The electronic state is 2-A.
 Alpha  occ. eigenvalues --  -19.11253 -19.08568 -19.08564 -10.26460 -10.23460
 Alpha  occ. eigenvalues --  -10.22676 -10.18719 -10.18343 -10.18269 -10.18114
 Alpha  occ. eigenvalues --  -10.18029 -10.17991 -10.17931 -10.17546 -10.17379
 Alpha  occ. eigenvalues --  -10.17236  -1.04439  -1.01094  -1.00543  -0.86585
 Alpha  occ. eigenvalues --   -0.83232  -0.77417  -0.75688  -0.75305  -0.69625
 Alpha  occ. eigenvalues --   -0.65077  -0.61702  -0.60557  -0.58749  -0.55176
 Alpha  occ. eigenvalues --   -0.51351  -0.48431  -0.48063  -0.46862  -0.46110
 Alpha  occ. eigenvalues --   -0.44587  -0.43998  -0.42973  -0.42751  -0.41458
 Alpha  occ. eigenvalues --   -0.41180  -0.40306  -0.38393  -0.38296  -0.36964
 Alpha  occ. eigenvalues --   -0.36705  -0.36247  -0.34878  -0.29102  -0.27752
 Alpha  occ. eigenvalues --   -0.26904  -0.26497  -0.25713  -0.24856  -0.23989
 Alpha  occ. eigenvalues --   -0.17304
 Alpha virt. eigenvalues --   -0.07099  -0.02207  -0.01835  -0.00262   0.00651
 Alpha virt. eigenvalues --    0.01165   0.01419   0.02002   0.02353   0.03626
 Alpha virt. eigenvalues --    0.04066   0.04334   0.04403   0.05100   0.05409

  Beta  occ. eigenvalues --  -19.11203 -19.07933 -19.07808 -10.26452 -10.23376
  Beta  occ. eigenvalues --  -10.22567 -10.18720 -10.18341 -10.18265 -10.18112
  Beta  occ. eigenvalues --  -10.18029 -10.17991 -10.17833 -10.17333 -10.17314
  Beta  occ. eigenvalues --  -10.17135  -1.04342  -1.00008  -0.99208  -0.86575
  Beta  occ. eigenvalues --   -0.82610  -0.77292  -0.75599  -0.75196  -0.68655
  Beta  occ. eigenvalues --   -0.64810  -0.61639  -0.60383  -0.58388  -0.55063
  Beta  occ. eigenvalues --   -0.51194  -0.48227  -0.47798  -0.46612  -0.46037
  Beta  occ. eigenvalues --   -0.44419  -0.43813  -0.42899  -0.42631  -0.40675
  Beta  occ. eigenvalues --   -0.40500  -0.39233  -0.38014  -0.36794  -0.36604
  Beta  occ. eigenvalues --   -0.36356  -0.35339  -0.34706  -0.27620  -0.26646
  Beta  occ. eigenvalues --   -0.26277  -0.25706  -0.25222  -0.24215  -0.23471
  Beta virt. eigenvalues --   -0.10246  -0.06427  -0.01856  -0.01260  -0.00236
  Beta virt. eigenvalues --    0.00673   0.01401   0.01876   0.02375   0.02549
  Beta virt. eigenvalues --    0.03771   0.04129   0.04413   0.05059   0.05162

 Mulliken charges and spin densities:
               1          2
     1  C   -1.111188   0.030123
     2  C    0.023035   0.099636
     3  C    0.059400   0.028228
     4  C   -0.484341   0.135310
     5  C    0.086642   0.102770
     6  C    1.616692   0.088058
     7  O   -0.403451   0.227597
     8  O   -0.484421   0.267335
     9  C    1.267668  -0.002670
    10  C    0.469854  -0.004463
    11  C   -1.017719   0.015810
    12  C   -0.366990  -0.004382
    13  C   -0.408128   0.002093
    14  C   -0.298450   0.002559
    15  H    0.203652  -0.006764
    16  H    0.199441  -0.003503
    17  H    0.217796  -0.012757
    18  H    0.207600  -0.000409
    19  H    0.173612   0.001671
    20  H    0.201541  -0.000120
    21  H    0.197809   0.000066
    22  H    0.181513  -0.000100
    23  C   -1.241078   0.017091
    24  O   -0.290489   0.016822
 Sum of Mulliken charges =  -1.00000   1.00000

 Dipole moment (field-independent basis, Debye):
    X=             -9.8020    Y=             -3.3193    Z=              1.5570  Tot=             10.4653
 Quadrupole moment (field-independent basis, Debye-Ang):
   XX=           -129.9986   YY=           -110.9075   ZZ=           -101.7900
   XY=            -11.9876   XZ=            -10.9134   YZ=             -8.4390

 Normal termination of Gaussian 16 at Wed Jan 24 22:52:15 2024.
