 Q-Chem 5.4, Q-Chem, Inc., Pleasanton, CA (2021)
 Q-Chem 5.4.0 for Intel X86 EM64T Linux

User input:
--------------------------------------------------------------
$molecule
-1 1
O                 -1.7480190000     -2.7394450000     -1.4652100000
S                 -2.8292550000     -2.3154200000     -0.5491090000
O                 -2.9702900000     -3.0914890000      0.6995820000
O                 -4.1225510000     -2.0453950000     -1.2322070000
C                 -2.3230350000     -0.6001670000     -0.0153920000
C                 -3.3547410000      0.3403310000      0.0079710000
C                 -3.1097570000      1.6848360000      0.2795720000
C                 -1.8090320000      2.1257890000      0.4728660000
C                 -0.7531650000      1.2103000000      0.4346370000
C                  0.6298140000      1.7564210000      0.5318790000
O                  0.8445390000      2.9385700000      0.7726530000
C                  1.7571600000      0.8194400000      0.2617160000
C                  3.0580470000      1.3127720000      0.1081660000
C                  4.1049310000      0.4385070000     -0.1545690000
C                  3.8622360000     -0.9368390000     -0.2455580000
C                  2.5769640000     -1.4343390000     -0.0656800000
C                  1.5165640000     -0.5570150000      0.1767090000
C                  0.1425010000     -1.1150450000      0.4161670000
O                  0.0215770000     -2.2574110000      0.8000920000
C                 -1.0075610000     -0.1721850000      0.2472020000
H                 -4.3519910000     -0.0116140000     -0.2259420000
H                 -3.9342540000      2.3900960000      0.3030730000
H                 -1.5786560000      3.1714230000      0.6346830000
H                  3.2196650000      2.3803330000      0.1966880000
H                  5.1112490000      0.8213590000     -0.2872840000
H                  4.6807240000     -1.6179190000     -0.4533670000
H                  2.3663380000     -2.4958940000     -0.1114760000
$end

$rem
BASIS  =  6-311++G(d,p)
GUI  =  2
JOB_TYPE  =  SP
METHOD  =  B3LYP
SCF_CONVERGENCE  = 8
SOLVENT_METHOD = sm12
$end

$smx
solvent dimethylformamide
charges CM5
$end

--------------------------------------------------------------

             Standard Nuclear Orientation (Angstroms)
    I     Atom           X                Y                Z
 ----------------------------------------------------------------
    1      O      -1.7480190000    -2.7394450000    -1.4652100000
    2      S      -2.8292550000    -2.3154200000    -0.5491090000
    3      O      -2.9702900000    -3.0914890000     0.6995820000
    4      O      -4.1225510000    -2.0453950000    -1.2322070000
    5      C      -2.3230350000    -0.6001670000    -0.0153920000
    6      C      -3.3547410000     0.3403310000     0.0079710000
    7      C      -3.1097570000     1.6848360000     0.2795720000
    8      C      -1.8090320000     2.1257890000     0.4728660000
    9      C      -0.7531650000     1.2103000000     0.4346370000
   10      C       0.6298140000     1.7564210000     0.5318790000
   11      O       0.8445390000     2.9385700000     0.7726530000
   12      C       1.7571600000     0.8194400000     0.2617160000
   13      C       3.0580470000     1.3127720000     0.1081660000
   14      C       4.1049310000     0.4385070000    -0.1545690000
   15      C       3.8622360000    -0.9368390000    -0.2455580000
   16      C       2.5769640000    -1.4343390000    -0.0656800000
   17      C       1.5165640000    -0.5570150000     0.1767090000
   18      C       0.1425010000    -1.1150450000     0.4161670000
   19      O       0.0215770000    -2.2574110000     0.8000920000
   20      C      -1.0075610000    -0.1721850000     0.2472020000
   21      H      -4.3519910000    -0.0116140000    -0.2259420000
   22      H      -3.9342540000     2.3900960000     0.3030730000
   23      H      -1.5786560000     3.1714230000     0.6346830000
   24      H       3.2196650000     2.3803330000     0.1966880000
   25      H       5.1112490000     0.8213590000    -0.2872840000
   26      H       4.6807240000    -1.6179190000    -0.4533670000
   27      H       2.3663380000    -2.4958940000    -0.1114760000
 ----------------------------------------------------------------

   15   -1312.3104533307      7.22e-09  Convergence criterion met
 Total energy in the final basis set =    -1312.4157513647

                    Orbital Energies (a.u.)
 --------------------------------------------------------------

 Alpha MOs
 -- Occupied --
-89.0322 -19.1296 -19.1241 -19.0738 -19.0738 -19.0733 -10.2818 -10.2772
-10.2169 -10.2140 -10.2114 -10.2066 -10.2059 -10.1996 -10.1990 -10.1975
-10.1971 -10.1970 -10.1963 -10.1953  -8.0906  -6.0532  -6.0531  -6.0530
 -1.0945  -1.0626  -1.0605  -0.9604  -0.9571  -0.8940  -0.8821  -0.8127
 -0.7825  -0.7759  -0.7696  -0.6894  -0.6702  -0.6427  -0.6292  -0.5976
 -0.5641  -0.5604  -0.5433  -0.5037  -0.4898  -0.4866  -0.4856  -0.4713
 -0.4546  -0.4522  -0.4494  -0.4457  -0.4371  -0.4350  -0.4297  -0.4129
 -0.3969  -0.3913  -0.3904  -0.3751  -0.3683  -0.3676  -0.3180  -0.3157
 -0.3034  -0.2898  -0.2879  -0.2837  -0.2778  -0.2741  -0.2730  -0.2632
 -0.2596  -0.2373

          Ground-State Mulliken Net Atomic Charges

     Atom                 Charge (a.u.)
  ----------------------------------------
      1 O                    -0.397940
      2 S                    -0.318204
      3 O                    -0.368848
      4 O                    -0.314059
      5 C                    -3.217863
      6 C                    -0.029888
      7 C                     1.013113
      8 C                     0.337365
      9 C                     1.109387
     10 C                    -0.290794
     11 O                    -0.141182
     12 C                     1.466149
     13 C                     1.372602
     14 C                     1.367215
     15 C                     1.137701
     16 C                    -0.196131
     17 C                    -1.403966
     18 C                    -2.054074
     19 O                    -0.256119
     20 C                    -1.920823
     21 H                     0.158950
     22 H                     0.456876
     23 H                     0.289372
     24 H                     0.236145
     25 H                     0.409384
     26 H                     0.375454
     27 H                     0.180177
  ----------------------------------------
  Sum of atomic charges =    -1.000000

                    Cartesian Multipole Moments
 -----------------------------------------------------------------
    Charge (ESU x 10^10)
                -4.8032
    Dipole Moment (Debye)
         X      13.9016      Y      12.3448      Z       1.3869
       Tot      18.6433
    Quadrupole Moments (Debye-Ang)
        XX    -148.5996     XY     -44.4273     YY    -169.9410
        XZ     -11.8991     YZ      -6.1119     ZZ    -137.3903

 Total job time:  640.47s(wall), 4936.24s(cpu)
        *  Thank you very much for using Q-Chem.  Have a nice day.  *
