 Gaussian 16, Revision A.03,
 Gaussian 16:  ES64L-G16RevA.03 25-Dec-2016

 ----------------------------------------------------------------
 #P UB3LYP/6-311++G(d,p) SCRF=(PCM,Solvent=n,n-DiMethylFormamide)
 ----------------------------------------------------------------

 ------------------
 Radical PCM in DMF
 ------------------
 Symbolic Z-matrix:
 Charge = -1 Multiplicity = 2

                         Standard orientation:
 ---------------------------------------------------------------------
 Center     Atomic      Atomic             Coordinates (Angstroms)
 Number     Number       Type             X           Y           Z
 ---------------------------------------------------------------------
      1          6           0        3.002690   -1.565789   -0.000014
      2          6           0        4.240836   -0.973315    0.000041
      3          6           0        4.360254    0.442847    0.000042
      4          6           0        1.808203   -0.784948   -0.000038
      5          6           0        1.931258    0.650589    0.000017
      6          6           0        3.230755    1.226841    0.000049
      7          6           0        0.526185   -1.358981   -0.000084
      8          6           0       -0.627422   -0.575837   -0.000068
      9          6           0       -0.502644    0.861544   -0.000061
     10          6           0        0.755724    1.431734    0.000026
     11          6           0       -1.940942   -1.189448    0.000014
     12          6           0       -3.073627   -0.293945    0.000032
     13          6           0       -2.976584    1.079707   -0.000012
     14          6           0       -1.707179    1.745113   -0.000164
     15          8           0       -2.164588   -2.445024   -0.000043
     16          8           0       -1.587772    2.992141    0.000028
     17          8           0       -4.275355   -0.927998    0.000134
     18          1           0        2.912330   -2.648039    0.000011
     19          1           0        5.136895   -1.586240    0.000095
     20          1           0        5.344371    0.900125    0.000037
     21          1           0        3.314675    2.309727    0.000047
     22          1           0        0.410912   -2.437686   -0.000064
     23          1           0        0.818238    2.515130    0.000060
     24          1           0       -3.871742    1.691527    0.000023
     25          1           0       -4.009012   -1.874154    0.000164
 ---------------------------------------------------------------------

 SCF Done:  E(UB3LYP) =  -764.347528396     A.U. after   20 cycles

 The electronic state is 2-A.
 Alpha  occ. eigenvalues --  -19.14827 -19.08653 -19.07706 -10.23040 -10.22896
 Alpha  occ. eigenvalues --  -10.22162 -10.18714 -10.18633 -10.17926 -10.17897
 Alpha  occ. eigenvalues --  -10.17886 -10.17824 -10.17791 -10.17772 -10.17514
 Alpha  occ. eigenvalues --  -10.17422 -10.15723  -1.06867  -1.00434  -0.99700
 Alpha  occ. eigenvalues --   -0.87954  -0.83631  -0.79298  -0.77933  -0.74027
 Alpha  occ. eigenvalues --   -0.73048  -0.67481  -0.64433  -0.61744  -0.60108
 Alpha  occ. eigenvalues --   -0.57719  -0.54211  -0.53217  -0.50433  -0.49107
 Alpha  occ. eigenvalues --   -0.46583  -0.45966  -0.44347  -0.43658  -0.43417
 Alpha  occ. eigenvalues --   -0.42034  -0.41359  -0.41137  -0.40068  -0.39941
 Alpha  occ. eigenvalues --   -0.38242  -0.37660  -0.36462  -0.36241  -0.34715
 Alpha  occ. eigenvalues --   -0.33192  -0.32261  -0.29395  -0.26426  -0.26112
 Alpha  occ. eigenvalues --   -0.24320  -0.23826  -0.22835  -0.14986
 Alpha virt. eigenvalues --   -0.06320  -0.01982  -0.00318  -0.00017   0.00438
 Alpha virt. eigenvalues --    0.01069   0.02245   0.02323   0.04078   0.04274
 Alpha virt. eigenvalues --    0.04321   0.04925   0.04942   0.05962   0.06550

  Beta  occ. eigenvalues --  -19.14771 -19.08007 -19.07253 -10.22937 -10.22765
  Beta  occ. eigenvalues --  -10.21847 -10.18733 -10.18568 -10.17949 -10.17925
  Beta  occ. eigenvalues --  -10.17892 -10.17793 -10.17725 -10.17717 -10.17550
  Beta  occ. eigenvalues --  -10.17296 -10.15621  -1.06636  -0.99649  -0.98589
  Beta  occ. eigenvalues --   -0.87848  -0.83393  -0.78935  -0.77808  -0.73890
  Beta  occ. eigenvalues --   -0.72854  -0.66579  -0.64285  -0.61493  -0.60062
  Beta  occ. eigenvalues --   -0.57460  -0.54003  -0.53076  -0.50338  -0.48823
  Beta  occ. eigenvalues --   -0.46410  -0.45869  -0.44260  -0.43318  -0.42312
  Beta  occ. eigenvalues --   -0.41991  -0.40891  -0.40811  -0.39966  -0.39520
  Beta  occ. eigenvalues --   -0.37533  -0.36796  -0.36284  -0.34679  -0.34581
  Beta  occ. eigenvalues --   -0.33126  -0.31169  -0.28950  -0.25536  -0.24876
  Beta  occ. eigenvalues --   -0.23880  -0.22962  -0.22129
  Beta virt. eigenvalues --   -0.08636  -0.05735  -0.01146  -0.00299   0.00314
  Beta virt. eigenvalues --    0.00461   0.01078   0.02261   0.02335   0.04086
  Beta virt. eigenvalues --    0.04336   0.04965   0.05076   0.05353   0.06514

 Mulliken charges and spin densities:
               1          2
     1  C   -0.193397   0.038100
     2  C   -0.343606  -0.015050
     3  C   -0.356728   0.049041
     4  C    0.193278  -0.016264
     5  C    0.202535   0.053228
     6  C   -0.179704  -0.027653
     7  C    0.085345   0.141162
     8  C    0.307265  -0.034451
     9  C    0.329485   0.046722
    10  C    0.147603  -0.026434
    11  C   -0.812484   0.171005
    12  C   -0.399716   0.095825
    13  C    0.476228   0.074086
    14  C   -0.639622   0.052992
    15  O   -0.515503   0.238955
    16  O   -0.478480   0.162634
    17  O   -0.288819   0.018610
    18  H    0.162606  -0.001650
    19  H    0.188242   0.000663
    20  H    0.187183  -0.003358
    21  H    0.163640   0.001893
    22  H    0.142909  -0.008572
    23  H    0.137155   0.000250
    24  H    0.194847  -0.008472
    25  H    0.289737  -0.003263
 Sum of Mulliken charges =  -1.00000   1.00000

 Dipole moment (field-independent basis, Debye):
    X=             10.0721    Y=             -2.2602    Z=              0.0001  Tot=             10.3226
 Quadrupole moment (field-independent basis, Debye-Ang):
   XX=           -121.5911   YY=           -129.8111   ZZ=           -104.9722
   XY=              1.8274   XZ=              0.0003   YZ=             -0.0011

 Normal termination of Gaussian 16 at Sat Jan 13 19:19:51 2024.
