 Gaussian 16, Revision A.03,
 Gaussian 16:  ES64L-G16RevA.03 25-Dec-2016

 ----------------------------------------------------------------
 #P UB3LYP/6-311++G(d,p) SCRF=(PCM,Solvent=n,n-DiMethylFormamide)
 ----------------------------------------------------------------

 -------
 Reduced
 -------
 Symbolic Z-matrix:
 Charge = -2 Multiplicity = 1

                         Standard orientation:
 ---------------------------------------------------------------------
 Center     Atomic      Atomic             Coordinates (Angstroms)
 Number     Number       Type             X           Y           Z
 ---------------------------------------------------------------------
      1          6           0        0.682497    1.703090   -0.089602
      2          6           0       -0.594307    2.361213    0.119052
      3          6           0       -1.794172    1.702341    0.215668
      4          6           0       -1.961161    0.264640    0.116060
      5          6           0       -0.708977   -0.376451   -0.018482
      6          6           0        0.586056    0.242905   -0.102070
      7          8           0        1.754327    2.386182   -0.163193
      8          8           0       -3.128463   -0.280739    0.116583
      9          6           0        1.823762   -0.529580   -0.003185
     10          6           0        1.897512   -1.663573    1.043200
     11          8           0        2.873989   -0.288429   -0.609853
     12          1           0        0.989494   -1.774717    1.635035
     13          1           0        2.740756   -1.414308    1.699463
     14          1           0        2.123811   -2.618322    0.555334
     15          1           0       -2.721276    2.265460    0.330612
     16         17           0       -0.833171   -2.157103   -0.401625
     17          1           0       -0.554960    3.449003    0.175042
 ---------------------------------------------------------------------

 SCF Done:  E(UB3LYP) =  -994.151489231     A.U. after   17 cycles

 The electronic state is 1-A.
 Alpha  occ. eigenvalues -- -101.52159 -19.08162 -19.03239 -19.02498 -10.23426
 Alpha  occ. eigenvalues --  -10.19680 -10.18656 -10.18608 -10.14951 -10.14574
 Alpha  occ. eigenvalues --  -10.14540 -10.13822  -9.43605  -7.19979  -7.19148
 Alpha  occ. eigenvalues --   -7.19098  -1.00883  -0.95292  -0.94166  -0.83104
 Alpha  occ. eigenvalues --   -0.78038  -0.73219  -0.69396  -0.65875  -0.59515
 Alpha  occ. eigenvalues --   -0.54056  -0.50278  -0.45632  -0.44489  -0.43152
 Alpha  occ. eigenvalues --   -0.42036  -0.40264  -0.39523  -0.38084  -0.37134
 Alpha  occ. eigenvalues --   -0.36481  -0.35174  -0.34288  -0.33252  -0.32405
 Alpha  occ. eigenvalues --   -0.30445  -0.28695  -0.24057  -0.23728  -0.22127
 Alpha  occ. eigenvalues --   -0.20593  -0.19998  -0.13343
 Alpha virt. eigenvalues --   -0.02911   0.00201   0.01167   0.01825   0.02530
 Alpha virt. eigenvalues --    0.03769   0.04035   0.04257   0.04913   0.06318
 Alpha virt. eigenvalues --    0.06546   0.06747   0.07422   0.07735   0.08194

  Beta  occ. eigenvalues -- -101.52159 -19.08162 -19.03239 -19.02498 -10.23426
  Beta  occ. eigenvalues --  -10.19680 -10.18656 -10.18608 -10.14951 -10.14574
  Beta  occ. eigenvalues --  -10.14540 -10.13822  -9.43605  -7.19979  -7.19148
  Beta  occ. eigenvalues --   -7.19098  -1.00883  -0.95292  -0.94166  -0.83104
  Beta  occ. eigenvalues --   -0.78038  -0.73219  -0.69396  -0.65875  -0.59515
  Beta  occ. eigenvalues --   -0.54056  -0.50278  -0.45632  -0.44489  -0.43152
  Beta  occ. eigenvalues --   -0.42036  -0.40264  -0.39523  -0.38084  -0.37134
  Beta  occ. eigenvalues --   -0.36481  -0.35174  -0.34288  -0.33252  -0.32405
  Beta  occ. eigenvalues --   -0.30445  -0.28695  -0.24057  -0.23728  -0.22127
  Beta  occ. eigenvalues --   -0.20593  -0.19998  -0.13343
  Beta virt. eigenvalues --   -0.02911   0.00201   0.01167   0.01825   0.02530
  Beta virt. eigenvalues --    0.03769   0.04035   0.04257   0.04913   0.06318
  Beta virt. eigenvalues --    0.06546   0.06747   0.07422   0.07735   0.08194

 Mulliken charges and spin densities:
               1          2
     1  C   -0.954883   0.000000
     2  C    0.105476  -0.000000
     3  C   -0.173469  -0.000000
     4  C   -0.493018   0.000000
     5  C    0.917053   0.000000
     6  C   -0.075924  -0.000000
     7  O   -0.608838  -0.000000
     8  O   -0.650127  -0.000000
     9  C    0.156102   0.000000
    10  C   -0.684970  -0.000000
    11  O   -0.406387   0.000000
    12  H    0.128728   0.000000
    13  H    0.159621   0.000000
    14  H    0.171732  -0.000000
    15  H    0.159548  -0.000000
    16  Cl   0.092018  -0.000000
    17  H    0.157339   0.000000
 Sum of Mulliken charges =  -2.00000  -0.00000

 Dipole moment (field-independent basis, Debye):
    X=              1.1664    Y=             -4.2636    Z=              2.5848  Tot=              5.1205
 Quadrupole moment (field-independent basis, Debye-Ang):
   XX=           -148.9741   YY=           -107.3553   ZZ=            -85.5635
   XY=            -20.2678   XZ=              7.6554   YZ=             -0.0430

 Normal termination of Gaussian 16 at Sun Jan 21 07:46:52 2024.
