 Gaussian 16, Revision A.03,
 Gaussian 16:  ES64L-G16RevA.03 25-Dec-2016

 --------------------------------------
 #P UB3LYP/6-311++G(d,p) nosym opt freq
 --------------------------------------

 -------
 Reduced
 -------
 Symbolic Z-matrix:
 Charge = -2 Multiplicity = 1

 SCF Done:  E(UB3LYP) =  -993.871590434     A.U. after   24 cycles
 SCF Done:  E(UB3LYP) =  -993.871590460     A.U. after   12 cycles
 SCF Done:  E(UB3LYP) =  -993.871590485     A.U. after   12 cycles
 Optimization completed.
    -- Stationary point found.
 Normal termination of Gaussian 16 at Sat Jan  6 06:02:03 2024.

 ----------------------------------------------------------------------
 #P Geom=AllCheck Guess=TCheck SCRF=Check GenChk UB3LYP/6-311++G(d,p) F
 req
 ----------------------------------------------------------------------

 Structure from the checkpoint file:  "060-an.chk"
 -------
 Reduced
 -------
 Charge = -2 Multiplicity = 1

                          Input orientation:
 ---------------------------------------------------------------------
 Center     Atomic      Atomic             Coordinates (Angstroms)
 Number     Number       Type             X           Y           Z
 ---------------------------------------------------------------------
      1          6           0       -0.441294    1.217531   -0.300502
      2          6           0       -1.473192    0.217436   -0.505170
      3          6           0       -1.257993   -1.136302   -0.440333
      4          6           0        0.023175   -1.760238   -0.168108
      5          6           0        1.009117   -0.783342    0.097704
      6          6           0        0.853191    0.645907    0.072529
      7          8           0       -0.722909    2.457037   -0.372387
      8          8           0        0.175714   -3.038557   -0.219722
      9          6           0        1.879846    1.548017    0.592727
     10          6           0        2.594866    1.163391    1.906922
     11          8           0        2.159410    2.662030    0.134475
     12          1           0        2.243981    0.227213    2.340016
     13          1           0        2.407954    1.988989    2.605009
     14          1           0        3.677021    1.098483    1.747239
     15          1           0       -2.072702   -1.831565   -0.646964
     16         17           0        2.701998   -1.458549    0.203491
     17          1           0       -2.461752    0.609136   -0.744524
 ---------------------------------------------------------------------

 SCF Done:  E(UB3LYP) =  -993.871590485     A.U. after    2 cycles

 Alpha  occ. eigenvalues -- -101.26738 -18.82239 -18.76562 -18.75605  -9.97722
 Alpha  occ. eigenvalues --   -9.93497  -9.92517  -9.92411  -9.91755  -9.89137
 Alpha  occ. eigenvalues --   -9.88598  -9.88449  -9.18171  -6.94537  -6.93729
 Alpha  occ. eigenvalues --   -6.93668  -0.74885  -0.68512  -0.67255  -0.57312
 Alpha  occ. eigenvalues --   -0.52284  -0.48491  -0.44602  -0.39863  -0.33953
 Alpha  occ. eigenvalues --   -0.28447  -0.24637  -0.20051  -0.19138  -0.17847
 Alpha  occ. eigenvalues --   -0.17628  -0.15420  -0.14338  -0.12790  -0.10940
 Alpha  occ. eigenvalues --   -0.10185  -0.08937  -0.08465  -0.06956  -0.06538
 Alpha  occ. eigenvalues --   -0.04400  -0.03146   0.01993   0.02675   0.03953
 Alpha  occ. eigenvalues --    0.06409   0.06674   0.13265
 Alpha virt. eigenvalues --    0.18326   0.19262   0.20840   0.21163   0.22717
 Alpha virt. eigenvalues --    0.22896   0.24221   0.26182   0.27677   0.28063
 Alpha virt. eigenvalues --    0.28372   0.28795   0.29113   0.30183   0.30840

  Beta  occ. eigenvalues -- -101.26738 -18.82239 -18.76562 -18.75605  -9.97722
  Beta  occ. eigenvalues --   -9.93497  -9.92517  -9.92411  -9.91755  -9.89137
  Beta  occ. eigenvalues --   -9.88598  -9.88449  -9.18171  -6.94537  -6.93729
  Beta  occ. eigenvalues --   -6.93668  -0.74885  -0.68512  -0.67255  -0.57312
  Beta  occ. eigenvalues --   -0.52284  -0.48491  -0.44602  -0.39863  -0.33953
  Beta  occ. eigenvalues --   -0.28447  -0.24637  -0.20051  -0.19138  -0.17847
  Beta  occ. eigenvalues --   -0.17628  -0.15420  -0.14338  -0.12790  -0.10940
  Beta  occ. eigenvalues --   -0.10185  -0.08937  -0.08465  -0.06956  -0.06538
  Beta  occ. eigenvalues --   -0.04400  -0.03146   0.01993   0.02675   0.03953
  Beta  occ. eigenvalues --    0.06409   0.06674   0.13265
  Beta virt. eigenvalues --    0.18326   0.19262   0.20840   0.21163   0.22717
  Beta virt. eigenvalues --    0.22896   0.24221   0.26182   0.27677   0.28063
  Beta virt. eigenvalues --    0.28372   0.28795   0.29113   0.30183   0.30840

 Mulliken charges and spin densities:
               1          2
     1  C   -1.314099   0.000000
     2  C    0.349181  -0.000000
     3  C    0.037587   0.000000
     4  C   -0.961027  -0.000000
     5  C    1.409796  -0.000000
     6  C   -0.090652   0.000000
     7  O   -0.475740  -0.000000
     8  O   -0.510690   0.000000
     9  C    0.023926  -0.000000
    10  C   -0.623264   0.000000
    11  O   -0.331703   0.000000
    12  H    0.104213   0.000000
    13  H    0.100409  -0.000000
    14  H    0.095269   0.000000
    15  H    0.073376   0.000000
    16  Cl   0.041052   0.000000
    17  H    0.072367   0.000000
 Sum of Mulliken charges =  -2.00000  -0.00000

 Dipole moment (field-independent basis, Debye):
    X=             -5.8321    Y=             -0.4443    Z=              1.2417  Tot=              5.9794
 Quadrupole moment (field-independent basis, Debye-Ang):
   XX=           -110.8979   YY=           -154.6216   ZZ=            -87.6267
   XY=             -0.1538   XZ=             -4.0535   YZ=              0.4616

  Exact polarizability: 223.504  14.281 189.460  47.609  10.453 116.605
 Approx polarizability: 349.680  25.901 306.775  64.010   5.998 163.517

                      1                      2                      3
                      A                      A                      A
 Frequencies --     50.7230                78.1672               112.9003
 Red. masses --     10.0061                 3.6648                 7.4839
 Frc consts  --      0.0152                 0.0132                 0.0562
 IR Inten    --      4.1281                 0.9469                11.4802

                      4                      5                      6
                      A                      A                      A
 Frequencies --    152.6693               180.4455               215.2561
 Red. masses --      1.5113                 4.6612                 2.9799
 Frc consts  --      0.0208                 0.0894                 0.0814
 IR Inten    --      0.7179                 1.2877                 2.0132

                      7                      8                      9
                      A                      A                      A
 Frequencies --    233.0025               299.6538               316.5904
 Red. masses --     16.2522                 7.6848                 9.9361
 Frc consts  --      0.5199                 0.4066                 0.5868
 IR Inten    --      5.5152                14.4498                 0.8197

                     10                     11                     12
                      A                      A                      A
 Frequencies --    333.6803               391.8198               449.4261
 Red. masses --      8.2556                 5.2548                 9.6540
 Frc consts  --      0.5416                 0.4753                 1.1489
 IR Inten    --      0.2035                 8.5579                12.6885

                     13                     14                     15
                      A                      A                      A
 Frequencies --    478.6137               497.0923               553.3748
 Red. masses --      9.8923                 5.0889                 4.7228
 Frc consts  --      1.3351                 0.7409                 0.8521
 IR Inten    --      2.9035                 7.1888                 5.6369

                     16                     17                     18
                      A                      A                      A
 Frequencies --    576.8505               628.4373               639.2745
 Red. masses --      2.5913                 4.0932                 2.8147
 Frc consts  --      0.5080                 0.9525                 0.6777
 IR Inten    --      9.6495                 6.4934                 0.5501

                     19                     20                     21
                      A                      A                      A
 Frequencies --    724.2757               738.9353               813.0938
 Red. masses --      7.2960                 5.8871                 2.2660
 Frc consts  --      2.2550                 1.8939                 0.8827
 IR Inten    --      1.6269                 0.7687                30.8232

                     22                     23                     24
                      A                      A                      A
 Frequencies --    835.2567               907.7850               913.9449
 Red. masses --      9.1790                 5.9654                 1.3102
 Frc consts  --      3.7730                 2.8964                 0.6448
 IR Inten    --    113.5270                38.0748                 7.4930

                     25                     26                     27
                      A                      A                      A
 Frequencies --    957.2134              1016.5133              1055.3103
 Red. masses --      2.4875                 1.6899                 2.2765
 Frc consts  --      1.3429                 1.0288                 1.4938
 IR Inten    --     21.8500                 4.6058                36.2952

                     28                     29                     30
                      A                      A                      A
 Frequencies --   1091.2829              1166.6663              1236.4332
 Red. masses --      2.0009                 1.9299                 5.1274
 Frc consts  --      1.4040                 1.5477                 4.6184
 IR Inten    --     18.5235               218.2101                81.3269

                     31                     32                     33
                      A                      A                      A
 Frequencies --   1280.0061              1340.8755              1347.9265
 Red. masses --      3.5732                 3.0705                 1.3531
 Frc consts  --      3.4493                 3.2526                 1.4484
 IR Inten    --     37.1997               223.1022                43.9065

                     34                     35                     36
                      A                      A                      A
 Frequencies --   1401.7733              1440.5171              1462.8344
 Red. masses --      5.3904                 8.0848                 1.0968
 Frc consts  --      6.2406                 9.8846                 1.3829
 IR Inten    --    314.6160               152.0410                30.0805

                     37                     38                     39
                      A                      A                      A
 Frequencies --   1472.5207              1479.6692              1595.8519
 Red. masses --      1.0521                 5.5196                 7.8388
 Frc consts  --      1.3441                 7.1201                11.7620
 IR Inten    --     16.3264               511.1050               619.7508

                     40                     41                     42
                      A                      A                      A
 Frequencies --   1646.8421              2994.0985              3044.2541
 Red. masses --      9.5373                 1.0379                 1.0995
 Frc consts  --     15.2398                 5.4818                 6.0034
 IR Inten    --    352.6539               144.4279                85.3961

                     43                     44                     45
                      A                      A                      A
 Frequencies --   3076.5453              3107.2319              3117.3826
 Red. masses --      1.0832                 1.0931                 1.0975
 Frc consts  --      6.0404                 6.2181                 6.2841
 IR Inten    --     50.8300               146.0019                29.6691

 - Thermochemistry -
 -------------------
 Temperature   298.150 Kelvin.  Pressure   1.00000 Atm.
 Atom     1 has atomic number  6 and mass  12.00000

 Molecular mass:   183.99272 amu.
 Principal axes and moments of inertia in atomic units:
                           1         2         3
     Eigenvalues --  1751.196382167.354803688.74436
           X            0.12584   0.94597  -0.29885
           Y            0.98572  -0.15321  -0.06989
           Z            0.11190   0.28578   0.95174
 This molecule is an asymmetric top.
 Rotational symmetry number  1.
 Warning -- assumption of classical behavior for rotation
           may cause significant error
 Rotational temperatures (Kelvin)      0.04946     0.03996     0.02348
 Rotational constants (GHZ):           1.03058     0.83269     0.48926
 Zero-point vibrational energy     283832.1 (Joules/Mol)
                                   67.83749 (Kcal/Mol)
 Warning -- explicit consideration of  16 degrees of freedom as
           vibrations may cause significant error
 Vibrational temperatures:     72.98   112.47   162.44   219.66   259.62
          (Kelvin)            309.71   335.24   431.13   455.50   480.09
                              563.74   646.62   688.62   715.20   796.18
                              829.96   904.18   919.77  1042.07  1063.16
                             1169.86  1201.75  1306.10  1314.96  1377.22
                             1462.54  1518.36  1570.11  1678.57  1778.95
                             1841.64  1929.22  1939.37  2016.84  2072.58
                             2104.69  2118.63  2128.91  2296.07  2369.44
                             4307.84  4380.00  4426.46  4470.61  4485.22

 Zero-point correction=                           0.108106 (Hartree/Particle)
 Thermal correction to Energy=                    0.119114
 Thermal correction to Enthalpy=                  0.120059
 Thermal correction to Gibbs Free Energy=         0.070617
 Sum of electronic and zero-point Energies=           -993.763485
 Sum of electronic and thermal Energies=              -993.752476
 Sum of electronic and thermal Enthalpies=            -993.751532
 Sum of electronic and thermal Free Energies=         -993.800974

                     E (Thermal)             CV                S
                      KCal/Mol        Cal/Mol-Kelvin    Cal/Mol-Kelvin
 Total                   74.745             40.175            104.059
 Electronic               0.000              0.000              0.000
 Translational            0.889              2.981             41.535
 Rotational               0.889              2.981             31.016
 Vibrational             72.968             34.214             31.507
 Vibration     1          0.595              1.977              4.789
 Vibration     2          0.599              1.964              3.936
 Vibration     3          0.607              1.939              3.218
 Vibration     4          0.619              1.900              2.639
 Vibration     5          0.629              1.866              2.324
 Vibration     6          0.645              1.818              1.999
 Vibration     7          0.654              1.790              1.856
 Vibration     8          0.692              1.674              1.419
 Vibration     9          0.703              1.642              1.328
 Vibration    10          0.715              1.608              1.242
 Vibration    11          0.759              1.488              0.993
 Vibration    12          0.808              1.362              0.798
 Vibration    13          0.835              1.297              0.714
 Vibration    14          0.853              1.256              0.665
 Vibration    15          0.909              1.132              0.537
 Vibration    16          0.933              1.081              0.491

                           ! Non-Optimized Parameters !
 Normal termination of Gaussian 16 at Sat Jan  6 06:15:32 2024.
