 Q-Chem 5.4, Q-Chem, Inc., Pleasanton, CA (2021)
 Q-Chem 5.4.0 for Intel X86 EM64T Linux

User input:
--------------------------------------------------------------
$molecule
0 1
C                 -0.9183340000      2.5712000000      0.1820710000
C                  0.4901600000      2.7985180000     -0.2734610000
C                  1.2020240000      1.7942110000     -0.8239560000
C                  0.5843490000      0.4434620000     -0.9926900000
C                 -0.8208240000      0.2064580000     -0.5006750000
C                 -1.5192500000      1.2201980000      0.0777050000
O                 -1.5781710000      3.5029670000      0.6248900000
O                  1.2018610000     -0.4688470000     -1.5069770000
O                 -2.8311390000      1.0710940000      0.4248080000
O                 -1.2045460000     -1.0501870000     -0.7407780000
C                 -3.1925520000      1.3225340000      1.7944570000
C                 -2.3987450000     -1.6195650000     -0.1846340000
C                  2.6187630000      1.9424560000     -1.3076790000
C                  1.0334390000      4.1964050000     -0.0695270000
C                  1.6907130000      4.3529080000      1.2840630000
C                  2.9076300000      4.8377990000      1.5628160000
C                  3.8965090000      5.3416490000      0.5421310000
C                  3.3840120000      4.9380180000      2.9919090000
H                 -3.0196110000      2.3640870000      2.0600610000
H                 -2.6298590000      0.6601370000      2.4619850000
H                 -4.2546390000      1.0909940000      1.8639600000
H                 -2.3635830000     -2.6670740000     -0.4794340000
H                 -3.2905870000     -1.1396970000     -0.5833780000
H                 -2.3929560000     -1.5434240000      0.9050260000
H                  3.2279440000      2.4752690000     -0.5754580000
H                  2.6527560000      2.5089000000     -2.2449580000
H                  3.0574940000      0.9645200000     -1.4985290000
H                  0.1915680000      4.8923680000     -0.1312000000
H                  1.7236910000      4.4410610000     -0.8765960000
H                  1.0668700000      4.0447940000      2.1202920000
H                  3.5550510000      5.2322660000     -0.4869460000
H                  4.8534750000      4.8161410000      0.6402760000
H                  4.1082180000      6.4040340000      0.7105680000
H                  2.6354670000      4.5707650000      3.6964440000
H                  3.6195820000      5.9761600000      3.2542340000
H                  4.3049390000      4.3613690000      3.1388380000
$end
$rem
MAX_SCF_CYCLES=200
BASIS  =  6-311++G(d,p)
GUI  =  2
JOB_TYPE  =  SP
METHOD  =  B3LYP
SOLVENT_METHOD = PCM
$end
$pcm
theory = CPCM
$end
$solvent
dielectric 37.219
opticaldielectric 1.43
$end

--------------------------------------------------------------

             Standard Nuclear Orientation (Angstroms)
    I     Atom           X                Y                Z
 ----------------------------------------------------------------
    1      C      -0.9183340000     2.5712000000     0.1820710000
    2      C       0.4901600000     2.7985180000    -0.2734610000
    3      C       1.2020240000     1.7942110000    -0.8239560000
    4      C       0.5843490000     0.4434620000    -0.9926900000
    5      C      -0.8208240000     0.2064580000    -0.5006750000
    6      C      -1.5192500000     1.2201980000     0.0777050000
    7      O      -1.5781710000     3.5029670000     0.6248900000
    8      O       1.2018610000    -0.4688470000    -1.5069770000
    9      O      -2.8311390000     1.0710940000     0.4248080000
   10      O      -1.2045460000    -1.0501870000    -0.7407780000
   11      C      -3.1925520000     1.3225340000     1.7944570000
   12      C      -2.3987450000    -1.6195650000    -0.1846340000
   13      C       2.6187630000     1.9424560000    -1.3076790000
   14      C       1.0334390000     4.1964050000    -0.0695270000
   15      C       1.6907130000     4.3529080000     1.2840630000
   16      C       2.9076300000     4.8377990000     1.5628160000
   17      C       3.8965090000     5.3416490000     0.5421310000
   18      C       3.3840120000     4.9380180000     2.9919090000
   19      H      -3.0196110000     2.3640870000     2.0600610000
   20      H      -2.6298590000     0.6601370000     2.4619850000
   21      H      -4.2546390000     1.0909940000     1.8639600000
   22      H      -2.3635830000    -2.6670740000    -0.4794340000
   23      H      -3.2905870000    -1.1396970000    -0.5833780000
   24      H      -2.3929560000    -1.5434240000     0.9050260000
   25      H       3.2279440000     2.4752690000    -0.5754580000
   26      H       2.6527560000     2.5089000000    -2.2449580000
   27      H       3.0574940000     0.9645200000    -1.4985290000
   28      H       0.1915680000     4.8923680000    -0.1312000000
   29      H       1.7236910000     4.4410610000    -0.8765960000
   30      H       1.0668700000     4.0447940000     2.1202920000
   31      H       3.5550510000     5.2322660000    -0.4869460000
   32      H       4.8534750000     4.8161410000     0.6402760000
   33      H       4.1082180000     6.4040340000     0.7105680000
   34      H       2.6354670000     4.5707650000     3.6964440000
   35      H       3.6195820000     5.9761600000     3.2542340000
   36      H       4.3049390000     4.3613690000     3.1388380000
 ----------------------------------------------------------------

    9    -845.4101192302      4.32e-06  Convergence criterion met
 Total energy in the final basis set =     -845.4101192302

                    Orbital Energies (a.u.)
 --------------------------------------------------------------

 Alpha MOs
 -- Occupied --
-19.1789 -19.1584 -19.1406 -19.1338 -10.2875 -10.2819 -10.2664 -10.2504
-10.2232 -10.2164 -10.2101 -10.2089 -10.1801 -10.1793 -10.1694 -10.1661
-10.1606 -10.1595  -1.1039  -1.0806  -1.0681  -1.0545  -0.8638  -0.8209
 -0.8025  -0.7561  -0.7435  -0.7182  -0.6916  -0.6871  -0.6660  -0.6453
 -0.5954  -0.5907  -0.5555  -0.5323  -0.5201  -0.5145  -0.4951  -0.4771
 -0.4693  -0.4644  -0.4621  -0.4540  -0.4449  -0.4424  -0.4360  -0.4323
 -0.4157  -0.4141  -0.4090  -0.4081  -0.3876  -0.3826  -0.3801  -0.3713
 -0.3706  -0.3610  -0.3575  -0.3553  -0.3372  -0.3165  -0.2883  -0.2863
 -0.2739  -0.2450  -0.2397

          Ground-State Mulliken Net Atomic Charges

     Atom                 Charge (a.u.)
  ----------------------------------------
      1 C                    -0.694272
      2 C                     1.181861
      3 C                     0.456113
      4 C                    -0.809677
      5 C                     0.028154
      6 C                    -0.193414
      7 O                    -0.299919
      8 O                    -0.293137
      9 O                    -0.220394
     10 O                    -0.208628
     11 C                    -0.319374
     12 C                    -0.312822
     13 C                    -0.643659
     14 C                     0.617710
     15 C                    -0.753831
     16 C                     0.492358
     17 C                    -0.692224
     18 C                    -0.633961
     19 H                     0.166295
     20 H                     0.157781
     21 H                     0.181141
     22 H                     0.203418
     23 H                     0.201309
     24 H                     0.197629
     25 H                     0.192508
     26 H                     0.220209
     27 H                     0.186228
     28 H                     0.227474
     29 H                     0.212873
     30 H                     0.221390
     31 H                     0.133012
     32 H                     0.162463
     33 H                     0.161749
     34 H                     0.159167
     35 H                     0.154553
     36 H                     0.159919
  ----------------------------------------
  Sum of atomic charges =     0.000000

                    Cartesian Multipole Moments
 -----------------------------------------------------------------
    Charge (ESU x 10^10)
                -0.0000
    Dipole Moment (Debye)
         X       0.3028      Y       0.5469      Z       2.6112
       Tot       2.6850
    Quadrupole Moments (Debye-Ang)
        XX     -97.2724     XY      22.3872     YY    -109.2914
        XZ      -2.4326     YZ      -5.6832     ZZ    -105.5572

 Total job time:  62.01s(wall), 447.30s(cpu)
        *  Thank you very much for using Q-Chem.  Have a nice day.  *
