 Gaussian 16, Revision A.03,
 Gaussian 16:  ES64L-G16RevA.03 25-Dec-2016

 ----------------------------------------------------------------------
 #P UB3LYP/6-311++G(d,p) nosym opt freq SCRF=(PCM,Solvent=n,n-DiMethylF
 ormamide)
 ----------------------------------------------------------------------

 -------
 Radical
 -------
 Symbolic Z-matrix:
 Charge = -1 Multiplicity = 2

 SCF Done:  E(UB3LYP) =  -1502.82788122     A.U. after   19 cycles
 SCF Done:  E(UB3LYP) =  -1502.82825058     A.U. after   15 cycles
 SCF Done:  E(UB3LYP) =  -1502.82835835     A.U. after   14 cycles
 SCF Done:  E(UB3LYP) =  -1502.82809952     A.U. after   14 cycles
 SCF Done:  E(UB3LYP) =  -1502.82842095     A.U. after   14 cycles
 SCF Done:  E(UB3LYP) =  -1502.82844380     A.U. after   13 cycles
 SCF Done:  E(UB3LYP) =  -1502.82844995     A.U. after   13 cycles
 SCF Done:  E(UB3LYP) =  -1502.82845607     A.U. after   11 cycles
 SCF Done:  E(UB3LYP) =  -1502.82845860     A.U. after   11 cycles
 SCF Done:  E(UB3LYP) =  -1502.82846091     A.U. after   10 cycles
 SCF Done:  E(UB3LYP) =  -1502.82846245     A.U. after   11 cycles
 SCF Done:  E(UB3LYP) =  -1502.82846291     A.U. after   10 cycles
 SCF Done:  E(UB3LYP) =  -1502.82846312     A.U. after   10 cycles
 SCF Done:  E(UB3LYP) =  -1502.82846317     A.U. after    9 cycles
 Optimization completed.
    -- Stationary point found.
 Normal termination of Gaussian 16 at Sun Feb 11 00:34:07 2024.

 ----------------------------------------------------------------------
 #P Geom=AllCheck Guess=TCheck SCRF=Check GenChk UB3LYP/6-311++G(d,p) F
 req
 ----------------------------------------------------------------------

 Structure from the checkpoint file:  "195-rad.chk"
 -------
 Radical
 -------
 Charge = -1 Multiplicity = 2

                          Input orientation:
 ---------------------------------------------------------------------
 Center     Atomic      Atomic             Coordinates (Angstroms)
 Number     Number       Type             X           Y           Z
 ---------------------------------------------------------------------
      1          6           0        4.801833   -3.034507    0.292498
      2          6           0        5.709000   -2.230130   -0.369669
      3          6           0        5.276975   -1.037839   -0.983729
      4          6           0        3.438051   -2.679121    0.364278
      5          6           0        3.001234   -1.477436   -0.256104
      6          6           0        3.946181   -0.671152   -0.926015
      7          6           0        2.500290   -3.540283    1.067970
      8          6           0        1.113557   -3.139297    1.110156
      9          6           0        0.672281   -1.930314    0.485610
     10          6           0        1.602860   -1.072218   -0.209647
     11          6           0        0.176898   -3.970117    1.789474
     12          6           0       -1.164237   -3.581552    1.824934
     13          6           0       -0.706493   -1.573313    0.557103
     14          6           0       -1.607252   -2.390104    1.218640
     15          8           0        2.892961   -4.620858    1.630991
     16          8           0        1.212579    0.010375   -0.768136
     17          8           0        0.577549   -5.097434    2.393329
     18          1           0        5.119339   -3.953554    0.768806
     19          1           0        6.753944   -2.515051   -0.417752
     20          1           0        5.991145   -0.408135   -1.502377
     21          1           0        1.578219   -5.144532    2.213320
     22          8           0       -1.155549   -0.433336   -0.018892
     23          1           0       -2.650248   -2.109606    1.268123
     24          1           0       -0.341764   -0.014597   -0.432680
     25          1           0        3.602364    0.242518   -1.394128
     26         16           0       -2.374156   -4.618349    2.608951
     27          8           0       -3.644431   -3.895119    2.630450
     28          8           0       -2.360277   -5.977472    2.064726
     29          8           0       -1.859869   -4.670579    4.158241
     30          6           0       -1.485676   -5.947175    4.750211
     31          1           0       -0.674481   -6.398319    4.183436
     32          1           0       -2.348617   -6.609853    4.801188
     33          1           0       -1.152534   -5.685930    5.752345
 ---------------------------------------------------------------------

 SCF Done:  E(UB3LYP) =  -1502.82846317     A.U. after    1 cycles

 Alpha  occ. eigenvalues --  -89.09064 -19.17802 -19.14590 -19.13770 -19.13557
 Alpha  occ. eigenvalues --  -19.13435 -19.10516 -19.10146 -10.26000 -10.24968
 Alpha  occ. eigenvalues --  -10.24598 -10.24464 -10.22956 -10.21711 -10.19394
 Alpha  occ. eigenvalues --  -10.19352 -10.19010 -10.18943 -10.18898 -10.18315
 Alpha  occ. eigenvalues --  -10.18262 -10.18175 -10.18123  -8.15081  -6.11466
 Alpha  occ. eigenvalues --   -6.11298  -6.11130  -1.15683  -1.07430  -1.06192
 Alpha  occ. eigenvalues --   -1.04731  -1.02688  -1.02092  -1.01614  -0.87972
 Alpha  occ. eigenvalues --   -0.86503  -0.81512  -0.77232  -0.76511  -0.75494
 Alpha  occ. eigenvalues --   -0.73897  -0.69814  -0.67031  -0.64900  -0.62657
 Alpha  occ. eigenvalues --   -0.61073  -0.58668  -0.56282  -0.55260  -0.54139
 Alpha  occ. eigenvalues --   -0.52847  -0.52461  -0.50631  -0.49460  -0.48458
 Alpha  occ. eigenvalues --   -0.47679  -0.46502  -0.45820  -0.45307  -0.44420
 Alpha  occ. eigenvalues --   -0.43835  -0.43683  -0.43464  -0.42844  -0.42005
 Alpha  occ. eigenvalues --   -0.41787  -0.41157  -0.40010  -0.39130  -0.38294
 Alpha  occ. eigenvalues --   -0.36972  -0.36755  -0.36246  -0.36100  -0.34971
 Alpha  occ. eigenvalues --   -0.34713  -0.33779  -0.32776  -0.32323  -0.31465
 Alpha  occ. eigenvalues --   -0.28769  -0.27497  -0.26860  -0.26450  -0.26099
 Alpha  occ. eigenvalues --   -0.22970  -0.16126
 Alpha virt. eigenvalues --   -0.06538  -0.04554  -0.00932  -0.00403   0.00209
 Alpha virt. eigenvalues --    0.00687   0.01314   0.01601   0.02378   0.02983
 Alpha virt. eigenvalues --    0.03166   0.03601   0.04053   0.04462   0.04689

  Beta  occ. eigenvalues --  -89.09064 -19.17791 -19.14575 -19.13726 -19.13543
  Beta  occ. eigenvalues --  -19.13435 -19.10070 -19.09633 -10.26004 -10.24775
  Beta  occ. eigenvalues --  -10.24446 -10.24398 -10.22954 -10.21597 -10.19359
  Beta  occ. eigenvalues --  -10.19301 -10.18901 -10.18855 -10.18831 -10.18284
  Beta  occ. eigenvalues --  -10.18229 -10.18160 -10.18104  -8.15081  -6.11463
  Beta  occ. eigenvalues --   -6.11299  -6.11133  -1.15664  -1.07327  -1.06011
  Beta  occ. eigenvalues --   -1.04712  -1.02665  -1.01368  -1.00786  -0.87704
  Beta  occ. eigenvalues --   -0.86349  -0.81148  -0.77034  -0.76279  -0.75274
  Beta  occ. eigenvalues --   -0.73783  -0.69276  -0.66790  -0.64648  -0.62541
  Beta  occ. eigenvalues --   -0.60990  -0.58529  -0.56165  -0.55103  -0.54014
  Beta  occ. eigenvalues --   -0.52783  -0.52276  -0.50538  -0.49430  -0.48264
  Beta  occ. eigenvalues --   -0.47542  -0.46395  -0.45698  -0.44689  -0.44276
  Beta  occ. eigenvalues --   -0.43674  -0.43557  -0.43183  -0.42648  -0.41819
  Beta  occ. eigenvalues --   -0.41013  -0.40348  -0.39935  -0.38992  -0.36899
  Beta  occ. eigenvalues --   -0.36698  -0.36638  -0.36135  -0.35292  -0.34863
  Beta  occ. eigenvalues --   -0.34610  -0.33672  -0.32754  -0.31942  -0.31107
  Beta  occ. eigenvalues --   -0.27107  -0.27044  -0.26187  -0.25962  -0.25710
  Beta  occ. eigenvalues --   -0.21912
  Beta virt. eigenvalues --   -0.10671  -0.05474  -0.03482  -0.00629  -0.00375
  Beta virt. eigenvalues --    0.00219   0.00725   0.01369   0.01638   0.02615
  Beta virt. eigenvalues --    0.03096   0.03436   0.03732   0.04080   0.04626

 Mulliken charges and spin densities:
               1          2
     1  C   -0.019387   0.031373
     2  C   -0.473910   0.029919
     3  C   -0.429831   0.023798
     4  C    0.197487   0.008079
     5  C    0.155641   0.004235
     6  C   -0.006157   0.039623
     7  C   -0.274729   0.112017
     8  C    0.337695   0.016270
     9  C    0.698889   0.039756
    10  C   -0.355208   0.109252
    11  C   -0.055645   0.003751
    12  C   -0.952770   0.069616
    13  C   -0.317499   0.023149
    14  C   -0.203796   0.127734
    15  O   -0.462555   0.162601
    16  O   -0.469704   0.187443
    17  O   -0.430315   0.007247
    18  H    0.175060  -0.000986
    19  H    0.194335  -0.002522
    20  H    0.191826  -0.002036
    21  H    0.458170  -0.002418
    22  O   -0.393461   0.015645
    23  H    0.238464  -0.010071
    24  H    0.367176  -0.003930
    25  H    0.178723  -0.001548
    26  S    1.089529   0.004457
    27  O   -0.193541   0.000419
    28  O   -0.275293   0.003096
    29  O   -0.200973   0.002842
    30  C   -0.326086   0.000754
    31  H    0.194662  -0.000073
    32  H    0.195031   0.000387
    33  H    0.168172   0.000117
 Sum of Mulliken charges =  -1.00000   1.00000

 Dipole moment (field-independent basis, Debye):
    X=              3.2526    Y=             13.6448    Z=             -3.9548  Tot=             14.5739
 Quadrupole moment (field-independent basis, Debye-Ang):
   XX=           -168.8776   YY=           -208.3410   ZZ=           -146.2463
   XY=            -11.2207   XZ=              5.7704   YZ=             14.6124

  Exact polarizability: 541.456  22.501 354.047 -88.420-115.252 259.557
 Approx polarizability: 567.162 -11.051 423.576 -68.391-125.362 289.903

                      1                      2                      3
                      A                      A                      A
 Frequencies --     33.5642                41.5200                57.9380
 Red. masses --      6.8464                 6.7377                 2.0010
 Frc consts  --      0.0045                 0.0068                 0.0040
 IR Inten    --      1.6786                 1.4235                 9.1939

                      4                      5                      6
                      A                      A                      A
 Frequencies --     78.7807                91.5127               105.1999
 Red. masses --      6.2962                 5.1794                 3.0249
 Frc consts  --      0.0230                 0.0256                 0.0197
 IR Inten    --      5.0828                 0.2750                 1.3115

                      7                      8                      9
                      A                      A                      A
 Frequencies --    126.7607               144.2059               156.4257
 Red. masses --      2.2202                 5.7810                 7.8512
 Frc consts  --      0.0210                 0.0708                 0.1132
 IR Inten    --      0.7853                 0.0431                 1.2090

                     10                     11                     12
                      A                      A                      A
 Frequencies --    177.7886               205.3446               232.1049
 Red. masses --      8.6881                 7.6059                 7.7090
 Frc consts  --      0.1618                 0.1890                 0.2447
 IR Inten    --      2.3313                 2.7695                 1.2963

                     13                     14                     15
                      A                      A                      A
 Frequencies --    238.6247               251.6480               281.6254
 Red. masses --      7.1642                 5.3865                 6.7863
 Frc consts  --      0.2404                 0.2010                 0.3171
 IR Inten    --      6.6791                 9.8526                 6.6298

                     16                     17                     18
                      A                      A                      A
 Frequencies --    295.7144               334.7307               356.9230
 Red. masses --      7.7114                 6.6518                 6.2042
 Frc consts  --      0.3973                 0.4391                 0.4657
 IR Inten    --      4.5707                 3.9455                28.8576

                     19                     20                     21
                      A                      A                      A
 Frequencies --    381.9692               409.8048               413.5813
 Red. masses --     10.5084                11.2271                 7.9821
 Frc consts  --      0.9033                 1.1109                 0.8044
 IR Inten    --      5.8390                 9.4370                 8.1942

                     22                     23                     24
                      A                      A                      A
 Frequencies --    434.5727               436.8421               458.7736
 Red. masses --      8.1874                 3.5542                 9.7238
 Frc consts  --      0.9110                 0.3996                 1.2058
 IR Inten    --     98.6780                 4.7124                25.4598

                     25                     26                     27
                      A                      A                      A
 Frequencies --    463.3194               483.0414               490.7995
 Red. masses --      8.0661                10.1926                 8.3152
 Frc consts  --      1.0202                 1.4012                 1.1801
 IR Inten    --      8.5890                61.8468                14.1143

                     28                     29                     30
                      A                      A                      A
 Frequencies --    510.1656               533.2556               552.2007
 Red. masses --      5.4427                 8.4183                 8.4929
 Frc consts  --      0.8346                 1.4104                 1.5258
 IR Inten    --     17.3185                61.8677                10.0228

                     31                     32                     33
                      A                      A                      A
 Frequencies --    587.2860               616.2240               654.2013
 Red. masses --     10.7741                 4.3724                 6.8352
 Frc consts  --      2.1894                 0.9783                 1.7235
 IR Inten    --    286.9979                22.0411                96.5841

                     34                     35                     36
                      A                      A                      A
 Frequencies --    656.4053               674.8043               690.0293
 Red. masses --      6.6134                 9.4184                 7.0228
 Frc consts  --      1.6789                 2.5269                 1.9701
 IR Inten    --      1.2538               373.4701               114.7842

                     37                     38                     39
                      A                      A                      A
 Frequencies --    717.6059               734.5013               735.2106
 Red. masses --      4.0578                 4.0191                 6.4370
 Frc consts  --      1.2312                 1.2775                 2.0500
 IR Inten    --      8.9110                69.5952                15.0479

                     40                     41                     42
                      A                      A                      A
 Frequencies --    781.5880               794.5810               799.0118
 Red. masses --      5.2683                 1.8707                 8.0546
 Frc consts  --      1.8962                 0.6959                 3.0297
 IR Inten    --      4.0521                53.1417                42.7893

                     43                     44                     45
                      A                      A                      A
 Frequencies --    849.5174               869.9587               891.5489
 Red. masses --      1.4212                 1.0817                 1.4204
 Frc consts  --      0.6043                 0.4823                 0.6652
 IR Inten    --     92.5086                78.9823                 1.1610

                     46                     47                     48
                      A                      A                      A
 Frequencies --    905.1142               917.8357               932.2748
 Red. masses --      8.0271                 8.7930                 1.0607
 Frc consts  --      3.8745                 4.3643                 0.5432
 IR Inten    --    141.1146               149.8166               137.5141

                     49                     50                     51
                      A                      A                      A
 Frequencies --    972.4933               993.2159              1007.1182
 Red. masses --     11.0899                 1.3654                 6.2865
 Frc consts  --      6.1795                 0.7936                 3.7568
 IR Inten    --    372.4316                 1.5674               155.2049

                     52                     53                     54
                      A                      A                      A
 Frequencies --   1009.1542              1040.9748              1088.8170
 Red. masses --      1.3016                 2.2689                 9.3550
 Frc consts  --      0.7810                 1.4486                 6.5344
 IR Inten    --      0.0135                26.3995               552.0328

                     55                     56                     57
                      A                      A                      A
 Frequencies --   1109.4622              1115.3228              1160.2128
 Red. masses --      3.5147                 2.5290                 1.3063
 Frc consts  --      2.5490                 1.8536                 1.0360
 IR Inten    --    264.4290                25.3295                32.7370

                     58                     59                     60
                      A                      A                      A
 Frequencies --   1163.6983              1178.5378              1185.5205
 Red. masses --      1.2357                 1.3258                 1.6941
 Frc consts  --      0.9859                 1.0849                 1.4028
 IR Inten    --      1.3891                13.1922                79.2188

                     61                     62                     63
                      A                      A                      A
 Frequencies --   1219.7039              1251.7931              1258.2806
 Red. masses --      1.9854                 4.4420                 5.5989
 Frc consts  --      1.7402                 4.1010                 5.2228
 IR Inten    --      7.3875               210.6955               217.9442

                     64                     65                     66
                      A                      A                      A
 Frequencies --   1276.1436              1287.2523              1301.4731
 Red. masses --      3.0665                 6.0978                 4.8356
 Frc consts  --      2.9423                 5.9532                 4.8258
 IR Inten    --    194.8651                20.6280               341.3469

                     67                     68                     69
                      A                      A                      A
 Frequencies --   1318.3742              1359.6699              1375.4501
 Red. masses --      3.4870                10.0197                 7.8347
 Frc consts  --      3.5709                10.9137                 8.7329
 IR Inten    --    512.0846                 9.4952                33.4872

                     70                     71                     72
                      A                      A                      A
 Frequencies --   1398.4192              1435.3439              1456.6373
 Red. masses --      3.0618                 6.9511                 1.4814
 Frc consts  --      3.5278                 8.4375                 1.8519
 IR Inten    --    522.4321                41.7589               569.5749

                     73                     74                     75
                      A                      A                      A
 Frequencies --   1460.9372              1474.2777              1484.5851
 Red. masses --      1.8228                 1.0512                 2.4380
 Frc consts  --      2.2922                 1.3462                 3.1658
 IR Inten    --    869.9121                 6.2631               121.9363

                     76                     77                     78
                      A                      A                      A
 Frequencies --   1486.4949              1498.1829              1517.7082
 Red. masses --      1.0554                 3.4441                 4.4523
 Frc consts  --      1.3740                 4.5546                 6.0424
 IR Inten    --     25.7797               176.3624               466.3283

                     79                     80                     81
                      A                      A                      A
 Frequencies --   1565.5727              1576.1093              1631.3259
 Red. masses --      3.7087                 2.3238                 5.2146
 Frc consts  --      5.3557                 3.4011                 8.1762
 IR Inten    --    391.2068                61.7588                12.9366

                     82                     83                     84
                      A                      A                      A
 Frequencies --   1633.2202              1637.0984              2758.1443
 Red. masses --      2.6384                 4.0519                 1.0781
 Frc consts  --      4.1465                 6.3982                 4.8321
 IR Inten    --    109.5096                25.3747               909.2233

                     85                     86                     87
                      A                      A                      A
 Frequencies --   2994.5326              3062.8413              3152.7907
 Red. masses --      1.0727                 1.0278                 1.1079
 Frc consts  --      5.6677                 5.6806                 6.4882
 IR Inten    --    695.1959                57.0190                17.0116

                     88                     89                     90
                      A                      A                      A
 Frequencies --   3167.7425              3167.8176              3181.2227
 Red. masses --      1.1086                 1.0867                 1.0910
 Frc consts  --      6.5545                 6.4253                 6.5050
 IR Inten    --      6.3330                10.3341                19.5731

                     91                     92                     93
                      A                      A                      A
 Frequencies --   3197.8617              3200.9140              3216.5154
 Red. masses --      1.0924                 1.0945                 1.0903
 Frc consts  --      6.5816                 6.6071                 6.6461
 IR Inten    --      9.3238                33.3725                17.5212

 - Thermochemistry -
 -------------------
 Temperature   298.150 Kelvin.  Pressure   1.00000 Atm.
 Atom     1 has atomic number  6 and mass  12.00000

 Molecular mass:   334.01472 amu.
 Principal axes and moments of inertia in atomic units:
                           1         2         3
     Eigenvalues --  3442.43913********************
           X            0.79532  -0.58304   0.16588
           Y            0.41769   0.72542   0.54709
           Z           -0.43931  -0.36582   0.82048
 This molecule is an asymmetric top.
 Rotational symmetry number  1.
 Warning -- assumption of classical behavior for rotation
           may cause significant error
 Rotational temperatures (Kelvin)      0.02516     0.00722     0.00580
 Rotational constants (GHZ):           0.52426     0.15035     0.12077
 Zero-point vibrational energy     595832.4 (Joules/Mol)
                                  142.40736 (Kcal/Mol)
 Warning -- explicit consideration of  32 degrees of freedom as
           vibrations may cause significant error
 Vibrational temperatures:     48.29    59.74    83.36   113.35   131.67
          (Kelvin)            151.36   182.38   207.48   225.06   255.80
                              295.45   333.95   343.33   362.07   405.20
                              425.47   481.60   513.53   549.57   589.62
                              595.05   625.25   628.52   660.07   666.61
                              694.99   706.15   734.01   767.24   794.49
                              844.97   886.61   941.25   944.42   970.89
                              992.80  1032.47  1056.78  1057.80  1124.53
                             1143.22  1149.60  1222.27  1251.68  1282.74
                             1302.26  1320.56  1341.34  1399.20  1429.02
                             1449.02  1451.95  1497.73  1566.56  1596.27
                             1604.70  1669.29  1674.30  1695.65  1705.70
                             1754.88  1801.05  1810.39  1836.09  1852.07
                             1872.53  1896.85  1956.26  1978.97  2012.01
                             2065.14  2095.78  2101.96  2121.16  2135.99
                             2138.73  2155.55  2183.64  2252.51  2267.67
                             2347.11  2349.84  2355.42  3968.35  4308.46
                             4406.75  4536.16  4557.67  4557.78  4577.07
                             4601.01  4605.40  4627.85

 Zero-point correction=                           0.226941 (Hartree/Particle)
 Thermal correction to Energy=                    0.246048
 Thermal correction to Enthalpy=                  0.246992
 Thermal correction to Gibbs Free Energy=         0.178450
 Sum of electronic and zero-point Energies=          -1502.601523
 Sum of electronic and thermal Energies=             -1502.582415
 Sum of electronic and thermal Enthalpies=           -1502.581471
 Sum of electronic and thermal Free Energies=        -1502.650013

                     E (Thermal)             CV                S
                      KCal/Mol        Cal/Mol-Kelvin    Cal/Mol-Kelvin
 Total                  154.397             74.005            144.259
 Electronic               0.000              0.000              1.377
 Translational            0.889              2.981             43.313
 Rotational               0.889              2.981             34.778
 Vibrational            152.620             68.044             64.791
 Vibration     1          0.594              1.983              5.607
 Vibration     2          0.594              1.981              5.185
 Vibration     3          0.596              1.974              4.526
 Vibration     4          0.600              1.963              3.921
 Vibration     5          0.602              1.955              3.627
 Vibration     6          0.605              1.945              3.356
 Vibration     7          0.611              1.926              2.995
 Vibration     8          0.616              1.909              2.747
 Vibration     9          0.620              1.895              2.593
 Vibration    10          0.628              1.870              2.352
 Vibration    11          0.640              1.832              2.085
 Vibration    12          0.653              1.792              1.863
 Vibration    13          0.657              1.781              1.813
 Vibration    14          0.664              1.760              1.719
 Vibration    15          0.681              1.708              1.524
 Vibration    16          0.690              1.682              1.441
 Vibration    17          0.716              1.606              1.237
 Vibration    18          0.732              1.561              1.135
 Vibration    19          0.751              1.509              1.031
 Vibration    20          0.774              1.449              0.927
 Vibration    21          0.777              1.441              0.914
 Vibration    22          0.795              1.395              0.844
 Vibration    23          0.797              1.390              0.837
 Vibration    24          0.817              1.341              0.770
 Vibration    25          0.821              1.331              0.757
 Vibration    26          0.839              1.288              0.702
 Vibration    27          0.847              1.270              0.682
 Vibration    28          0.865              1.227              0.633
 Vibration    29          0.888              1.176              0.580
 Vibration    30          0.908              1.135              0.540
 Vibration    31          0.944              1.059              0.472
 Vibration    32          0.976              0.998              0.423

                           ! Non-Optimized Parameters !
 Normal termination of Gaussian 16 at Sun Feb 11 03:04:49 2024.
