 Gaussian 16, Revision A.03,
 Gaussian 16:  ES64L-G16RevA.03 25-Dec-2016

 ----------------------------------------------------------------
 #P UB3LYP/6-311++G(d,p) SCRF=(PCM,Solvent=n,n-DiMethylFormamide)
 ----------------------------------------------------------------

 -------
 Reduced
 -------
 Symbolic Z-matrix:
 Charge = -2 Multiplicity = 1

                         Standard orientation:
 ---------------------------------------------------------------------
 Center     Atomic      Atomic             Coordinates (Angstroms)
 Number     Number       Type             X           Y           Z
 ---------------------------------------------------------------------
      1          6           0       -4.997445    1.105999    0.082184
      2          8           0       -3.593231    1.148587    0.045479
      3          6           0       -2.892276   -0.032858    0.009994
      4          6           0       -3.555412   -1.251907   -0.009233
      5          6           0       -2.818663   -2.461302   -0.044268
      6          6           0       -1.446140   -2.426770   -0.045834
      7          6           0       -0.733644   -1.203140   -0.019383
      8          6           0        0.730298   -1.311706   -0.016321
      9          8           0        1.281575   -2.454437   -0.025618
     10          6           0        1.455084   -0.048831   -0.007764
     11          6           0        2.892270    0.032883    0.009994
     12          8           0        3.593189   -1.148596    0.045560
     13          6           0        4.997410   -1.106086    0.082005
     14          6           0        3.555437    1.251909   -0.009112
     15          6           0        2.818699    2.461309   -0.044174
     16          6           0        1.446172    2.426783   -0.045865
     17          6           0        0.733650    1.203171   -0.019456
     18          6           0       -0.730307    1.311733   -0.016359
     19          8           0       -1.281581    2.454456   -0.025756
     20          6           0       -1.455077    0.048855   -0.007709
     21          1           0       -5.328684    2.145380    0.145320
     22          1           0       -5.430033    0.650572   -0.821680
     23          1           0       -5.382543    0.559619    0.957113
     24          1           0       -4.636987   -1.291717   -0.007759
     25          1           0       -3.352282   -3.409205   -0.062829
     26          1           0       -0.847854   -3.330057   -0.064764
     27          1           0        5.328587   -2.145496    0.144972
     28          1           0        5.382713   -0.559862    0.956946
     29          1           0        5.429878   -0.650578   -0.821874
     30          1           0        4.637014    1.291695   -0.007390
     31          1           0        3.352311    3.409214   -0.062748
     32          1           0        0.847928    3.330101   -0.064813
 ---------------------------------------------------------------------

 SCF Done:  E(UB3LYP) =  -918.276154096     A.U. after   16 cycles

 The electronic state is 1-A.
 Alpha  occ. eigenvalues --  -19.13214 -19.13214 -19.00899 -19.00898 -10.21136
 Alpha  occ. eigenvalues --  -10.21136 -10.20750 -10.20750 -10.17193 -10.17192
 Alpha  occ. eigenvalues --  -10.14423 -10.14422 -10.14024 -10.14024 -10.13759
 Alpha  occ. eigenvalues --  -10.13758 -10.13300 -10.13300 -10.12996 -10.12995
 Alpha  occ. eigenvalues --   -1.04958  -1.04955  -0.93893  -0.93599  -0.82225
 Alpha  occ. eigenvalues --   -0.81597  -0.74693  -0.73306  -0.73228  -0.70693
 Alpha  occ. eigenvalues --   -0.67720  -0.67315  -0.62825  -0.59738  -0.58922
 Alpha  occ. eigenvalues --   -0.55298  -0.53396  -0.51557  -0.50539  -0.47040
 Alpha  occ. eigenvalues --   -0.45906  -0.45482  -0.45401  -0.45362  -0.43905
 Alpha  occ. eigenvalues --   -0.43903  -0.42125  -0.40787  -0.39590  -0.38176
 Alpha  occ. eigenvalues --   -0.37947  -0.36700  -0.36431  -0.35373  -0.34789
 Alpha  occ. eigenvalues --   -0.33348  -0.32799  -0.32548  -0.32173  -0.31294
 Alpha  occ. eigenvalues --   -0.31074  -0.30508  -0.29112  -0.28941  -0.22056
 Alpha  occ. eigenvalues --   -0.21522  -0.20459  -0.20176  -0.18832  -0.18064
 Alpha  occ. eigenvalues --   -0.09459
 Alpha virt. eigenvalues --   -0.01238  -0.00082   0.00319   0.00596   0.01185
 Alpha virt. eigenvalues --    0.01757   0.02207   0.03289   0.03641   0.03827
 Alpha virt. eigenvalues --    0.03909   0.03971   0.04057   0.04852   0.06000

  Beta  occ. eigenvalues --  -19.13214 -19.13214 -19.00899 -19.00898 -10.21136
  Beta  occ. eigenvalues --  -10.21136 -10.20750 -10.20750 -10.17193 -10.17192
  Beta  occ. eigenvalues --  -10.14423 -10.14422 -10.14024 -10.14024 -10.13759
  Beta  occ. eigenvalues --  -10.13758 -10.13300 -10.13300 -10.12996 -10.12995
  Beta  occ. eigenvalues --   -1.04958  -1.04955  -0.93893  -0.93599  -0.82225
  Beta  occ. eigenvalues --   -0.81597  -0.74693  -0.73306  -0.73228  -0.70693
  Beta  occ. eigenvalues --   -0.67720  -0.67315  -0.62825  -0.59738  -0.58922
  Beta  occ. eigenvalues --   -0.55298  -0.53396  -0.51557  -0.50539  -0.47040
  Beta  occ. eigenvalues --   -0.45906  -0.45482  -0.45401  -0.45362  -0.43905
  Beta  occ. eigenvalues --   -0.43903  -0.42125  -0.40787  -0.39590  -0.38176
  Beta  occ. eigenvalues --   -0.37947  -0.36700  -0.36431  -0.35373  -0.34789
  Beta  occ. eigenvalues --   -0.33348  -0.32799  -0.32548  -0.32173  -0.31294
  Beta  occ. eigenvalues --   -0.31074  -0.30508  -0.29112  -0.28941  -0.22056
  Beta  occ. eigenvalues --   -0.21522  -0.20459  -0.20176  -0.18832  -0.18064
  Beta  occ. eigenvalues --   -0.09459
  Beta virt. eigenvalues --   -0.01238  -0.00082   0.00319   0.00596   0.01185
  Beta virt. eigenvalues --    0.01757   0.02207   0.03289   0.03641   0.03827
  Beta virt. eigenvalues --    0.03909   0.03971   0.04057   0.04852   0.06000

 Mulliken charges and spin densities:
               1          2
     1  C   -0.285494  -0.000000
     2  O   -0.150604   0.000000
     3  C    0.015218  -0.000000
     4  C   -0.140868   0.000000
     5  C   -0.586294   0.000000
     6  C   -0.103487  -0.000000
     7  C    0.384597  -0.000000
     8  C   -0.368581  -0.000000
     9  O   -0.649659   0.000000
    10  C   -0.045276   0.000000
    11  C    0.015252   0.000000
    12  O   -0.150608   0.000000
    13  C   -0.285491  -0.000000
    14  C   -0.140836   0.000000
    15  C   -0.586297   0.000000
    16  C   -0.103523   0.000000
    17  C    0.384551  -0.000000
    18  C   -0.368544  -0.000000
    19  O   -0.649657   0.000000
    20  C   -0.045334  -0.000000
    21  H    0.183664  -0.000000
    22  H    0.147883   0.000000
    23  H    0.143851   0.000000
    24  H    0.158270   0.000000
    25  H    0.161837   0.000000
    26  H    0.134968  -0.000000
    27  H    0.183657   0.000000
    28  H    0.143849  -0.000000
    29  H    0.147882  -0.000000
    30  H    0.158270   0.000000
    31  H    0.161838   0.000000
    32  H    0.134964  -0.000000
 Sum of Mulliken charges =  -2.00000  -0.00000

 Dipole moment (field-independent basis, Debye):
    X=             -0.0001    Y=             -0.0001    Z=              0.2789  Tot=              0.2789
 Quadrupole moment (field-independent basis, Debye-Ang):
   XX=           -127.7239   YY=           -175.3935   ZZ=           -129.4948
   XY=             12.9930   XZ=             -0.0012   YZ=              0.0019

 Normal termination of Gaussian 16 at Sun Jan 14 01:26:31 2024.
