 Gaussian 16, Revision A.03,
 Gaussian 16:  ES64L-G16RevA.03 25-Dec-2016

 ----------------------------------------------------------------
 #P UB3LYP/6-311++G(d,p) SCRF=(PCM,Solvent=n,n-DiMethylFormamide)
 ----------------------------------------------------------------

 ------------------
 Radical PCM in DMF
 ------------------
 Symbolic Z-matrix:
 Charge = -1 Multiplicity = 2

                         Standard orientation:
 ---------------------------------------------------------------------
 Center     Atomic      Atomic             Coordinates (Angstroms)
 Number     Number       Type             X           Y           Z
 ---------------------------------------------------------------------
      1          8           0       -2.598797   -2.372927    0.000036
      2          6           0       -2.516198   -1.004364    0.000044
      3          6           0       -3.684720   -0.256319    0.000213
      4          6           0       -3.640686    1.149698    0.000258
      5          6           0       -2.424534    1.794138    0.000130
      6          6           0       -1.217956    1.062209   -0.000046
      7          6           0        0.032604    1.826283   -0.000162
      8          8           0        0.032481    3.081727   -0.000277
      9          6           0        1.277693    1.059000   -0.000071
     10          6           0        2.508209    1.745266   -0.000001
     11          6           0        3.698554    1.041265    0.000113
     12          6           0        3.704905   -0.361491    0.000188
     13          6           0        2.504347   -1.065293    0.000124
     14          8           0        2.534797   -2.411683    0.000310
     15          6           0        1.255965   -0.363372   -0.000019
     16          6           0        0.012197   -1.122174   -0.000201
     17          8           0        0.048132   -2.397385   -0.000692
     18          6           0       -1.236253   -0.372806   -0.000068
     19          1           0       -3.534619   -2.601642    0.000117
     20          1           0       -4.642001   -0.773974    0.000303
     21          1           0       -4.567439    1.715064    0.000399
     22          1           0       -2.348112    2.874036    0.000159
     23          1           0        2.482784    2.827579   -0.000021
     24          1           0        4.644394    1.575836    0.000178
     25          1           0        4.631572   -0.924664    0.000319
     26          1           0        1.555779   -2.682329    0.000526
 ---------------------------------------------------------------------

 SCF Done:  E(UB3LYP) =  -839.600043956     A.U. after   18 cycles

 The electronic state is 2-A.
 Alpha  occ. eigenvalues --  -19.15483 -19.12899 -19.08943 -19.07641 -10.24397
 Alpha  occ. eigenvalues --  -10.23805 -10.23520 -10.22538 -10.18254 -10.17780
 Alpha  occ. eigenvalues --  -10.17722 -10.17629 -10.17476 -10.17469 -10.17313
 Alpha  occ. eigenvalues --  -10.16499 -10.16479 -10.16234  -1.06799  -1.05501
 Alpha  occ. eigenvalues --   -1.00724  -1.00382  -0.86199  -0.84785  -0.78876
 Alpha  occ. eigenvalues --   -0.75029  -0.74422  -0.73903  -0.67195  -0.64493
 Alpha  occ. eigenvalues --   -0.63284  -0.59912  -0.57512  -0.55621  -0.53029
 Alpha  occ. eigenvalues --   -0.50976  -0.49565  -0.48203  -0.47011  -0.45940
 Alpha  occ. eigenvalues --   -0.44890  -0.43861  -0.42665  -0.42215  -0.41374
 Alpha  occ. eigenvalues --   -0.41208  -0.39380  -0.39001  -0.38884  -0.37376
 Alpha  occ. eigenvalues --   -0.37236  -0.35644  -0.35327  -0.34599  -0.33911
 Alpha  occ. eigenvalues --   -0.32715  -0.27330  -0.25341  -0.25261  -0.23958
 Alpha  occ. eigenvalues --   -0.23837  -0.22742  -0.14378
 Alpha virt. eigenvalues --   -0.04753  -0.02540  -0.00341   0.00395   0.00720
 Alpha virt. eigenvalues --    0.01019   0.01980   0.02168   0.03982   0.04254
 Alpha virt. eigenvalues --    0.04367   0.04591   0.05067   0.05906   0.06409

  Beta  occ. eigenvalues --  -19.15471 -19.12882 -19.08463 -19.07102 -10.24394
  Beta  occ. eigenvalues --  -10.23591 -10.23520 -10.22367 -10.18214 -10.17680
  Beta  occ. eigenvalues --  -10.17663 -10.17614 -10.17440 -10.17397 -10.17237
  Beta  occ. eigenvalues --  -10.16484 -10.16391 -10.16196  -1.06761  -1.05377
  Beta  occ. eigenvalues --   -0.99957  -0.99433  -0.85930  -0.84651  -0.78489
  Beta  occ. eigenvalues --   -0.74769  -0.74211  -0.73720  -0.66501  -0.64317
  Beta  occ. eigenvalues --   -0.63052  -0.59824  -0.57329  -0.55410  -0.52876
  Beta  occ. eigenvalues --   -0.50857  -0.49378  -0.47982  -0.46872  -0.45856
  Beta  occ. eigenvalues --   -0.44747  -0.43048  -0.42475  -0.42054  -0.41007
  Beta  occ. eigenvalues --   -0.40937  -0.38875  -0.38765  -0.37967  -0.37164
  Beta  occ. eigenvalues --   -0.35653  -0.35575  -0.35180  -0.34439  -0.33528
  Beta  occ. eigenvalues --   -0.31681  -0.25482  -0.24927  -0.24762  -0.23493
  Beta  occ. eigenvalues --   -0.22973  -0.22063
  Beta virt. eigenvalues --   -0.08768  -0.03603  -0.01507  -0.00328   0.00399
  Beta virt. eigenvalues --    0.01008   0.01028   0.01996   0.02173   0.03985
  Beta virt. eigenvalues --    0.04391   0.04424   0.04601   0.05843   0.06430

 Mulliken charges and spin densities:
               1          2
     1  O   -0.243017   0.003833
     2  C    0.000154   0.021455
     3  C   -0.236158   0.054234
     4  C   -0.338327   0.047935
     5  C   -0.021846   0.040504
     6  C    0.314810   0.052056
     7  C   -0.423997   0.099126
     8  O   -0.449799   0.202607
     9  C    0.276095   0.034573
    10  C   -0.071956   0.058409
    11  C   -0.407555   0.028872
    12  C   -0.278627   0.060917
    13  C   -0.065312   0.021657
    14  O   -0.410387   0.006026
    15  C    0.422870  -0.000978
    16  C   -0.295817   0.123825
    17  O   -0.483714   0.173060
    18  C   -0.006333  -0.002394
    19  H    0.297192  -0.000330
    20  H    0.154558  -0.005172
    21  H    0.194751  -0.003527
    22  H    0.154457  -0.002438
    23  H    0.155921  -0.003316
    24  H    0.187896  -0.002399
    25  H    0.182635  -0.005319
    26  H    0.391507  -0.003215
 Sum of Mulliken charges =  -1.00000   1.00000

 Dipole moment (field-independent basis, Debye):
    X=             -4.7673    Y=             -0.9297    Z=              0.0027  Tot=              4.8571
 Quadrupole moment (field-independent basis, Debye-Ang):
   XX=            -97.3346   YY=           -143.5419   ZZ=           -110.4388
   XY=             11.0108   XZ=             -0.0011   YZ=             -0.0031

 Normal termination of Gaussian 16 at Tue Jan 16 05:32:50 2024.
