 Q-Chem 5.4, Q-Chem, Inc., Pleasanton, CA (2021)
 Q-Chem 5.4.0 for Intel X86 EM64T Linux

User input:
--------------------------------------------------------------
$molecule
0 1
C                  0.6663020000      1.2416750000     -1.4506380000
C                 -0.7682650000      0.9529790000     -1.7370600000
C                 -1.5348930000      0.2465000000     -0.8986380000
C                 -0.9929900000     -0.2920570000      0.3814170000
C                  0.4580310000     -0.0604920000      0.6349470000
C                  1.2257110000      0.6424010000     -0.2055350000
O                  1.3133230000      1.9467770000     -2.1970990000
O                 -1.6760850000     -0.8721720000      1.1998580000
S                  3.0175400000      0.7683970000      0.1636720000
C                  3.3412180000      2.5247400000      0.3643990000
C                  3.7483070000      3.2723410000     -0.7387850000
C                  3.2151800000      3.0867440000      1.6346590000
C                  3.4904390000      4.4420820000      1.7954920000
C                  4.0252430000      4.6250910000     -0.5596820000
C                  3.8934990000      5.2074340000      0.7010180000
O                  3.7286320000      0.2748940000     -1.0132670000
O                  3.1776830000      0.1295560000      1.4736890000
H                  3.8429910000      2.7998880000     -1.7069310000
H                  2.9294320000      2.4683230000      2.4761550000
H                  4.3472750000      5.2220500000     -1.4046710000
H                  3.4028440000      4.8954620000      2.7757910000
H                  4.1110230000      6.2613190000      0.8324710000
S                 -3.2542690000     -0.1308870000     -1.4126540000
C                 -4.3028740000      0.6257060000     -0.1645730000
C                 -4.7182750000      1.9442090000     -0.3499210000
C                 -4.7085260000     -0.1307720000      0.9330970000
C                 -5.5461810000      0.4604800000      1.8751480000
C                 -5.5511000000      2.5223620000      0.6043970000
C                 -5.9623720000      1.7819470000      1.7128820000
H                 -1.1632520000      1.3531780000     -2.6649180000
H                  0.8614000000     -0.4897730000      1.5460490000
H                 -4.4115890000      2.4914230000     -1.2323770000
H                 -4.3730380000     -1.1534080000      1.0387250000
H                 -5.8758270000     -0.1131480000      2.7332600000
H                 -5.8881330000      3.5440790000      0.4751060000
H                 -6.6145350000      2.2353130000      2.4507250000
O                 -3.4042010000     -1.5830760000     -1.3573300000
O                 -3.4428590000      0.6070030000     -2.6655680000
$end
$rem
MAX_SCF_CYCLES=200
BASIS  =  6-311++G(d,p)
GUI  =  2
JOB_TYPE  =  SP
METHOD  =  B3LYP
SOLVENT_METHOD = COSMO
$end
$solvent
dielectric 37.219
opticaldielectric 1.43
$end

--------------------------------------------------------------

             Standard Nuclear Orientation (Angstroms)
    I     Atom           X                Y                Z
 ----------------------------------------------------------------
    1      C      -0.9739499843    -0.8772252269     1.0802711271
    2      C       0.4940091112    -0.9110953077     1.3397211827
    3      C       1.3935360160    -0.9125977798     0.3494527302
    4      C       0.9736860028    -0.8759436819    -1.0804513750
    5      C      -0.4942574219    -0.9100189152    -1.3399561591
    6      C      -1.3938020166    -0.9127836786    -0.3496970909
    7      O      -1.7604230411    -0.8033165066     2.0016867019
    8      O       1.7601985849    -0.8011776209    -2.0017579782
    9      S      -3.1663984128    -1.0620790063    -0.7951776039
   10      C      -3.9433681595     0.4328251520    -0.1695746307
   11      C      -4.4989477145     0.4276501073     1.1082939947
   12      C      -4.0059495970     1.5514828901    -1.0002267659
   13      C      -4.6302842073     2.7017762539    -0.5252453591
   14      C      -5.1247621134     1.5842193405     1.5659051205
   15      C      -5.1868694678     2.7167178576     0.7538496258
   16      O      -3.6889368547    -2.2196894844    -0.0731845216
   17      O      -3.1926004341    -1.0026750900    -2.2599959451
   18      H      -4.4383984798    -0.4616895404     1.7205785328
   19      H      -3.5934839630     1.5089541823    -2.0003644467
   20      H      -5.5665270019     1.5982262823     2.5552072259
   21      H      -4.6930488994     3.5792610210    -1.1579328923
   22      H      -5.6758935099     3.6134178812     1.1172429785
   23      S       3.1661542042    -1.0623283469     0.7947534618
   24      C       3.9435223503     0.4326521744     0.1698985967
   25      C       4.0053712965     1.5515145472     1.0003705899
   26      C       4.5001964558     0.4273456914    -1.1075119559
   27      C       5.1262284010     1.5838989695    -1.5648667764
   28      C       4.6298035502     2.7018361008     0.5255802142
   29      C       5.1873859576     2.7166336758    -0.7530835087
   30      H       0.7978827472    -0.9288809414     2.3810851549
   31      H      -0.7981287348    -0.9268278457    -2.3813375814
   32      H       3.5925092136     1.5092707327     2.0003647984
   33      H       4.4405148195    -0.4621557429    -1.7196550452
   34      H       5.5688590983     1.5977061369    -2.5537849733
   35      H       4.6919124013     3.5794679294     1.1581289459
   36      H       5.6764760356     3.6133639244    -1.1163125797
   37      O       3.6885046136    -2.2195909941     0.0720595732
   38      O       3.1922499883    -1.0039159775     2.2595907691
 ----------------------------------------------------------------

    9   -1941.0372107203      6.29e-06  Convergence criterion met
 Total energy in the final basis set =    -1941.0372107203
    5   -1941.0707561502      3.83e-06  Convergence criterion met
 Total energy in the final basis set =    -1941.0707561502

                    Orbital Energies (a.u.)
 --------------------------------------------------------------

 Alpha MOs
 -- Occupied --
-89.0817 -89.0816 -19.1703 -19.1703 -19.1475 -19.1474 -19.1461 -19.1460
-10.3221 -10.3221 -10.2604 -10.2604 -10.2468 -10.2468 -10.2291 -10.2291
-10.2062 -10.2062 -10.2048 -10.2048 -10.1974 -10.1974 -10.1952 -10.1952
-10.1949 -10.1948  -8.1453  -8.1453  -6.1081  -6.1080  -6.1073  -6.1073
 -6.1062  -6.1062  -1.1433  -1.1431  -1.1040  -1.1025  -1.0403  -1.0403
 -0.9015  -0.8898  -0.8892  -0.8426  -0.7972  -0.7932  -0.7746  -0.7745
 -0.7487  -0.7277  -0.6907  -0.6601  -0.6519  -0.6336  -0.6335  -0.6151
 -0.5958  -0.5685  -0.5616  -0.5570  -0.5405  -0.5334  -0.5080  -0.5028
 -0.5004  -0.4970  -0.4940  -0.4849  -0.4785  -0.4777  -0.4718  -0.4715
 -0.4638  -0.4635  -0.4499  -0.4495  -0.4473  -0.4441  -0.3995  -0.3992
 -0.3917  -0.3912  -0.3745  -0.3711  -0.3707  -0.3702  -0.3616  -0.3606
 -0.3479  -0.3474  -0.3400  -0.3381  -0.3314  -0.3287  -0.3201  -0.3016
 -0.2864  -0.2860  -0.2800  -0.2796

          Ground-State Mulliken Net Atomic Charges

     Atom                 Charge (a.u.)
  ----------------------------------------
      1 C                    -0.410526
      2 C                    -0.400409
      3 C                     0.295169
      4 C                    -0.411253
      5 C                    -0.400984
      6 C                     0.295836
      7 O                    -0.183799
      8 O                    -0.183754
      9 S                     0.509005
     10 C                     0.555161
     11 C                    -0.265120
     12 C                    -0.016393
     13 C                    -0.550537
     14 C                    -0.423081
     15 C                    -0.327288
     16 O                    -0.162593
     17 O                    -0.203337
     18 H                     0.290118
     19 H                     0.273665
     20 H                     0.241170
     21 H                     0.236426
     22 H                     0.218843
     23 S                     0.509327
     24 C                     0.554312
     25 C                    -0.016740
     26 C                    -0.263258
     27 C                    -0.422930
     28 C                    -0.550723
     29 C                    -0.328222
     30 H                     0.323453
     31 H                     0.323094
     32 H                     0.274295
     33 H                     0.290071
     34 H                     0.241162
     35 H                     0.236400
     36 H                     0.218794
     37 O                    -0.162702
     38 O                    -0.202661
  ----------------------------------------
  Sum of atomic charges =    -0.000009

                    Cartesian Multipole Moments
 -----------------------------------------------------------------
    Charge (ESU x 10^10)
                -0.0000
    Dipole Moment (Debye)
         X       0.0023      Y      11.6280      Z       0.0081
       Tot      11.6280
    Quadrupole Moments (Debye-Ang)
        XX    -163.6994     XY      -0.0060     YY    -159.5587
        XZ     -18.5389     YZ       0.0062     ZZ    -170.4087

 Total job time:  150.13s(wall), 1129.38s(cpu)
        *  Thank you very much for using Q-Chem.  Have a nice day.  *
