 Gaussian 16, Revision A.03,
 Gaussian 16:  ES64L-G16RevA.03 25-Dec-2016

 ----------------------------------------------------------------------
 #P UB3LYP/6-311++G(d,p) nosym opt freq SCRF=(PCM,Solvent=n,n-DiMethylF
 ormamide)
 ----------------------------------------------------------------------

 --------
 Oxidized
 --------
 Symbolic Z-matrix:
 Charge =  0 Multiplicity = 1

 SCF Done:  E(UB3LYP) =  -799.729779259     A.U. after   16 cycles
 SCF Done:  E(UB3LYP) =  -799.730091517     A.U. after   12 cycles
 SCF Done:  E(UB3LYP) =  -799.730085197     A.U. after   13 cycles
 SCF Done:  E(UB3LYP) =  -799.730145091     A.U. after   12 cycles
 SCF Done:  E(UB3LYP) =  -799.730206915     A.U. after   12 cycles
 SCF Done:  E(UB3LYP) =  -799.730215395     A.U. after   10 cycles
 SCF Done:  E(UB3LYP) =  -799.730219813     A.U. after   10 cycles
 SCF Done:  E(UB3LYP) =  -799.730220394     A.U. after    9 cycles
 Optimization completed.
    -- Stationary point found.
 Normal termination of Gaussian 16 at Sat Feb 10 16:15:42 2024.

 ----------------------------------------------------------------------
 #P Geom=AllCheck Guess=TCheck SCRF=Check GenChk UB3LYP/6-311++G(d,p) F
 req
 ----------------------------------------------------------------------

 Structure from the checkpoint file:  "165.chk"
 --------
 Oxidized
 --------
 Charge =  0 Multiplicity = 1

                          Input orientation:
 ---------------------------------------------------------------------
 Center     Atomic      Atomic             Coordinates (Angstroms)
 Number     Number       Type             X           Y           Z
 ---------------------------------------------------------------------
      1          7           0       -4.467300   -0.022550   -0.011656
      2          6           0       -3.138725   -0.373390    0.175100
      3          6           0       -2.773301   -1.528020    0.857376
      4          6           0       -1.433529   -1.850723    1.054391
      5          6           0       -0.424453   -1.028218    0.569526
      6          6           0        0.976545   -1.435408    0.795318
      7          8           0        1.264635   -2.481792    1.377343
      8          6           0        2.047091   -0.527507    0.301201
      9          6           0        3.389200   -0.870576    0.496610
     10          6           0        4.401511   -0.030221    0.047856
     11          6           0        4.079830    1.164451   -0.602664
     12          6           0        2.748628    1.512133   -0.802596
     13          6           0        1.722617    0.672443   -0.354187
     14          6           0        0.304816    1.071394   -0.592003
     15          8           0        0.070772    2.135368   -1.182211
     16          6           0       -0.759567    0.178518   -0.115931
     17          6           0       -2.122713    0.522077   -0.296153
     18          7           0       -2.531290    1.657687   -0.945175
     19          1           0       -4.695116    0.405708   -0.900430
     20          1           0       -5.138347   -0.737117    0.235643
     21          1           0       -3.549451   -2.194096    1.218417
     22          1           0       -1.162820   -2.759874    1.574792
     23          1           0        3.620534   -1.798939    1.003189
     24          1           0        5.439274   -0.301568    0.202942
     25          1           0        4.867988    1.820928   -0.952630
     26          1           0        2.485808    2.433264   -1.306372
     27          1           0       -1.797246    2.320066   -1.167419
     28          1           0       -3.425394    2.045959   -0.680277
 ---------------------------------------------------------------------

 SCF Done:  E(UB3LYP) =  -799.730220394     A.U. after    1 cycles

 Alpha  occ. eigenvalues --  -19.12501 -19.11757 -14.34000 -14.33467 -10.27843
 Alpha  occ. eigenvalues --  -10.27224 -10.24546 -10.23927 -10.20500 -10.20335
 Alpha  occ. eigenvalues --  -10.20193 -10.19583 -10.19532 -10.19499 -10.19416
 Alpha  occ. eigenvalues --  -10.19408 -10.19040 -10.18856  -1.05700  -1.04928
 Alpha  occ. eigenvalues --   -0.96485  -0.91716  -0.88665  -0.86185  -0.80287
 Alpha  occ. eigenvalues --   -0.77485  -0.76236  -0.75130  -0.68615  -0.66380
 Alpha  occ. eigenvalues --   -0.64775  -0.61491  -0.58872  -0.57667  -0.56230
 Alpha  occ. eigenvalues --   -0.53539  -0.51876  -0.50737  -0.49951  -0.48794
 Alpha  occ. eigenvalues --   -0.47403  -0.46610  -0.45261  -0.44894  -0.44831
 Alpha  occ. eigenvalues --   -0.44535  -0.42885  -0.41748  -0.41007  -0.40235
 Alpha  occ. eigenvalues --   -0.38521  -0.37754  -0.37430  -0.36437  -0.33949
 Alpha  occ. eigenvalues --   -0.32801  -0.28264  -0.28207  -0.27551  -0.26975
 Alpha  occ. eigenvalues --   -0.25581  -0.21722
 Alpha virt. eigenvalues --   -0.11195  -0.06564  -0.03034  -0.01440  -0.01016
 Alpha virt. eigenvalues --   -0.00194   0.00637   0.01479   0.01828   0.03240
 Alpha virt. eigenvalues --    0.03606   0.03800   0.03854   0.03974   0.04727

  Beta  occ. eigenvalues --  -19.12501 -19.11757 -14.34000 -14.33467 -10.27843
  Beta  occ. eigenvalues --  -10.27224 -10.24546 -10.23927 -10.20500 -10.20335
  Beta  occ. eigenvalues --  -10.20193 -10.19583 -10.19532 -10.19499 -10.19416
  Beta  occ. eigenvalues --  -10.19408 -10.19040 -10.18856  -1.05700  -1.04928
  Beta  occ. eigenvalues --   -0.96485  -0.91716  -0.88665  -0.86185  -0.80287
  Beta  occ. eigenvalues --   -0.77485  -0.76236  -0.75130  -0.68615  -0.66380
  Beta  occ. eigenvalues --   -0.64775  -0.61491  -0.58872  -0.57667  -0.56230
  Beta  occ. eigenvalues --   -0.53539  -0.51876  -0.50737  -0.49951  -0.48794
  Beta  occ. eigenvalues --   -0.47403  -0.46610  -0.45261  -0.44894  -0.44831
  Beta  occ. eigenvalues --   -0.44535  -0.42885  -0.41748  -0.41007  -0.40235
  Beta  occ. eigenvalues --   -0.38521  -0.37754  -0.37430  -0.36437  -0.33949
  Beta  occ. eigenvalues --   -0.32801  -0.28264  -0.28207  -0.27551  -0.26975
  Beta  occ. eigenvalues --   -0.25581  -0.21722
  Beta virt. eigenvalues --   -0.11195  -0.06564  -0.03034  -0.01440  -0.01016
  Beta virt. eigenvalues --   -0.00194   0.00637   0.01479   0.01828   0.03240
  Beta virt. eigenvalues --    0.03606   0.03800   0.03854   0.03974   0.04727

 Mulliken charges and spin densities:
               1          2
     1  N   -0.386095   0.000000
     2  C   -0.415440  -0.000000
     3  C   -0.032200   0.000000
     4  C    0.098256   0.000000
     5  C    0.457359   0.000000
     6  C   -0.521632  -0.000000
     7  O   -0.317053   0.000000
     8  C   -0.024832  -0.000000
     9  C    0.178286   0.000000
    10  C   -0.415481   0.000000
    11  C   -0.449722   0.000000
    12  C    0.262046   0.000000
    13  C    0.163438   0.000000
    14  C   -0.495782  -0.000000
    15  O   -0.312831  -0.000000
    16  C    0.427225   0.000000
    17  C   -0.111894  -0.000000
    18  N   -0.426715   0.000000
    19  H    0.268605   0.000000
    20  H    0.302557  -0.000000
    21  H    0.202571  -0.000000
    22  H    0.178635   0.000000
    23  H    0.181701   0.000000
    24  H    0.202809   0.000000
    25  H    0.203954   0.000000
    26  H    0.185800   0.000000
    27  H    0.323608  -0.000000
    28  H    0.272827  -0.000000
 Sum of Mulliken charges =  -0.00000   0.00000

 Dipole moment (field-independent basis, Debye):
    X=             -4.6924    Y=              1.6290    Z=             -1.2078  Tot=              5.1118
 Quadrupole moment (field-independent basis, Debye-Ang):
   XX=            -58.4437   YY=           -110.7207   ZZ=           -110.6624
   XY=              8.0998   XZ=             -0.6833   YZ=              2.9233

  Exact polarizability: 464.233 -10.385 268.694   7.777 -79.655 170.795
 Approx polarizability: 508.489 -28.044 339.616  17.088-107.483 208.339

                      1                      2                      3
                      A                      A                      A
 Frequencies --     34.4741                81.1363               112.8186
 Red. masses --      6.9371                 4.8928                 5.2328
 Frc consts  --      0.0049                 0.0190                 0.0392
 IR Inten    --     12.2953                 0.5030                 0.3179

                      4                      5                      6
                      A                      A                      A
 Frequencies --    125.6653               176.6214               202.2225
 Red. masses --      5.7778                 5.9937                 5.0071
 Frc consts  --      0.0538                 0.1102                 0.1206
 IR Inten    --      1.4363                 0.5648                 2.7305

                      7                      8                      9
                      A                      A                      A
 Frequencies --    251.8379               300.5717               308.9490
 Red. masses --      4.8301                 5.2741                 1.9914
 Frc consts  --      0.1805                 0.2807                 0.1120
 IR Inten    --      3.8439                 2.5878                12.6983

                     10                     11                     12
                      A                      A                      A
 Frequencies --    326.7535               340.1042               349.8777
 Red. masses --      6.1157                 1.6620                 4.0076
 Frc consts  --      0.3847                 0.1133                 0.2890
 IR Inten    --     26.5245                56.3284                49.5427

                     13                     14                     15
                      A                      A                      A
 Frequencies --    389.5000               415.7583               425.2403
 Red. masses --      7.5999                 8.8548                 3.3017
 Frc consts  --      0.6793                 0.9018                 0.3518
 IR Inten    --      2.8083                28.1982                 0.2625

                     16                     17                     18
                      A                      A                      A
 Frequencies --    453.1270               463.5097               477.7411
 Red. masses --      4.4001                 4.8872                 6.3655
 Frc consts  --      0.5323                 0.6186                 0.8560
 IR Inten    --     20.9248                35.6703                26.4274

                     19                     20                     21
                      A                      A                      A
 Frequencies --    504.2402               526.8828               570.1303
 Red. masses --      3.3607                 1.2434                 4.7603
 Frc consts  --      0.5035                 0.2034                 0.9117
 IR Inten    --     46.3355               267.6154                99.6881

                     22                     23                     24
                      A                      A                      A
 Frequencies --    580.6458               615.8787               629.9422
 Red. masses --      4.4387                 4.7404                 1.5300
 Frc consts  --      0.8817                 1.0594                 0.3577
 IR Inten    --      6.7962                90.0905               772.0094

                     25                     26                     27
                      A                      A                      A
 Frequencies --    657.2705               668.0675               690.3751
 Red. masses --      1.3410                 5.8011                 4.1442
 Frc consts  --      0.3413                 1.5255                 1.1638
 IR Inten    --    129.9194                29.5472                12.3958

                     28                     29                     30
                      A                      A                      A
 Frequencies --    695.5186               732.3633               757.8022
 Red. masses --      4.6918                 2.1564                 5.0489
 Frc consts  --      1.3372                 0.6814                 1.7083
 IR Inten    --     33.5703               172.9626                56.4965

                     31                     32                     33
                      A                      A                      A
 Frequencies --    767.6550               798.4056               812.0147
 Red. masses --      5.7958                 3.8614                 2.2878
 Frc consts  --      2.0123                 1.4502                 0.8888
 IR Inten    --      2.6739                 3.2725                 1.5016

                     34                     35                     36
                      A                      A                      A
 Frequencies --    824.1305               855.1821               909.2413
 Red. masses --      5.5434                 1.6327                 6.6987
 Frc consts  --      2.2183                 0.7035                 3.2629
 IR Inten    --     24.1883                50.5979                22.0225

                     37                     38                     39
                      A                      A                      A
 Frequencies --    912.6253               967.5450               991.7805
 Red. masses --      1.4113                 1.3422                 2.9785
 Frc consts  --      0.6926                 0.7403                 1.7262
 IR Inten    --      0.1139                 0.1258               140.6515

                     40                     41                     42
                      A                      A                      A
 Frequencies --   1000.6479              1021.2099              1034.9461
 Red. masses --      1.3863                 1.3247                 3.0110
 Frc consts  --      0.8178                 0.8139                 1.9002
 IR Inten    --      2.3042                 0.0073                96.7535

                     43                     44                     45
                      A                      A                      A
 Frequencies --   1056.7918              1108.0776              1112.7677
 Red. masses --      1.9215                 1.8265                 1.8426
 Frc consts  --      1.2644                 1.3213                 1.3443
 IR Inten    --      2.3753                11.4263                 2.7606

                     46                     47                     48
                      A                      A                      A
 Frequencies --   1159.5049              1179.6858              1183.6990
 Red. masses --      1.7664                 1.1707                 1.5299
 Frc consts  --      1.3992                 0.9599                 1.2630
 IR Inten    --      4.6182                 2.3549                37.5676

                     49                     50                     51
                      A                      A                      A
 Frequencies --   1209.1986              1259.9068              1285.7725
 Red. masses --      2.0437                 2.1035                 3.4324
 Frc consts  --      1.7606                 1.9673                 3.3433
 IR Inten    --     81.8926                64.9398              1129.3531

                     52                     53                     54
                      A                      A                      A
 Frequencies --   1301.5332              1322.2912              1353.0144
 Red. masses --      3.9611                 2.2112                 4.6848
 Frc consts  --      3.9535                 2.2779                 5.0529
 IR Inten    --   1096.9448                46.1428                13.9588

                     55                     56                     57
                      A                      A                      A
 Frequencies --   1355.9577              1405.3152              1455.0881
 Red. masses --      7.3516                 4.1078                 3.8846
 Frc consts  --      7.9639                 4.7798                 4.8459
 IR Inten    --     43.5260               125.2805               235.8562

                     58                     59                     60
                      A                      A                      A
 Frequencies --   1478.0803              1491.1258              1504.8164
 Red. masses --      2.5938                 3.6491                 2.7403
 Frc consts  --      3.3387                 4.7805                 3.6561
 IR Inten    --      8.5262                16.9061                12.0702

                     61                     62                     63
                      A                      A                      A
 Frequencies --   1565.9928              1590.0331              1606.1509
 Red. masses --      3.0792                 3.4843                 5.4599
 Frc consts  --      4.4490                 5.1901                 8.2987
 IR Inten    --   1086.1960                84.2906                76.9463

                     64                     65                     66
                      A                      A                      A
 Frequencies --   1619.3745              1630.3659              1649.7214
 Red. masses --      5.7158                 2.1642                 2.7663
 Frc consts  --      8.8313                 3.3893                 4.4358
 IR Inten    --    280.2310                81.1895                96.4213

                     67                     68                     69
                      A                      A                      A
 Frequencies --   1665.3485              1674.4803              3171.9368
 Red. masses --      1.7088                 6.8401                 1.0901
 Frc consts  --      2.7922                11.2998                 6.4619
 IR Inten    --    223.9109               378.4782                26.6377

                     70                     71                     72
                      A                      A                      A
 Frequencies --   3175.7077              3188.6614              3202.7111
 Red. masses --      1.0874                 1.0918                 1.0928
 Frc consts  --      6.4611                 6.5406                 6.6040
 IR Inten    --      4.1460                16.2875                 7.3969

                     73                     74                     75
                      A                      A                      A
 Frequencies --   3206.0034              3206.4486              3498.2447
 Red. masses --      1.0924                 1.0940                 1.0517
 Frc consts  --      6.6157                 6.6272                 7.5830
 IR Inten    --     11.9998                11.7037               100.4929

                     76                     77                     78
                      A                      A                      A
 Frequencies --   3540.9949              3633.4178              3638.4775
 Red. masses --      1.0496                 1.0974                 1.0978
 Frc consts  --      7.7539                 8.5358                 8.5624
 IR Inten    --     82.7365               171.0768                25.8450

 - Thermochemistry -
 -------------------
 Temperature   298.150 Kelvin.  Pressure   1.00000 Atm.
 Atom     1 has atomic number  7 and mass  14.00307

 Molecular mass:   238.07423 amu.
 Principal axes and moments of inertia in atomic units:
                           1         2         3
     Eigenvalues --  2007.038315725.303707728.36413
           X            0.99877  -0.04912  -0.00655
           Y            0.04614   0.87368   0.48430
           Z           -0.01807  -0.48401   0.87488
 This molecule is an asymmetric top.
 Rotational symmetry number  1.
 Warning -- assumption of classical behavior for rotation
           may cause significant error
 Rotational temperatures (Kelvin)      0.04316     0.01513     0.01121
 Rotational constants (GHZ):           0.89921     0.31522     0.23352
 Zero-point vibrational energy     558937.8 (Joules/Mol)
                                  133.58935 (Kcal/Mol)
 Warning -- explicit consideration of  23 degrees of freedom as
           vibrations may cause significant error
 Vibrational temperatures:     49.60   116.74   162.32   180.80   254.12
          (Kelvin)            290.95   362.34   432.46   444.51   470.13
                              489.33   503.40   560.40   598.18   611.83
                              651.95   666.89   687.36   725.49   758.07
                              820.29   835.42   886.11   906.35   945.67
                              961.20   993.30  1000.70  1053.71  1090.31
                             1104.48  1148.73  1168.31  1185.74  1230.42
                             1308.20  1313.06  1392.08  1426.95  1439.71
                             1469.29  1489.06  1520.49  1594.28  1601.02
                             1668.27  1697.30  1703.08  1739.77  1812.72
                             1849.94  1872.62  1902.48  1946.69  1950.92
                             2021.94  2093.55  2126.63  2145.40  2165.10
                             2253.11  2287.70  2310.89  2329.92  2345.73
                             2373.58  2396.07  2409.20  4563.71  4569.14
                             4587.77  4607.99  4612.72  4613.36  5033.19
                             5094.70  5227.68  5234.96

 Zero-point correction=                           0.212888 (Hartree/Particle)
 Thermal correction to Energy=                    0.226680
 Thermal correction to Enthalpy=                  0.227625
 Thermal correction to Gibbs Free Energy=         0.172623
 Sum of electronic and zero-point Energies=           -799.517332
 Sum of electronic and thermal Energies=              -799.503540
 Sum of electronic and thermal Enthalpies=            -799.502596
 Sum of electronic and thermal Free Energies=         -799.557597

                     E (Thermal)             CV                S
                      KCal/Mol        Cal/Mol-Kelvin    Cal/Mol-Kelvin
 Total                  142.244             56.642            115.761
 Electronic               0.000              0.000              0.000
 Translational            0.889              2.981             42.304
 Rotational               0.889              2.981             32.851
 Vibrational            140.467             50.681             40.606
 Vibration     1          0.594              1.983              5.554
 Vibration     2          0.600              1.962              3.863
 Vibration     3          0.607              1.939              3.220
 Vibration     4          0.611              1.927              3.011
 Vibration     5          0.628              1.871              2.364
 Vibration     6          0.639              1.837              2.113
 Vibration     7          0.664              1.760              1.718
 Vibration     8          0.693              1.673              1.414
 Vibration     9          0.698              1.657              1.368
 Vibration    10          0.710              1.622              1.276
 Vibration    11          0.720              1.595              1.212
 Vibration    12          0.727              1.575              1.167
 Vibration    13          0.757              1.493              1.002
 Vibration    14          0.779              1.436              0.906
 Vibration    15          0.787              1.415              0.874
 Vibration    16          0.812              1.354              0.786
 Vibration    17          0.821              1.331              0.756
 Vibration    18          0.834              1.299              0.716
 Vibration    19          0.860              1.241              0.648
 Vibration    20          0.882              1.190              0.594
 Vibration    21          0.926              1.096              0.504
 Vibration    22          0.937              1.073              0.484
 Vibration    23          0.975              0.998              0.423

 Optimization completed.
    -- Stationary point found.
 Normal termination of Gaussian 16 at Sat Feb 10 16:50:55 2024.
