 Q-Chem 5.4, Q-Chem, Inc., Pleasanton, CA (2021)
 Q-Chem 5.4.0 for Intel X86 EM64T Linux

User input:
--------------------------------------------------------------
$molecule
-2 1
C                 -4.9631230000     -0.4480770000     -0.3174340000
C                 -3.6324740000     -0.3782230000      0.3984010000
O                 -3.3833230000     -0.9510960000      1.4335880000
O                 -2.5756580000     -1.8538130000     -1.4533930000
C                 -1.3053770000     -1.7415440000     -1.3575120000
C                 -0.4313390000     -2.6769040000     -1.9588740000
C                  0.9639690000     -2.5877430000     -1.8566680000
C                  1.5550850000     -1.5762150000     -1.1443600000
O                  2.9740770000     -1.4933740000     -1.2162420000
C                  3.7208160000     -1.8173270000     -0.1464330000
C                  5.0985100000     -1.2067710000     -0.2817620000
O                  3.3805990000     -2.5289690000      0.7700870000
C                  0.7947360000     -0.5577490000     -0.4959510000
C                  1.4498660000      0.5250500000      0.2416580000
O                  2.7068450000      0.5880950000      0.4188520000
C                  0.5841440000      1.5632330000      0.7749060000
C                  1.1542120000      2.6621270000      1.4531210000
C                  0.3874600000      3.6872430000      1.9714880000
C                 -1.0259960000      3.6342200000      1.8211580000
C                 -1.6210290000      2.5777990000      1.1748280000
C                 -0.8484940000      1.5006250000      0.6296860000
C                 -1.4146400000      0.4148640000     -0.0350660000
O                 -2.8166200000      0.4830280000     -0.2426350000
C                 -0.6504060000     -0.6227050000     -0.6160900000
H                 -4.7955720000     -1.0671630000     -1.2014770000
H                 -5.2831630000      0.5469870000     -0.6395680000
H                 -5.7131970000     -0.9006770000      0.3330310000
H                 -0.8933240000     -3.4925960000     -2.5084530000
H                  1.6033340000     -3.3193530000     -2.3452390000
H                  4.9827280000     -0.1495110000     -0.0312710000
H                  5.4594390000     -1.2828060000     -1.3109710000
H                  5.7928810000     -1.6897460000      0.4073950000
H                  2.2352590000      2.6609880000      1.5472230000
H                  0.8527760000      4.5224570000      2.4891300000
H                 -1.6437990000      4.4337790000      2.2260550000
H                 -2.6992070000      2.5418660000      1.0687970000
$end

$rem
BASIS  =  6-311++G(d,p)
GUI  =  2
JOB_TYPE  =  SP
METHOD  =  B3LYP
SCF_CONVERGENCE  = 8
SOLVENT_METHOD = sm12
$end

$smx
solvent dimethylformamide
charges CM5
$end

--------------------------------------------------------------

             Standard Nuclear Orientation (Angstroms)
    I     Atom           X                Y                Z
 ----------------------------------------------------------------
    1      C      -4.9631230000    -0.4480770000    -0.3174340000
    2      C      -3.6324740000    -0.3782230000     0.3984010000
    3      O      -3.3833230000    -0.9510960000     1.4335880000
    4      O      -2.5756580000    -1.8538130000    -1.4533930000
    5      C      -1.3053770000    -1.7415440000    -1.3575120000
    6      C      -0.4313390000    -2.6769040000    -1.9588740000
    7      C       0.9639690000    -2.5877430000    -1.8566680000
    8      C       1.5550850000    -1.5762150000    -1.1443600000
    9      O       2.9740770000    -1.4933740000    -1.2162420000
   10      C       3.7208160000    -1.8173270000    -0.1464330000
   11      C       5.0985100000    -1.2067710000    -0.2817620000
   12      O       3.3805990000    -2.5289690000     0.7700870000
   13      C       0.7947360000    -0.5577490000    -0.4959510000
   14      C       1.4498660000     0.5250500000     0.2416580000
   15      O       2.7068450000     0.5880950000     0.4188520000
   16      C       0.5841440000     1.5632330000     0.7749060000
   17      C       1.1542120000     2.6621270000     1.4531210000
   18      C       0.3874600000     3.6872430000     1.9714880000
   19      C      -1.0259960000     3.6342200000     1.8211580000
   20      C      -1.6210290000     2.5777990000     1.1748280000
   21      C      -0.8484940000     1.5006250000     0.6296860000
   22      C      -1.4146400000     0.4148640000    -0.0350660000
   23      O      -2.8166200000     0.4830280000    -0.2426350000
   24      C      -0.6504060000    -0.6227050000    -0.6160900000
   25      H      -4.7955720000    -1.0671630000    -1.2014770000
   26      H      -5.2831630000     0.5469870000    -0.6395680000
   27      H      -5.7131970000    -0.9006770000     0.3330310000
   28      H      -0.8933240000    -3.4925960000    -2.5084530000
   29      H       1.6033340000    -3.3193530000    -2.3452390000
   30      H       4.9827280000    -0.1495110000    -0.0312710000
   31      H       5.4594390000    -1.2828060000    -1.3109710000
   32      H       5.7928810000    -1.6897460000     0.4073950000
   33      H       2.2352590000     2.6609880000     1.5472230000
   34      H       0.8527760000     4.5224570000     2.4891300000
   35      H      -1.6437990000     4.4337790000     2.2260550000
   36      H      -2.6992070000     2.5418660000     1.0687970000
 ----------------------------------------------------------------

   17   -1144.8356146257      9.61e-09  Convergence criterion met
 Total energy in the final basis set =    -1145.0964488601

                    Orbital Energies (a.u.)
 --------------------------------------------------------------

 Alpha MOs
 -- Occupied --
-19.1533 -19.1518 -19.0995 -19.0981 -19.0452 -19.0320 -10.2937 -10.2935
-10.2121 -10.2025 -10.2022 -10.2020 -10.1786 -10.1746 -10.1736 -10.1718
-10.1710 -10.1697 -10.1667 -10.1659 -10.1646 -10.1596 -10.1583 -10.1378
 -1.0939  -1.0930  -1.0123  -1.0116  -0.9699  -0.9536  -0.8568  -0.8267
 -0.7909  -0.7560  -0.7471  -0.7402  -0.7292  -0.7028  -0.6760  -0.6301
 -0.6164  -0.6034  -0.5973  -0.5608  -0.5308  -0.5247  -0.4921  -0.4826
 -0.4759  -0.4737  -0.4702  -0.4635  -0.4599  -0.4507  -0.4451  -0.4396
 -0.4305  -0.4241  -0.4067  -0.4051  -0.4024  -0.3945  -0.3851  -0.3807
 -0.3790  -0.3710  -0.3699  -0.3636  -0.3600  -0.3480  -0.3428  -0.3396
 -0.3305  -0.3103  -0.2996  -0.2909  -0.2827  -0.2690  -0.2686  -0.2518
 -0.2381  -0.2197  -0.2027  -0.1885  -0.1373

          Ground-State Mulliken Net Atomic Charges

     Atom                 Charge (a.u.)
  ----------------------------------------
      1 C                     0.369166
      2 C                    -0.328232
      3 O                    -0.247981
      4 O                    -0.311653
      5 C                    -1.340143
      6 C                    -0.129380
      7 C                     1.311172
      8 C                    -0.665035
      9 O                     0.109497
     10 C                    -0.184370
     11 C                     0.360859
     12 O                    -0.274807
     13 C                    -1.134344
     14 C                    -1.799389
     15 O                    -0.213470
     16 C                    -0.739539
     17 C                     0.650583
     18 C                     1.411968
     19 C                     1.737355
     20 C                     0.704359
     21 C                    -1.135123
     22 C                    -2.018054
     23 O                     0.132495
     24 C                    -1.063735
     25 H                     0.178561
     26 H                     0.227111
     27 H                     0.239844
     28 H                     0.121932
     29 H                     0.265042
     30 H                     0.173151
     31 H                     0.225451
     32 H                     0.240981
     33 H                     0.146771
     34 H                     0.372645
     35 H                     0.403038
     36 H                     0.203274
  ----------------------------------------
  Sum of atomic charges =    -2.000000

                    Cartesian Multipole Moments
 -----------------------------------------------------------------
    Charge (ESU x 10^10)
                -9.6064
    Dipole Moment (Debye)
         X       0.7963      Y       6.4501      Z      -0.0148
       Tot       6.4991
    Quadrupole Moments (Debye-Ang)
        XX    -193.6971     XY      -6.8891     YY    -188.4241
        XZ      -6.5217     YZ      -9.3816     ZZ    -170.9785

 Total job time:  1519.89s(wall), 11708.88s(cpu)
        *  Thank you very much for using Q-Chem.  Have a nice day.  *
