 Gaussian 16, Revision A.03,
 Gaussian 16:  ES64L-G16RevA.03 25-Dec-2016

 ----------------------------------------------------------------
 #P UB3LYP/6-311++G(d,p) SCRF=(PCM,Solvent=n,n-DiMethylFormamide)
 ----------------------------------------------------------------

 -------
 Reduced
 -------
 Symbolic Z-matrix:
 Charge = -2 Multiplicity = 1

                         Standard orientation:
 ---------------------------------------------------------------------
 Center     Atomic      Atomic             Coordinates (Angstroms)
 Number     Number       Type             X           Y           Z
 ---------------------------------------------------------------------
      1          6           0        2.473555   -1.186008   -0.005599
      2          6           0        3.683487   -0.522079    0.010595
      3          6           0        3.669994    0.905294    0.003611
      4          6           0        1.221125   -0.516300   -0.012286
      5          6           0        1.221116    0.928767   -0.003743
      6          6           0        2.472949    1.590568   -0.008012
      7          6           0        0.000004   -1.298990   -0.013587
      8          6           0       -1.221134   -0.516319   -0.012300
      9          6           0       -1.221106    0.928745   -0.003670
     10          6           0       -0.000003    1.713054    0.002563
     11          6           0       -2.473563   -1.186012   -0.005695
     12          6           0       -3.683499   -0.522076    0.010578
     13          6           0       -3.669988    0.905298    0.003811
     14          6           0       -2.472935    1.590557   -0.007773
     15          8           0        0.000025   -2.580719   -0.009110
     16          8           0       -0.000030    2.993192    0.004650
     17          6           0        4.999913   -1.262105    0.017201
     18          1           0        4.613052    1.450725    0.011718
     19          1           0        2.446923    2.676018   -0.011087
     20          1           0       -2.446874    2.676005   -0.010688
     21          6           0       -4.999917   -1.262113    0.017029
     22          1           0       -4.613035    1.450747    0.012046
     23          1           0        2.435237   -2.271826   -0.012736
     24          1           0       -2.435262   -2.271829   -0.012969
     25          1           0        4.845378   -2.345604    0.008302
     26          1           0        5.603109   -1.020450    0.901875
     27          1           0        5.623910   -1.009578   -0.858320
     28          1           0       -4.845355   -2.345608    0.008114
     29          1           0       -5.623819   -1.009576   -0.858557
     30          1           0       -5.603209   -1.020492    0.901646
 ---------------------------------------------------------------------

 SCF Done:  E(UB3LYP) =  -767.841505822     A.U. after   17 cycles

 The electronic state is 1-A.
 Alpha  occ. eigenvalues --  -19.01838 -19.01450 -10.17119 -10.16700 -10.15385
 Alpha  occ. eigenvalues --  -10.15384 -10.15329 -10.15329 -10.14388 -10.14387
 Alpha  occ. eigenvalues --  -10.14314 -10.14314 -10.13802 -10.13801 -10.13053
 Alpha  occ. eigenvalues --  -10.13051 -10.12998 -10.12998  -0.93874  -0.93363
 Alpha  occ. eigenvalues --   -0.82709  -0.82230  -0.76304  -0.74085  -0.72452
 Alpha  occ. eigenvalues --   -0.71224  -0.68134  -0.65777  -0.62403  -0.59068
 Alpha  occ. eigenvalues --   -0.57186  -0.55364  -0.52069  -0.49177  -0.48234
 Alpha  occ. eigenvalues --   -0.44234  -0.42803  -0.42687  -0.41598  -0.40434
 Alpha  occ. eigenvalues --   -0.40309  -0.39548  -0.39485  -0.38105  -0.37673
 Alpha  occ. eigenvalues --   -0.37180  -0.36379  -0.35384  -0.35109  -0.34384
 Alpha  occ. eigenvalues --   -0.32547  -0.32247  -0.31198  -0.30944  -0.29411
 Alpha  occ. eigenvalues --   -0.29050  -0.22979  -0.22104  -0.21733  -0.20598
 Alpha  occ. eigenvalues --   -0.19937  -0.19104  -0.09976
 Alpha virt. eigenvalues --   -0.02145  -0.00112   0.00374   0.00453   0.01366
 Alpha virt. eigenvalues --    0.02103   0.02284   0.02324   0.03410   0.04075
 Alpha virt. eigenvalues --    0.04153   0.04554   0.04707   0.05791   0.06040

  Beta  occ. eigenvalues --  -19.01838 -19.01450 -10.17119 -10.16700 -10.15385
  Beta  occ. eigenvalues --  -10.15384 -10.15329 -10.15329 -10.14388 -10.14387
  Beta  occ. eigenvalues --  -10.14314 -10.14314 -10.13802 -10.13801 -10.13053
  Beta  occ. eigenvalues --  -10.13051 -10.12998 -10.12998  -0.93874  -0.93363
  Beta  occ. eigenvalues --   -0.82709  -0.82230  -0.76304  -0.74085  -0.72452
  Beta  occ. eigenvalues --   -0.71224  -0.68134  -0.65777  -0.62403  -0.59068
  Beta  occ. eigenvalues --   -0.57186  -0.55364  -0.52069  -0.49177  -0.48234
  Beta  occ. eigenvalues --   -0.44234  -0.42803  -0.42687  -0.41598  -0.40434
  Beta  occ. eigenvalues --   -0.40309  -0.39548  -0.39485  -0.38105  -0.37673
  Beta  occ. eigenvalues --   -0.37180  -0.36379  -0.35384  -0.35109  -0.34384
  Beta  occ. eigenvalues --   -0.32547  -0.32247  -0.31198  -0.30944  -0.29411
  Beta  occ. eigenvalues --   -0.29050  -0.22979  -0.22104  -0.21733  -0.20598
  Beta  occ. eigenvalues --   -0.19937  -0.19104  -0.09976
  Beta virt. eigenvalues --   -0.02145  -0.00112   0.00374   0.00453   0.01366
  Beta virt. eigenvalues --    0.02103   0.02284   0.02324   0.03410   0.04075
  Beta virt. eigenvalues --    0.04153   0.04554   0.04707   0.05791   0.06040

 Mulliken charges and spin densities:
               1          2
     1  C   -0.304870   0.000000
     2  C    0.332435  -0.000000
     3  C   -0.592627   0.000000
     4  C    0.160639   0.000000
     5  C    0.190960  -0.000000
     6  C    0.094647  -0.000000
     7  C   -0.438001   0.000000
     8  C    0.160521   0.000000
     9  C    0.190949  -0.000000
    10  C   -0.946015   0.000000
    11  C   -0.304894   0.000000
    12  C    0.332416   0.000000
    13  C   -0.592653   0.000000
    14  C    0.094666  -0.000000
    15  O   -0.661384   0.000000
    16  O   -0.646847  -0.000000
    17  C   -0.391169   0.000000
    18  H    0.151974  -0.000000
    19  H    0.144800   0.000000
    20  H    0.144801   0.000000
    21  C   -0.391161  -0.000000
    22  H    0.151974   0.000000
    23  H    0.107973  -0.000000
    24  H    0.107969  -0.000000
    25  H    0.154760   0.000000
    26  H    0.149163  -0.000000
    27  H    0.147525  -0.000000
    28  H    0.154762   0.000000
    29  H    0.147536  -0.000000
    30  H    0.149152  -0.000000
 Sum of Mulliken charges =  -2.00000   0.00000

 Dipole moment (field-independent basis, Debye):
    X=             -0.0000    Y=             -1.8993    Z=              0.0409  Tot=              1.8997
 Quadrupole moment (field-independent basis, Debye-Ang):
   XX=           -130.3288   YY=           -169.6026   ZZ=           -118.7156
   XY=              0.0005   XZ=              0.0003   YZ=             -0.1114

 Normal termination of Gaussian 16 at Sun Jan 14 01:23:17 2024.
