 Gaussian 16, Revision A.03,
 Gaussian 16:  ES64L-G16RevA.03 25-Dec-2016

 --------------------------------------
 #P UB3LYP/6-311++G(d,p) nosym opt freq
 --------------------------------------

 -------
 Reduced
 -------
 Symbolic Z-matrix:
 Charge = -2 Multiplicity = 1

 SCF Done:  E(UB3LYP) =  -767.580652425     A.U. after   61 cycles
 Optimization completed.
    -- Stationary point found.
 Normal termination of Gaussian 16 at Wed Dec 27 20:15:29 2023.

 ----------------------------------------------------------------------
 #P Geom=AllCheck Guess=TCheck SCRF=Check GenChk UB3LYP/6-311++G(d,p) F
 req
 ----------------------------------------------------------------------

 Structure from the checkpoint file:  "130-an.chk"
 -------
 Reduced
 -------
 Charge = -2 Multiplicity = 1

                          Input orientation:
 ---------------------------------------------------------------------
 Center     Atomic      Atomic             Coordinates (Angstroms)
 Number     Number       Type             X           Y           Z
 ---------------------------------------------------------------------
      1          6           0       -3.370196    3.488998    0.018609
      2          6           0       -4.592143    2.850289    0.081038
      3          6           0       -4.606341    1.423508    0.122503
      4          6           0       -2.131313    2.794567    0.010359
      5          6           0       -2.159018    1.350898    0.068206
      6          6           0       -3.423221    0.714463    0.110932
      7          6           0       -0.895590    3.552224   -0.041459
      8          6           0        0.309995    2.745810   -0.037276
      9          6           0        0.282254    1.302149    0.020659
     10          6           0       -0.953383    0.543040    0.077460
     11          6           0        1.574993    3.390199   -0.077949
     12          6           0        2.771973    2.703159   -0.062624
     13          6           0        2.730785    1.276923   -0.020416
     14          6           0        1.520741    0.615707    0.014733
     15          8           0       -0.870786    4.833119   -0.080722
     16          8           0       -0.978018   -0.736044    0.123228
     17          6           0       -5.893642    3.616260    0.088055
     18          1           0       -5.559394    0.897604    0.167604
     19          1           0       -3.418214   -0.370776    0.144392
     20          1           0        1.473684   -0.468485    0.049368
     21          6           0        4.102289    3.416554   -0.107099
     22          1           0        3.663105    0.713338   -0.011963
     23          1           0       -3.311083    4.572975   -0.026322
     24          1           0        1.557514    4.475701   -0.121522
     25          1           0       -5.718437    4.695539    0.039177
     26          1           0       -6.483427    3.416680    0.992053
     27          1           0       -6.539924    3.346854   -0.766006
     28          1           0        3.968517    4.502002   -0.149966
     29          1           0        4.703418    3.122214   -0.985557
     30          1           0        4.718522    3.192912    0.773316
 ---------------------------------------------------------------------

 SCF Done:  E(UB3LYP) =  -767.580652425     A.U. after    7 cycles

 Alpha  occ. eigenvalues --  -18.79635 -18.79239  -9.96590  -9.96590  -9.95435
 Alpha  occ. eigenvalues --   -9.95113  -9.94427  -9.94427  -9.93438  -9.93438
 Alpha  occ. eigenvalues --   -9.93011  -9.93011  -9.92585  -9.92584  -9.91448
 Alpha  occ. eigenvalues --   -9.91447  -9.91378  -9.91377  -0.71432  -0.70894
 Alpha  occ. eigenvalues --   -0.61375  -0.61074  -0.55421  -0.53637  -0.51201
 Alpha  occ. eigenvalues --   -0.49869  -0.47752  -0.45407  -0.40988  -0.38089
 Alpha  occ. eigenvalues --   -0.36075  -0.34128  -0.30554  -0.28202  -0.27120
 Alpha  occ. eigenvalues --   -0.23485  -0.22205  -0.21535  -0.21319  -0.21307
 Alpha  occ. eigenvalues --   -0.21075  -0.18537  -0.18440  -0.17466  -0.17243
 Alpha  occ. eigenvalues --   -0.15187  -0.14690  -0.14656  -0.13873  -0.12846
 Alpha  occ. eigenvalues --   -0.11179  -0.10040  -0.09651  -0.09603  -0.07622
 Alpha  occ. eigenvalues --   -0.07410  -0.01325  -0.00195   0.00576   0.00881
 Alpha  occ. eigenvalues --    0.02723   0.03451   0.12545
 Alpha virt. eigenvalues --    0.14073   0.14152   0.16800   0.16815   0.17650
 Alpha virt. eigenvalues --    0.17810   0.18809   0.19018   0.19601   0.20413
 Alpha virt. eigenvalues --    0.20905   0.21700   0.21872   0.22077   0.23821

  Beta  occ. eigenvalues --  -18.79635 -18.79239  -9.96590  -9.96590  -9.95435
  Beta  occ. eigenvalues --   -9.95113  -9.94427  -9.94427  -9.93438  -9.93438
  Beta  occ. eigenvalues --   -9.93011  -9.93011  -9.92585  -9.92584  -9.91448
  Beta  occ. eigenvalues --   -9.91447  -9.91378  -9.91377  -0.71432  -0.70894
  Beta  occ. eigenvalues --   -0.61375  -0.61074  -0.55421  -0.53637  -0.51201
  Beta  occ. eigenvalues --   -0.49869  -0.47752  -0.45407  -0.40988  -0.38089
  Beta  occ. eigenvalues --   -0.36075  -0.34128  -0.30554  -0.28202  -0.27120
  Beta  occ. eigenvalues --   -0.23485  -0.22205  -0.21535  -0.21319  -0.21307
  Beta  occ. eigenvalues --   -0.21075  -0.18537  -0.18440  -0.17466  -0.17243
  Beta  occ. eigenvalues --   -0.15187  -0.14690  -0.14656  -0.13873  -0.12846
  Beta  occ. eigenvalues --   -0.11179  -0.10040  -0.09651  -0.09603  -0.07622
  Beta  occ. eigenvalues --   -0.07410  -0.01325  -0.00195   0.00576   0.00881
  Beta  occ. eigenvalues --    0.02723   0.03451   0.12545
  Beta virt. eigenvalues --    0.14073   0.14152   0.16800   0.16815   0.17650
  Beta virt. eigenvalues --    0.17810   0.18809   0.19018   0.19601   0.20413
  Beta virt. eigenvalues --    0.20905   0.21700   0.21872   0.22077   0.23821

 Mulliken charges and spin densities:
               1          2
     1  C    0.108361  -0.000000
     2  C   -0.254389   0.000000
     3  C   -0.945618   0.000000
     4  C    0.369121  -0.000000
     5  C    0.221934  -0.000000
     6  C    0.082489  -0.000000
     7  C   -0.595743  -0.000000
     8  C    0.368856  -0.000000
     9  C    0.221843   0.000000
    10  C   -1.448617   0.000000
    11  C    0.108115  -0.000000
    12  C   -0.254034   0.000000
    13  C   -0.945560   0.000000
    14  C    0.082454   0.000000
    15  O   -0.478537  -0.000000
    16  O   -0.473257  -0.000000
    17  C    0.869647  -0.000000
    18  H    0.020509  -0.000000
    19  H    0.139830   0.000000
    20  H    0.139842  -0.000000
    21  C    0.869560  -0.000000
    22  H    0.020478   0.000000
    23  H    0.137020  -0.000000
    24  H    0.137009  -0.000000
    25  H   -0.108270   0.000000
    26  H    0.085920  -0.000000
    27  H   -0.228300  -0.000000
    28  H   -0.108212   0.000000
    29  H   -0.228356   0.000000
    30  H    0.085905   0.000000
 Sum of Mulliken charges =  -2.00000   0.00000

 Dipole moment (field-independent basis, Debye):
    X=              8.8676    Y=            -22.0321    Z=              1.5746  Tot=             23.8018
 Quadrupole moment (field-independent basis, Debye-Ang):
   XX=           -230.3650   YY=           -220.5318   ZZ=           -124.7215
   XY=             21.4218   XZ=              0.4956   YZ=              5.5972

  Exact polarizability:9723.023-179.924 792.971-182.125  59.731 334.241
 Approx polarizability:7010.555-123.074 974.431-131.152-115.173 421.546

                      1                      2                      3
                      A                      A                      A
 Frequencies --     44.5540                88.9165               114.4564
 Red. masses --      5.0421                 3.5939                 5.0886
 Frc consts  --      0.0059                 0.0167                 0.0393
 IR Inten    --      1.0051                14.1440                 2.0642

                      4                      5                      6
                      A                      A                      A
 Frequencies --    129.9483               138.2875               162.9552
 Red. masses --      1.1894                 1.1534                 3.7338
 Frc consts  --      0.0118                 0.0130                 0.0584
 IR Inten    --     54.2092                 4.5035                 2.5858

                      7                      8                      9
                      A                      A                      A
 Frequencies --    165.9715               186.4434               234.2889
 Red. masses --      4.7232                 2.5982                 4.2994
 Frc consts  --      0.0767                 0.0532                 0.1390
 IR Inten    --      5.2414                 0.0199               128.6023

                     10                     11                     12
                      A                      A                      A
 Frequencies --    255.7860               302.3037               315.7893
 Red. masses --      3.7997                 4.3853                 4.9498
 Frc consts  --      0.1465                 0.2361                 0.2908
 IR Inten    --      3.4338                28.3987                15.6266

                     13                     14                     15
                      A                      A                      A
 Frequencies --    341.8701               366.1494               366.3348
 Red. masses --      6.5537                 6.5721                 3.4877
 Frc consts  --      0.4513                 0.5191                 0.2758
 IR Inten    --    264.4167                 0.1479                12.6512

                     16                     17                     18
                      A                      A                      A
 Frequencies --    418.8806               434.1585               436.2876
 Red. masses --      5.6188                 4.5705                 3.6440
 Frc consts  --      0.5809                 0.5076                 0.4087
 IR Inten    --      0.4762                21.4347                 8.4117

                     19                     20                     21
                      A                      A                      A
 Frequencies --    471.5253               471.7692               529.3139
 Red. masses --      3.0525                11.1013                 4.3656
 Frc consts  --      0.3999                 1.4557                 0.7207
 IR Inten    --    562.7948               178.6674                 2.6785

                     22                     23                     24
                      A                      A                      A
 Frequencies --    576.2546               591.3684               640.8591
 Red. masses --      4.9913                 5.6840                 3.6764
 Frc consts  --      0.9766                 1.1712                 0.8896
 IR Inten    --      0.0552               473.6081                21.4584

                     25                     26                     27
                      A                      A                      A
 Frequencies --    658.4617               704.1744               708.9201
 Red. masses --      7.2471                 6.4759                 2.7501
 Frc consts  --      1.8513                 1.8919                 0.8143
 IR Inten    --     61.9563                 0.6826                31.8042

                     28                     29                     30
                      A                      A                      A
 Frequencies --    723.1242               726.6993               768.3818
 Red. masses --      3.5332                 5.4648                 1.5127
 Frc consts  --      1.0885                 1.7003                 0.5262
 IR Inten    --      7.8830                11.6650               442.6637

                     31                     32                     33
                      A                      A                      A
 Frequencies --    769.7880               774.6470               834.9381
 Red. masses --      2.0058                 5.5399                 4.4172
 Frc consts  --      0.7003                 1.9587                 1.8143
 IR Inten    --     27.7830                 0.3908                13.1551

                     34                     35                     36
                      A                      A                      A
 Frequencies --    899.2194               925.2118               928.1802
 Red. masses --      3.8043                 1.3923                 1.4218
 Frc consts  --      1.8124                 0.7022                 0.7217
 IR Inten    --     38.0705               395.4781                35.0632

                     37                     38                     39
                      A                      A                      A
 Frequencies --    930.6745               958.3412               962.5834
 Red. masses --      5.5449                 1.2834                 1.7976
 Frc consts  --      2.8297                 0.6945                 0.9813
 IR Inten    --    116.7021               121.5183                57.6842

                     40                     41                     42
                      A                      A                      A
 Frequencies --    966.4637              1002.0592              1028.6985
 Red. masses --      1.3559                 1.4860                 1.8836
 Frc consts  --      0.7462                 0.8791                 1.1744
 IR Inten    --      8.0589                16.6802               434.8869

                     43                     44                     45
                      A                      A                      A
 Frequencies --   1053.0522              1055.0205              1091.6654
 Red. masses --      1.4603                 1.4754                 2.8197
 Frc consts  --      0.9541                 0.9675                 1.9799
 IR Inten    --    443.9186                 3.2604                 0.9646

                     46                     47                     48
                      A                      A                      A
 Frequencies --   1107.4760              1136.4210              1168.0110
 Red. masses --      1.6544                 1.4700                 2.9011
 Frc consts  --      1.1955                 1.1185                 2.3319
 IR Inten    --    669.6222                17.7237               106.2931

                     49                     50                     51
                      A                      A                      A
 Frequencies --   1185.9420              1203.9524              1212.9477
 Red. masses --      2.3045                 4.8773                 1.6840
 Frc consts  --      1.9096                 4.1653                 1.4597
 IR Inten    --     51.7242              1019.1104                55.5914

                     52                     53                     54
                      A                      A                      A
 Frequencies --   1215.0946              1256.2196              1323.1722
 Red. masses --      3.2114                 2.0264                 1.9921
 Frc consts  --      2.7936                 1.8841                 2.0550
 IR Inten    --    549.7613                 2.8820               219.2552

                     55                     56                     57
                      A                      A                      A
 Frequencies --   1333.0012              1351.4507              1360.0183
 Red. masses --      7.5977                 6.5420                 2.4102
 Frc consts  --      7.9541                 7.0399                 2.6266
 IR Inten    --    229.5255              1722.9059               163.2571

                     58                     59                     60
                      A                      A                      A
 Frequencies --   1382.3704              1396.0677              1447.7333
 Red. masses --      1.2985                 1.5437                 3.2441
 Frc consts  --      1.4619                 1.7726                 4.0060
 IR Inten    --   7421.9073               193.6931                16.0484

                     61                     62                     63
                      A                      A                      A
 Frequencies --   1447.7994              1460.8540              1474.1353
 Red. masses --      3.8229                 6.5362                 1.2894
 Frc consts  --      4.7213                 8.2185                 1.6509
 IR Inten    --   1058.8973                74.4913                 0.2072

                     64                     65                     66
                      A                      A                      A
 Frequencies --   1475.0492              1478.1826              1486.3471
 Red. masses --      1.0662                 1.3524                 1.3556
 Frc consts  --      1.3668                 1.7411                 1.7645
 IR Inten    --     15.0360               809.2631                49.8439

                     67                     68                     69
                      A                      A                      A
 Frequencies --   1494.6197              1499.6889              1523.8421
 Red. masses --      2.1023                 2.7039                 4.0584
 Frc consts  --      2.7669                 3.5830                 5.5524
 IR Inten    --      7.8407               143.1885               159.4293

                     70                     71                     72
                      A                      A                      A
 Frequencies --   1549.9414              1605.9210              1607.5587
 Red. masses --      6.4347                 5.6985                 5.3814
 Frc consts  --      9.1078                 8.6588                 8.1937
 IR Inten    --    935.2512                10.6569               542.6085

                     73                     74                     75
                      A                      A                      A
 Frequencies --   2916.2807              2917.4884              2978.6547
 Red. masses --      1.0630                 1.0603                 1.0754
 Frc consts  --      5.3263                 5.3174                 5.6218
 IR Inten    --   2643.3360               193.7131             25230.8919

                     76                     77                     78
                      A                      A                      A
 Frequencies --   2987.6600              3058.1593              3058.5290
 Red. masses --      1.0777                 1.0930                 1.0935
 Frc consts  --      5.6678                 6.0226                 6.0268
 IR Inten    --    216.6481               655.3632                65.1494

                     79                     80                     81
                      A                      A                      A
 Frequencies --   3098.1049              3098.3341              3146.6686
 Red. masses --      1.0866                 1.0868                 1.0883
 Frc consts  --      6.1451                 6.1469                 6.3490
 IR Inten    --    132.0848               117.8530               683.6354

                     82                     83                     84
                      A                      A                      A
 Frequencies --   3147.2735              3157.8697              3158.3853
 Red. masses --      1.0885                 1.0905                 1.0907
 Frc consts  --      6.3524                 6.4072                 6.4105
 IR Inten    --      4.3039                40.2887                78.6895

 - Thermochemistry -
 -------------------
 Temperature   298.150 Kelvin.  Pressure   1.00000 Atm.
 Atom     1 has atomic number  6 and mass  12.00000

 Molecular mass:   236.08373 amu.
 Principal axes and moments of inertia in atomic units:
                           1         2         3
     Eigenvalues --  1923.634226636.723628537.89143
           X            0.99961   0.01929   0.02017
           Y           -0.01997   0.99922   0.03394
           Z           -0.01950  -0.03433   0.99922
 This molecule is an asymmetric top.
 Rotational symmetry number  1.
 Warning -- assumption of classical behavior for rotation
           may cause significant error
 Rotational temperatures (Kelvin)      0.04503     0.01305     0.01014
 Rotational constants (GHZ):           0.93819     0.27193     0.21138
 Zero-point vibrational energy     599101.8 (Joules/Mol)
                                  143.18877 (Kcal/Mol)
 Warning -- explicit consideration of  23 degrees of freedom as
           vibrations may cause significant error
 Vibrational temperatures:     64.10   127.93   164.68   186.97   198.96
          (Kelvin)            234.46   238.80   268.25   337.09   368.02
                              434.95   454.35   491.87   526.81   527.07
                              602.68   624.66   627.72   678.42   678.77
                              761.56   829.10   850.85   922.05   947.38
                             1013.15  1019.98  1040.41  1045.56  1105.53
                             1107.55  1114.54  1201.29  1293.78  1331.17
                             1335.44  1339.03  1378.84  1384.94  1390.53
                             1441.74  1480.07  1515.11  1517.94  1570.66
                             1593.41  1635.06  1680.51  1706.31  1732.22
                             1745.16  1748.25  1807.42  1903.75  1917.89
                             1944.44  1956.76  1988.92  2008.63  2082.97
                             2083.06  2101.84  2120.95  2122.27  2126.78
                             2138.52  2150.42  2157.72  2192.47  2230.02
                             2310.56  2312.92  4195.88  4197.62  4285.62
                             4298.58  4400.01  4400.54  4457.48  4457.81
                             4527.35  4528.22  4543.47  4544.21

 Zero-point correction=                           0.228186 (Hartree/Particle)
 Thermal correction to Energy=                    0.243002
 Thermal correction to Enthalpy=                  0.243946
 Thermal correction to Gibbs Free Energy=         0.186839
 Sum of electronic and zero-point Energies=           -767.352467
 Sum of electronic and thermal Energies=              -767.337650
 Sum of electronic and thermal Enthalpies=            -767.336706
 Sum of electronic and thermal Free Energies=         -767.393813

                     E (Thermal)             CV                S
                      KCal/Mol        Cal/Mol-Kelvin    Cal/Mol-Kelvin
 Total                  152.486             58.988            120.191
 Electronic               0.000              0.000              0.000
 Translational            0.889              2.981             42.279
 Rotational               0.889              2.981             33.055
 Vibrational            150.709             53.026             44.858
 Vibration     1          0.595              1.980              5.046
 Vibration     2          0.602              1.957              3.684
 Vibration     3          0.607              1.937              3.192
 Vibration     4          0.612              1.923              2.947
 Vibration     5          0.614              1.915              2.827
 Vibration     6          0.623              1.888              2.515
 Vibration     7          0.624              1.884              2.481
 Vibration     8          0.632              1.858              2.263
 Vibration     9          0.654              1.788              1.846
 Vibration    10          0.666              1.753              1.690
 Vibration    11          0.694              1.669              1.404
 Vibration    12          0.703              1.643              1.332
 Vibration    13          0.721              1.592              1.203
 Vibration    14          0.739              1.542              1.096
 Vibration    15          0.739              1.542              1.095
 Vibration    16          0.782              1.429              0.896
 Vibration    17          0.795              1.396              0.845
 Vibration    18          0.797              1.391              0.838
 Vibration    19          0.828              1.313              0.733
 Vibration    20          0.829              1.313              0.733
 Vibration    21          0.884              1.185              0.589
 Vibration    22          0.933              1.083              0.492
 Vibration    23          0.949              1.050              0.465

 Optimization completed.
    -- Stationary point found.
 Normal termination of Gaussian 16 at Wed Dec 27 22:31:44 2023.
