 Gaussian 16, Revision A.03,
 Gaussian 16:  ES64L-G16RevA.03 25-Dec-2016

 --------------------------------------
 #P UB3LYP/6-311++G(d,p) nosym opt freq
 --------------------------------------

 --------
 Oxidized
 --------
 Symbolic Z-matrix:
 Charge =  0 Multiplicity = 1

 SCF Done:  E(UB3LYP) =  -420.880028870     A.U. after   14 cycles
 SCF Done:  E(UB3LYP) =  -420.893109133     A.U. after   13 cycles
 SCF Done:  E(UB3LYP) =  -420.894153365     A.U. after   13 cycles
 SCF Done:  E(UB3LYP) =  -420.894232040     A.U. after   11 cycles
 SCF Done:  E(UB3LYP) =  -420.894232211     A.U. after   11 cycles
 SCF Done:  E(UB3LYP) =  -420.894250109     A.U. after   11 cycles
 SCF Done:  E(UB3LYP) =  -420.894253952     A.U. after   10 cycles
 SCF Done:  E(UB3LYP) =  -420.894259350     A.U. after   10 cycles
 SCF Done:  E(UB3LYP) =  -420.894261156     A.U. after   10 cycles
 SCF Done:  E(UB3LYP) =  -420.894261242     A.U. after    9 cycles
 Optimization completed.
    -- Stationary point found.
 Normal termination of Gaussian 16 at Sun Dec 17 20:53:45 2023.

 ----------------------------------------------------------------------
 #P Geom=AllCheck Guess=TCheck SCRF=Check GenChk UB3LYP/6-311++G(d,p) F
 req
 ----------------------------------------------------------------------

 Structure from the checkpoint file:  "032.chk"
 --------
 Oxidized
 --------
 Charge =  0 Multiplicity = 1

                          Input orientation:
 ---------------------------------------------------------------------
 Center     Atomic      Atomic             Coordinates (Angstroms)
 Number     Number       Type             X           Y           Z
 ---------------------------------------------------------------------
      1          6           0       -2.226861   -0.377813    0.002814
      2          6           0       -0.763549   -0.059498   -0.001394
      3          6           0       -0.265274    1.189892   -0.039220
      4          6           0        1.186291    1.473555   -0.041966
      5          8           0        1.612089    2.617734   -0.076490
      6          6           0        2.112558    0.313134   -0.000977
      7          6           0        1.641930   -0.939011    0.036949
      8          6           0        0.184495   -1.221388    0.039363
      9          8           0       -0.227871   -2.368999    0.073565
     10          1           0       -2.492656   -0.950869    0.895429
     11          1           0       -2.485437   -1.007559   -0.852950
     12          1           0       -2.826182    0.532629   -0.029137
     13          1           0       -0.909557    2.062701   -0.069764
     14          1           0        3.171902    0.544918   -0.003736
     15          1           0        2.288123   -1.809424    0.067515
 ---------------------------------------------------------------------

 SCF Done:  E(UB3LYP) =  -420.894261242     A.U. after    1 cycles

 Alpha  occ. eigenvalues --  -19.14596 -19.14131 -10.29064 -10.28722 -10.22872
 Alpha  occ. eigenvalues --  -10.22034 -10.21951 -10.21195 -10.19015  -1.07635
 Alpha  occ. eigenvalues --   -1.07015  -0.87385  -0.81753  -0.73946  -0.70151
 Alpha  occ. eigenvalues --   -0.63776  -0.60200  -0.53286  -0.51389  -0.48855
 Alpha  occ. eigenvalues --   -0.46608  -0.46125  -0.44823  -0.43612  -0.43055
 Alpha  occ. eigenvalues --   -0.41539  -0.41133  -0.40191  -0.31741  -0.30128
 Alpha  occ. eigenvalues --   -0.29213  -0.28125
 Alpha virt. eigenvalues --   -0.13897  -0.03814  -0.01161  -0.00733  -0.00102
 Alpha virt. eigenvalues --    0.01356   0.02799   0.02947   0.02994   0.05642
 Alpha virt. eigenvalues --    0.06129   0.06153   0.06738   0.07059   0.08756

  Beta  occ. eigenvalues --  -19.14596 -19.14131 -10.29064 -10.28722 -10.22872
  Beta  occ. eigenvalues --  -10.22034 -10.21951 -10.21195 -10.19015  -1.07635
  Beta  occ. eigenvalues --   -1.07015  -0.87385  -0.81753  -0.73946  -0.70151
  Beta  occ. eigenvalues --   -0.63776  -0.60200  -0.53286  -0.51389  -0.48855
  Beta  occ. eigenvalues --   -0.46608  -0.46125  -0.44823  -0.43612  -0.43055
  Beta  occ. eigenvalues --   -0.41539  -0.41133  -0.40191  -0.31741  -0.30128
  Beta  occ. eigenvalues --   -0.29213  -0.28125
  Beta virt. eigenvalues --   -0.13897  -0.03814  -0.01161  -0.00733  -0.00102
  Beta virt. eigenvalues --    0.01356   0.02799   0.02947   0.02994   0.05642
  Beta virt. eigenvalues --    0.06129   0.06153   0.06738   0.07059   0.08756

 Mulliken charges and spin densities:
               1          2
     1  C   -0.351256   0.000000
     2  C    1.422959   0.000000
     3  C   -0.833073  -0.000000
     4  C   -0.418633   0.000000
     5  O   -0.231513   0.000000
     6  C    0.154078  -0.000000
     7  C    0.220592   0.000000
     8  C   -0.910719  -0.000000
     9  O   -0.211350   0.000000
    10  H    0.183347   0.000000
    11  H    0.183324   0.000000
    12  H    0.152814   0.000000
    13  H    0.192526   0.000000
    14  H    0.223851   0.000000
    15  H    0.223054   0.000000
 Sum of Mulliken charges =  -0.00000  -0.00000

 Dipole moment (field-independent basis, Debye):
    X=             -0.7124    Y=             -0.4538    Z=              0.0128  Tot=              0.8447
 Quadrupole moment (field-independent basis, Debye-Ang):
   XX=            -46.3873   YY=            -67.7237   ZZ=            -52.2284
   XY=             -7.9050   XZ=              0.2757   YZ=              0.4557

  Exact polarizability:  93.796  19.926 120.265  -0.445  -2.170  49.363
 Approx polarizability: 129.053  55.962 241.985  -1.547  -5.083  74.701

                      1                      2                      3
                      A                      A                      A
 Frequencies --     82.5411               129.0104               174.9862
 Red. masses --      7.6496                 1.2589                 2.3755
 Frc consts  --      0.0307                 0.0123                 0.0429
 IR Inten    --     13.3671                 0.0014                 0.4229

                      4                      5                      6
                      A                      A                      A
 Frequencies --    254.4277               287.0617               387.0741
 Red. masses --      4.1513                 3.1724                 3.0864
 Frc consts  --      0.1583                 0.1540                 0.2725
 IR Inten    --      0.2239                 0.6651                 1.3502

                      7                      8                      9
                      A                      A                      A
 Frequencies --    400.3579               441.2953               486.3156
 Red. masses --      8.8837                 7.7792                 6.8363
 Frc consts  --      0.8390                 0.8926                 0.9526
 IR Inten    --     19.9569                 4.0360                 0.5566

                     10                     11                     12
                      A                      A                      A
 Frequencies --    582.1504               584.2459               680.4818
 Red. masses --      4.4625                 2.1850                 6.2320
 Frc consts  --      0.8911                 0.4394                 1.7002
 IR Inten    --      0.6068                 0.4571                 2.2330

                     13                     14                     15
                      A                      A                      A
 Frequencies --    765.7562               782.3640               815.4629
 Red. masses --      3.9238                 6.3896                 1.4552
 Frc consts  --      1.3556                 2.3043                 0.5701
 IR Inten    --      0.0951                 0.0640                14.9741

                     16                     17                     18
                      A                      A                      A
 Frequencies --    888.8550               922.9599              1006.4792
 Red. masses --      3.8865                 1.6274                 1.2373
 Frc consts  --      1.8091                 0.8168                 0.7384
 IR Inten    --     10.1608                49.7168                 0.0089

                     19                     20                     21
                      A                      A                      A
 Frequencies --   1016.4596              1058.1764              1105.1419
 Red. masses --      1.7089                 1.5280                 1.7623
 Frc consts  --      1.0403                 1.0081                 1.2681
 IR Inten    --     24.0992                 1.9418                33.7942

                     22                     23                     24
                      A                      A                      A
 Frequencies --   1148.7347              1232.0468              1296.5902
 Red. masses --      1.8827                 1.6427                 3.4719
 Frc consts  --      1.4638                 1.4692                 3.4389
 IR Inten    --      8.4390                 3.0780                91.5703

                     25                     26                     27
                      A                      A                      A
 Frequencies --   1359.9476              1389.4170              1416.5031
 Red. masses --      2.0678                 2.0173                 1.3061
 Frc consts  --      2.2532                 2.2944                 1.5440
 IR Inten    --     18.2206                 0.2697                12.2995

                     28                     29                     30
                      A                      A                      A
 Frequencies --   1467.1438              1479.0786              1650.5580
 Red. masses --      1.0431                 1.0706                 7.4303
 Frc consts  --      1.3228                 1.3800                11.9266
 IR Inten    --      9.2933                10.9656                35.2131

                     31                     32                     33
                      A                      A                      A
 Frequencies --   1684.6599              1721.2843              1724.6130
 Red. masses --      9.0103                10.5214                 9.2850
 Frc consts  --     15.0666                18.3666                16.2710
 IR Inten    --      3.5693               452.5317                35.3920

                     34                     35                     36
                      A                      A                      A
 Frequencies --   3036.6428              3087.5436              3122.5428
 Red. masses --      1.0358                 1.0988                 1.1032
 Frc consts  --      5.6274                 6.1714                 6.3378
 IR Inten    --      6.8707                 5.6371                10.3236

                     37                     38                     39
                      A                      A                      A
 Frequencies --   3172.0454              3175.3697              3193.4768
 Red. masses --      1.0920                 1.0873                 1.0995
 Frc consts  --      6.4739                 6.4591                 6.6062
 IR Inten    --      4.4700                 0.9803                 2.7004

 - Thermochemistry -
 -------------------
 Temperature   298.150 Kelvin.  Pressure   1.00000 Atm.
 Atom     1 has atomic number  6 and mass  12.00000

 Molecular mass:   122.03678 amu.
 Principal axes and moments of inertia in atomic units:
                           1         2         3
     Eigenvalues --   610.370461255.649371855.00647
           X            0.60612   0.79536  -0.00421
           Y            0.79505  -0.60572   0.03170
           Z           -0.02266   0.02256   0.99949
 This molecule is an asymmetric top.
 Rotational symmetry number  1.
 Warning -- assumption of classical behavior for rotation
           may cause significant error
 Rotational temperatures (Kelvin)      0.14190     0.06898     0.04669
 Rotational constants (GHZ):           2.95680     1.43730     0.97290
 Zero-point vibrational energy     294340.0 (Joules/Mol)
                                   70.34894 (Kcal/Mol)
 Warning -- explicit consideration of  11 degrees of freedom as
           vibrations may cause significant error
 Vibrational temperatures:    118.76   185.62   251.77   366.06   413.02
          (Kelvin)            556.91   576.03   634.93   699.70   837.58
                              840.60   979.06  1101.75  1125.65  1173.27
                             1278.86  1327.93  1448.10  1462.46  1522.48
                             1590.05  1652.77  1772.64  1865.50  1956.66
                             1999.06  2038.03  2110.89  2128.06  2374.78
                             2423.85  2476.54  2481.33  4369.05  4442.29
                             4492.64  4563.87  4568.65  4594.70

 Zero-point correction=                           0.112108 (Hartree/Particle)
 Thermal correction to Energy=                    0.120071
 Thermal correction to Enthalpy=                  0.121015
 Thermal correction to Gibbs Free Energy=         0.079367
 Sum of electronic and zero-point Energies=           -420.782153
 Sum of electronic and thermal Energies=              -420.774190
 Sum of electronic and thermal Enthalpies=            -420.773246
 Sum of electronic and thermal Free Energies=         -420.814894

                     E (Thermal)             CV                S
                      KCal/Mol        Cal/Mol-Kelvin    Cal/Mol-Kelvin
 Total                   75.346             29.347             87.655
 Electronic               0.000              0.000              0.000
 Translational            0.889              2.981             40.312
 Rotational               0.889              2.981             28.743
 Vibrational             73.568             23.386             18.600
 Vibration     1          0.600              1.961              3.830
 Vibration     2          0.611              1.924              2.961
 Vibration     3          0.627              1.873              2.381
 Vibration     4          0.665              1.755              1.700
 Vibration     5          0.684              1.698              1.491
 Vibration     6          0.755              1.498              1.011
 Vibration     7          0.766              1.469              0.961
 Vibration     8          0.801              1.380              0.823
 Vibration     9          0.842              1.280              0.693
 Vibration    10          0.939              1.070              0.481
 Vibration    11          0.941              1.065              0.478

 Optimization completed.
    -- Stationary point found.
 Normal termination of Gaussian 16 at Sun Dec 17 20:57:04 2023.
