 Q-Chem 5.4, Q-Chem, Inc., Pleasanton, CA (2021)
 Q-Chem 5.4.0 for Intel X86 EM64T Linux

User input:
--------------------------------------------------------------
$molecule
0 1
C                 -3.2062390000      3.0237620000     -0.2419030000
O                 -1.9031900000      2.5020270000     -0.0211410000
C                 -1.7247970000      1.1622720000      0.0274260000
C                 -2.7838970000      0.2615630000     -0.1103800000
C                 -2.5687440000     -1.1072990000     -0.0826550000
C                 -1.2853240000     -1.6337290000      0.0837750000
O                 -1.0441340000     -2.9644590000      0.0893280000
C                 -2.1231350000     -3.8689170000     -0.1019380000
C                 -0.1911470000     -0.7447730000      0.2271110000
C                  1.1967490000     -1.2836570000      0.4017490000
O                  1.4264070000     -2.4425510000      0.6995510000
C                  2.3299190000     -0.3374850000      0.1834030000
C                  3.6283510000     -0.8422040000      0.0518220000
C                  4.6952710000      0.0279300000     -0.1310180000
C                  4.4778410000      1.4098630000     -0.1577220000
C                  3.1942560000      1.9166870000     -0.0015000000
C                  2.1127310000      1.0430500000      0.1566540000
C                  0.7425570000      1.6030770000      0.3458900000
O                  0.6034420000      2.7866450000      0.5994220000
C                 -0.4117480000      0.6580120000      0.1992050000
H                 -3.0846460000      4.1052620000     -0.2545880000
H                 -3.8925510000      2.7476610000      0.5659770000
H                 -3.6165220000      2.6931460000     -1.2025840000
H                 -3.7939700000      0.6226200000     -0.2431000000
H                 -3.4186170000     -1.7656130000     -0.1946950000
H                 -2.8659450000     -3.7844430000      0.6987050000
H                 -1.6757480000     -4.8606580000     -0.0722210000
H                 -2.6091750000     -3.7187530000     -1.0723870000
H                  3.7748030000     -1.9141450000      0.0971310000
H                  5.6993230000     -0.3644530000     -0.2471780000
H                  5.3136370000      2.0868370000     -0.2945800000
H                  3.0042420000      2.9827250000      0.0024420000
$end
$rem
MAX_SCF_CYCLES=200
BASIS  =  6-311++G(d,p)
GUI  =  2
JOB_TYPE  =  SP
METHOD  =  B3LYP
SOLVENT_METHOD = COSMO
$end
$solvent
dielectric 37.219
opticaldielectric 1.43
$end

--------------------------------------------------------------

             Standard Nuclear Orientation (Angstroms)
    I     Atom           X                Y                Z
 ----------------------------------------------------------------
    1      C       2.9477065981    -3.4900360402    -0.2116978161
    2      O       1.7377390774    -2.7676918858    -0.0298256393
    3      C       1.7695297320    -1.4158024766    -0.0072279511
    4      C       2.9587416521    -0.6937152957    -0.1349977391
    5      C       2.9591956922     0.6922292445    -0.1345623760
    6      C       1.7704557611     1.4150864461    -0.0066200900
    7      O       1.7397029142     2.7669845921    -0.0283329915
    8      C       2.9502456683     3.4886253845    -0.2091393015
    9      C       0.5483235324     0.7101727194     0.1256702718
   10      C      -0.7418171677     1.4617448603     0.2591842943
   11      O      -0.7939564451     2.6478953073     0.5326669157
   12      C      -2.0039869307     0.6992650402     0.0299623678
   13      C      -3.2048459880     1.3971453048    -0.1399821756
   14      C      -4.3904570306     0.7001556244    -0.3334085729
   15      C      -4.3907219154    -0.6990323297    -0.3325576939
   16      C      -3.2053570634    -1.3961964467    -0.1382931988
   17      C      -2.0042718430    -0.6985054477     0.0307398879
   18      C      -0.7423686768    -1.4610347398     0.2608850000
   19      O      -0.7947642872    -2.6466084655     0.5368094638
   20      C       0.5479625495    -0.7101262519     0.1257326945
   21      H       2.6592098569    -4.5394898417    -0.2096084326
   22      H       3.6520216339    -3.3082075573     0.6073288935
   23      H       3.4240856095    -3.2462606664    -1.1678273408
   24      H       3.9026408721    -1.2100568099    -0.2382930644
   25      H       3.9034532899     1.2079772037    -0.2374994047
   26      H       3.6542660105     3.3054077892     0.6098347132
   27      H       2.6624981883     4.5382823935    -0.2059785739
   28      H       3.4266531270     3.2455908236    -1.1654475706
   29      H      -3.1832151333     2.4795007487    -0.1155403995
   30      H      -5.3184366432     1.2415966848    -0.4792626085
   31      H      -5.3188999231    -1.2403019660    -0.4777872680
   32      H      -3.1840543844    -2.4785287620    -0.1125865411
 ----------------------------------------------------------------

    9    -918.0433755660      2.16e-06  Convergence criterion met
 Total energy in the final basis set =     -918.0433755660
    5    -918.0670316085      3.83e-06  Convergence criterion met
 Total energy in the final basis set =     -918.0670316085

                    Orbital Energies (a.u.)
 --------------------------------------------------------------

 Alpha MOs
 -- Occupied --
-19.1666 -19.1665 -19.1240 -19.1240 -10.2800 -10.2800 -10.2592 -10.2591
-10.2224 -10.2223 -10.2111 -10.2106 -10.2024 -10.2019 -10.1970 -10.1964
-10.1930 -10.1926 -10.1921 -10.1920  -1.0883  -1.0871  -1.0607  -1.0591
 -0.8895  -0.8767  -0.8107  -0.7845  -0.7731  -0.7720  -0.7284  -0.6957
 -0.6882  -0.6584  -0.6437  -0.6045  -0.5810  -0.5621  -0.5602  -0.5284
 -0.5238  -0.5073  -0.4890  -0.4859  -0.4838  -0.4764  -0.4574  -0.4570
 -0.4505  -0.4491  -0.4449  -0.4396  -0.4239  -0.4153  -0.4147  -0.4058
 -0.3971  -0.3776  -0.3715  -0.3650  -0.3610  -0.3539  -0.3468  -0.3132
 -0.2887  -0.2776  -0.2754  -0.2718  -0.2617  -0.2281

          Ground-State Mulliken Net Atomic Charges

     Atom                 Charge (a.u.)
  ----------------------------------------
      1 C                    -0.343212
      2 O                    -0.149997
      3 C                    -0.411666
      4 C                     0.010017
      5 C                     0.007765
      6 C                    -0.408888
      7 O                    -0.150230
      8 C                    -0.343094
      9 C                     0.084689
     10 C                    -0.319335
     11 O                    -0.316014
     12 C                     0.437607
     13 C                     0.165380
     14 C                    -0.397582
     15 C                    -0.398527
     16 C                     0.164085
     17 C                     0.439227
     18 C                    -0.322973
     19 O                    -0.316104
     20 C                     0.084254
     21 H                     0.217062
     22 H                     0.177708
     23 H                     0.173604
     24 H                     0.247164
     25 H                     0.248382
     26 H                     0.177413
     27 H                     0.217263
     28 H                     0.173544
     29 H                     0.201181
     30 H                     0.225054
     31 H                     0.225088
     32 H                     0.201135
  ----------------------------------------
  Sum of atomic charges =     0.000000

                    Cartesian Multipole Moments
 -----------------------------------------------------------------
    Charge (ESU x 10^10)
                -0.0000
    Dipole Moment (Debye)
         X       5.1944      Y      -0.0040      Z      -2.6941
       Tot       5.8515
    Quadrupole Moments (Debye-Ang)
        XX     -67.6409     XY      -0.0006     YY    -119.8263
        XZ       0.9575     YZ       0.0231     ZZ    -118.4551

 Total job time:  81.04s(wall), 609.36s(cpu)
        *  Thank you very much for using Q-Chem.  Have a nice day.  *
