 Gaussian 16, Revision A.03,
 Gaussian 16:  ES64L-G16RevA.03 25-Dec-2016

 ----------------------------------------------------------------
 #P UB3LYP/6-311++G(d,p) SCRF=(PCM,Solvent=n,n-DiMethylFormamide)
 ----------------------------------------------------------------

 ------------------
 Quinone PCM in DMF
 ------------------
 Symbolic Z-matrix:
 Charge =  0 Multiplicity = 1

                         Standard orientation:
 ---------------------------------------------------------------------
 Center     Atomic      Atomic             Coordinates (Angstroms)
 Number     Number       Type             X           Y           Z
 ---------------------------------------------------------------------
      1          6           0        2.823320   -2.010336    0.424524
      2          6           0        4.160797   -2.189537    0.087050
      3          6           0        4.889539   -1.141652   -0.480880
      4          6           0        2.205871   -0.777250    0.200881
      5          6           0        2.940174    0.277405   -0.369925
      6          6           0        4.281429    0.087771   -0.710845
      7          6           0        0.767891   -0.611711    0.568495
      8          6           0        0.179956    0.742654    0.346283
      9          6           0        0.872470    1.746779   -0.204967
     10          6           0        2.295322    1.595121   -0.617368
     11          8           0        0.104459   -1.531217    1.007902
     12          8           0        2.881263    2.530988   -1.131525
     13         16           0       -1.521748    1.105238    0.926680
     14          8           0       -1.583370    0.745657    2.342395
     15          8           0       -1.790677    2.478471    0.484648
     16          6           0       -2.599561    0.013193   -0.012828
     17          6           0       -2.944335   -1.227665    0.518264
     18          6           0       -3.099513    0.458983   -1.235834
     19          6           0       -3.807859   -2.045183   -0.206150
     20          6           0       -4.308741   -1.621025   -1.437072
     21          6           0       -3.956493   -0.373242   -1.951499
     22          1           0        2.242084   -2.811274    0.864226
     23          1           0        4.638089   -3.146113    0.265959
     24          1           0        5.931231   -1.286234   -0.743108
     25          1           0        4.827381    0.912919   -1.151517
     26          1           0        0.420650    2.720226   -0.363625
     27          1           0       -2.540444   -1.536330    1.472605
     28          1           0       -2.837155    1.443150   -1.602973
     29          1           0       -4.091124   -3.011953    0.193134
     30          1           0       -4.980031   -2.263467   -1.995702
     31          1           0       -4.357733   -0.041756   -2.902011
 ---------------------------------------------------------------------

 SCF Done:  E(UB3LYP) =  -1315.01373165     A.U. after   16 cycles

 The electronic state is 1-A.
 Alpha  occ. eigenvalues --  -89.07606 -19.15139 -19.15107 -19.14192 -19.14047
 Alpha  occ. eigenvalues --  -10.30612 -10.30038 -10.25318 -10.23786 -10.22841
 Alpha  occ. eigenvalues --  -10.21988 -10.21828 -10.20722 -10.20651 -10.20646
 Alpha  occ. eigenvalues --  -10.20554 -10.20551 -10.20497 -10.19966 -10.19748
 Alpha  occ. eigenvalues --  -10.19703  -8.13983  -6.10250  -6.10173  -6.10083
 Alpha  occ. eigenvalues --   -1.13723  -1.08707  -1.08342  -1.03396  -0.90229
 Alpha  occ. eigenvalues --   -0.89025  -0.86532  -0.80010  -0.78824  -0.78810
 Alpha  occ. eigenvalues --   -0.77590  -0.73081  -0.69637  -0.66470  -0.65158
 Alpha  occ. eigenvalues --   -0.63495  -0.61359  -0.59843  -0.56656  -0.55743
 Alpha  occ. eigenvalues --   -0.54218  -0.53067  -0.50629  -0.50064  -0.49327
 Alpha  occ. eigenvalues --   -0.47974  -0.47412  -0.47086  -0.46702  -0.46513
 Alpha  occ. eigenvalues --   -0.46112  -0.45952  -0.45054  -0.44548  -0.43544
 Alpha  occ. eigenvalues --   -0.40012  -0.39370  -0.39334  -0.38966  -0.37903
 Alpha  occ. eigenvalues --   -0.37283  -0.36579  -0.35405  -0.34045  -0.32913
 Alpha  occ. eigenvalues --   -0.32828  -0.30536  -0.29448  -0.28979  -0.28690
 Alpha  occ. eigenvalues --   -0.28406  -0.27988
 Alpha virt. eigenvalues --   -0.14469  -0.07065  -0.06257  -0.04457  -0.03598
 Alpha virt. eigenvalues --   -0.00911  -0.00170   0.00515   0.00773   0.01306
 Alpha virt. eigenvalues --    0.01546   0.01851   0.02593   0.03137   0.03227

  Beta  occ. eigenvalues --  -89.07606 -19.15139 -19.15107 -19.14192 -19.14047
  Beta  occ. eigenvalues --  -10.30612 -10.30038 -10.25318 -10.23786 -10.22841
  Beta  occ. eigenvalues --  -10.21988 -10.21828 -10.20722 -10.20651 -10.20646
  Beta  occ. eigenvalues --  -10.20554 -10.20551 -10.20497 -10.19966 -10.19748
  Beta  occ. eigenvalues --  -10.19703  -8.13983  -6.10250  -6.10173  -6.10083
  Beta  occ. eigenvalues --   -1.13723  -1.08707  -1.08342  -1.03396  -0.90229
  Beta  occ. eigenvalues --   -0.89025  -0.86532  -0.80010  -0.78824  -0.78810
  Beta  occ. eigenvalues --   -0.77590  -0.73081  -0.69637  -0.66470  -0.65158
  Beta  occ. eigenvalues --   -0.63495  -0.61359  -0.59843  -0.56656  -0.55743
  Beta  occ. eigenvalues --   -0.54218  -0.53067  -0.50629  -0.50064  -0.49327
  Beta  occ. eigenvalues --   -0.47974  -0.47412  -0.47086  -0.46702  -0.46513
  Beta  occ. eigenvalues --   -0.46112  -0.45952  -0.45054  -0.44548  -0.43544
  Beta  occ. eigenvalues --   -0.40012  -0.39370  -0.39334  -0.38966  -0.37903
  Beta  occ. eigenvalues --   -0.37283  -0.36579  -0.35405  -0.34045  -0.32913
  Beta  occ. eigenvalues --   -0.32828  -0.30536  -0.29448  -0.28979  -0.28690
  Beta  occ. eigenvalues --   -0.28406  -0.27988
  Beta virt. eigenvalues --   -0.14469  -0.07065  -0.06257  -0.04457  -0.03598
  Beta virt. eigenvalues --   -0.00911  -0.00170   0.00515   0.00773   0.01306
  Beta virt. eigenvalues --    0.01546   0.01851   0.02593   0.03137   0.03227

 Mulliken charges and spin densities:
               1          2
     1  C    0.248289   0.000000
     2  C   -0.404982   0.000000
     3  C   -0.308535  -0.000000
     4  C    0.043800   0.000000
     5  C    0.473456   0.000000
     6  C    0.115295  -0.000000
     7  C   -0.385033   0.000000
     8  C   -0.136562   0.000000
     9  C   -0.121048  -0.000000
    10  C   -0.588998  -0.000000
    11  O   -0.194983  -0.000000
    12  O   -0.252311  -0.000000
    13  S    0.570943   0.000000
    14  O   -0.150468  -0.000000
    15  O   -0.175749  -0.000000
    16  C    0.543953  -0.000000
    17  C   -0.286703   0.000000
    18  C    0.026898   0.000000
    19  C   -0.426777   0.000000
    20  C   -0.309230   0.000000
    21  C   -0.543670  -0.000000
    22  H    0.188322  -0.000000
    23  H    0.214614   0.000000
    24  H    0.217282   0.000000
    25  H    0.182892  -0.000000
    26  H    0.293129  -0.000000
    27  H    0.276547  -0.000000
    28  H    0.252040   0.000000
    29  H    0.222415  -0.000000
    30  H    0.199565   0.000000
    31  H    0.215610  -0.000000
 Sum of Mulliken charges =  -0.00000  -0.00000

 Dipole moment (field-independent basis, Debye):
    X=              2.6078    Y=             -6.1460    Z=             -4.6903  Tot=              8.1592
 Quadrupole moment (field-independent basis, Debye-Ang):
   XX=            -99.1374   YY=           -132.5656   ZZ=           -134.1606
   XY=             -2.0303   XZ=             14.9338   YZ=             -0.9294

 Normal termination of Gaussian 16 at Sun Jan 21 08:08:45 2024.
