 Q-Chem 5.4, Q-Chem, Inc., Pleasanton, CA (2021)
 Q-Chem 5.4.0 for Intel X86 EM64T Linux

User input:
--------------------------------------------------------------
$molecule
0 1
C                  3.9463310000      0.6252640000     -0.1079360000
O                  2.6685820000      1.2622590000     -0.1571790000
C                  1.5738630000      0.5016200000     -0.0961210000
C                  1.5380340000     -0.8475450000      0.0110160000
C                  0.2806700000     -1.5977610000      0.0714150000
O                  0.2811730000     -2.8174570000      0.1681890000
C                 -0.9980290000     -0.8229270000      0.0106600000
C                 -2.2185840000     -1.4968380000      0.0648060000
C                 -3.4117810000     -0.7825780000      0.0087030000
C                 -3.3927580000      0.6097860000     -0.1018650000
C                 -2.1802180000      1.2886340000     -0.1563810000
C                 -0.9783780000      0.5770140000     -0.1005070000
C                  0.3086530000      1.3236920000     -0.1604810000
O                  0.3612880000      2.5323740000     -0.2558100000
H                  4.0732810000      0.0817580000      0.8328930000
H                  4.6762160000      1.4288340000     -0.1726940000
H                  4.0712620000     -0.0602050000     -0.9512540000
H                  2.4349920000     -1.4510230000      0.0583710000
H                 -2.2097100000     -2.5764880000      0.1504900000
H                 -4.3584560000     -1.3092050000      0.0510030000
H                 -4.3238550000      1.1631390000     -0.1453500000
H                 -2.1425700000      2.3676520000     -0.2420640000
$end
$rem
MAX_SCF_CYCLES=200
BASIS  =  6-311++G(d,p)
GUI  =  2
JOB_TYPE  =  SP
METHOD  =  B3LYP
SOLVENT_METHOD = COSMO
$end
$solvent
dielectric 37.219
opticaldielectric 1.43
$end

--------------------------------------------------------------

             Standard Nuclear Orientation (Angstroms)
    I     Atom           X                Y                Z
 ----------------------------------------------------------------
    1      C       4.0332476244    -0.1299276912    -0.0004928858
    2      O       2.8894547416     0.7259739518    -0.0000145249
    3      C       1.6764998988     0.1696916447     0.0000122231
    4      C       1.4006012528    -1.1557849415     0.0001014224
    5      C       0.0294496018    -1.6728724157     0.0001929549
    6      O      -0.1876023337    -2.8769954365     0.0002126980
    7      C      -1.0906845129    -0.6806881658     0.0000948453
    8      C      -2.4120008818    -1.1289797887     0.0000102314
    9      C      -3.4587972034    -0.2117822105    -0.0001866462
   10      C      -3.1917316762     1.1593270700    -0.0002905890
   11      C      -1.8774223434     1.6139156975    -0.0001894585
   12      C      -0.8216495785     0.6977889871    -0.0000066494
   13      C       0.5780631955     1.2060978069     0.0000644067
   14      O       0.8454335693     2.3898557981     0.0006476617
   15      H       4.0480570940    -0.7587841093     0.8944901122
   16      H       4.8948433065     0.5336256485    -0.0010430847
   17      H       4.0471037191    -0.7590499046    -0.8952967767
   18      H       2.1756375048    -1.9109542284     0.0001514353
   19      H      -2.5958366914    -2.1963452422     0.0000545832
   20      H      -4.4843254335    -0.5633653252    -0.0002605687
   21      H      -4.0093017589     1.8710933517    -0.0004680394
   22      H      -1.6479178212     2.6723893452    -0.0002534688
 ----------------------------------------------------------------

    9    -649.8192778444      6.82e-06  Convergence criterion met
 Total energy in the final basis set =     -649.8192778444
    5    -649.8376443083      3.31e-06  Convergence criterion met
 Total energy in the final basis set =     -649.8376443083

                    Orbital Energies (a.u.)
 --------------------------------------------------------------

 Alpha MOs
 -- Occupied --
-19.1897 -19.1444 -19.1298 -10.2937 -10.2825 -10.2761 -10.2296 -10.2095
-10.2079 -10.1982 -10.1971 -10.1965 -10.1961 -10.1958  -1.1119  -1.0746
 -1.0634  -0.8908  -0.8360  -0.7788  -0.7771  -0.7442  -0.6862  -0.6515
 -0.6271  -0.5940  -0.5574  -0.5486  -0.5257  -0.4978  -0.4947  -0.4743
 -0.4691  -0.4538  -0.4506  -0.4498  -0.4363  -0.4330  -0.4228  -0.3851
 -0.3843  -0.3717  -0.3637  -0.3634  -0.2944  -0.2895  -0.2812  -0.2790
 -0.2668

          Ground-State Mulliken Net Atomic Charges

     Atom                 Charge (a.u.)
  ----------------------------------------
      1 C                    -0.339636
      2 O                    -0.170357
      3 C                    -0.168160
      4 C                     0.744402
      5 C                    -0.588784
      6 O                    -0.341215
      7 C                     0.577385
      8 C                     0.152928
      9 C                    -0.409539
     10 C                    -0.498122
     11 C                     0.152787
     12 C                     0.456302
     13 C                    -0.984494
     14 O                    -0.295852
     15 H                     0.195244
     16 H                     0.219024
     17 H                     0.195216
     18 H                     0.248387
     19 H                     0.195688
     20 H                     0.230634
     21 H                     0.230384
     22 H                     0.197781
  ----------------------------------------
  Sum of atomic charges =     0.000000

                    Cartesian Multipole Moments
 -----------------------------------------------------------------
    Charge (ESU x 10^10)
                 0.0000
    Dipole Moment (Debye)
         X      -0.0281      Y      -0.0260      Z      -0.0034
       Tot       0.0384
    Quadrupole Moments (Debye-Ang)
        XX     -49.5863     XY     -11.1416     YY     -99.9664
        XZ      -0.0042     YZ      -0.0041     ZZ     -81.6053

 Total job time:  29.73s(wall), 218.21s(cpu)
        *  Thank you very much for using Q-Chem.  Have a nice day.  *
