 Q-Chem 5.4, Q-Chem, Inc., Pleasanton, CA (2021)
 Q-Chem 5.4.0 for Intel X86 EM64T Linux

User input:
--------------------------------------------------------------
$molecule
-2 1
C                 -4.1724830000      3.5187030000      1.5292550000
C                 -4.6892190000      3.6661470000      0.2598200000
C                 -4.0879320000      3.0109170000     -0.8425750000
C                 -2.9744450000      2.2103490000     -0.6156410000
C                 -2.4179170000      2.0225220000      0.6571600000
C                 -3.0398780000      2.6974390000      1.7777240000
C                 -2.5261960000      2.5374460000      3.1037640000
C                 -1.3802720000      1.6962310000      3.2206750000
C                 -0.7591300000      1.0441520000      2.1627580000
C                 -1.2324560000      1.1637680000      0.8200450000
O                 -2.9923190000      3.0868780000      4.1934610000
O                 -0.6813640000      0.5728130000     -0.1707580000
O                 -0.9238960000      1.5860870000      4.5165120000
O                 -5.8498180000      4.4325510000      0.1302060000
C                 -6.0667530000      5.0836860000     -1.1070360000
H                 -4.6382750000      4.0242670000      2.3675760000
H                 -4.4828450000      3.1262480000     -1.8452180000
H                 -2.4920750000      1.6929530000     -1.4396000000
H                  0.1131670000      0.4221670000      2.3460330000
H                 -1.5846760000      2.1715160000      4.9674300000
H                 -6.9148620000      5.7591990000     -0.9694570000
H                 -6.3215320000      4.3819250000     -1.9122990000
H                 -5.1900740000      5.6726250000     -1.4177340000
$end

$rem
BASIS  =  6-311++G(d,p)
GUI  =  2
JOB_TYPE  =  SP
METHOD  =  B3LYP
SCF_CONVERGENCE  = 8
SOLVENT_METHOD = sm12
$end

$smx
solvent dimethylformamide
charges CM5
$end

--------------------------------------------------------------

             Standard Nuclear Orientation (Angstroms)
    I     Atom           X                Y                Z
 ----------------------------------------------------------------
    1      C      -4.1724830000     3.5187030000     1.5292550000
    2      C      -4.6892190000     3.6661470000     0.2598200000
    3      C      -4.0879320000     3.0109170000    -0.8425750000
    4      C      -2.9744450000     2.2103490000    -0.6156410000
    5      C      -2.4179170000     2.0225220000     0.6571600000
    6      C      -3.0398780000     2.6974390000     1.7777240000
    7      C      -2.5261960000     2.5374460000     3.1037640000
    8      C      -1.3802720000     1.6962310000     3.2206750000
    9      C      -0.7591300000     1.0441520000     2.1627580000
   10      C      -1.2324560000     1.1637680000     0.8200450000
   11      O      -2.9923190000     3.0868780000     4.1934610000
   12      O      -0.6813640000     0.5728130000    -0.1707580000
   13      O      -0.9238960000     1.5860870000     4.5165120000
   14      O      -5.8498180000     4.4325510000     0.1302060000
   15      C      -6.0667530000     5.0836860000    -1.1070360000
   16      H      -4.6382750000     4.0242670000     2.3675760000
   17      H      -4.4828450000     3.1262480000    -1.8452180000
   18      H      -2.4920750000     1.6929530000    -1.4396000000
   19      H       0.1131670000     0.4221670000     2.3460330000
   20      H      -1.5846760000     2.1715160000     4.9674300000
   21      H      -6.9148620000     5.7591990000    -0.9694570000
   22      H      -6.3215320000     4.3819250000    -1.9122990000
   23      H      -5.1900740000     5.6726250000    -1.4177340000
 ----------------------------------------------------------------

   18    -725.0382948405      3.12e-09  Convergence criterion met
 Total energy in the final basis set =     -725.3305393773

                    Orbital Energies (a.u.)
 --------------------------------------------------------------

 Alpha MOs
 -- Occupied --
-19.1454 -19.1197 -19.0285 -19.0271 -10.2220 -10.2204 -10.1903 -10.1899
-10.1692 -10.1683 -10.1657 -10.1547 -10.1527 -10.1478 -10.1319  -1.0546
 -1.0311  -0.9468  -0.9296  -0.8394  -0.7750  -0.7473  -0.7196  -0.6880
 -0.6456  -0.6070  -0.5836  -0.5522  -0.5236  -0.5064  -0.4692  -0.4625
 -0.4595  -0.4519  -0.4258  -0.4187  -0.4071  -0.3966  -0.3818  -0.3719
 -0.3662  -0.3617  -0.3443  -0.3387  -0.3254  -0.3169  -0.3084  -0.2893
 -0.2392  -0.2217  -0.2140  -0.2075  -0.2027  -0.1155

          Ground-State Mulliken Net Atomic Charges

     Atom                 Charge (a.u.)
  ----------------------------------------
      1 C                    -1.337647
      2 C                     3.233277
      3 C                     3.987752
      4 C                    -1.143350
      5 C                    -2.526246
      6 C                    -1.156333
      7 C                    -1.981032
      8 C                    -0.033318
      9 C                    -0.650375
     10 C                    -1.574446
     11 O                    -0.412535
     12 O                    -0.361593
     13 O                    -0.125524
     14 O                     0.018665
     15 C                     0.465057
     16 H                     0.100438
     17 H                     0.360131
     18 H                     0.118336
     19 H                    -0.030892
     20 H                     0.309849
     21 H                     0.366659
     22 H                     0.206546
     23 H                     0.166582
  ----------------------------------------
  Sum of atomic charges =    -2.000000

                    Cartesian Multipole Moments
 -----------------------------------------------------------------
    Charge (ESU x 10^10)
                -9.6064
    Dipole Moment (Debye)
         X      19.2609      Y     -17.9571      Z     -19.1763
       Tot      32.5756
    Quadrupole Moments (Debye-Ang)
        XX    -159.6691     XY      50.9449     YY    -144.2628
        XZ      49.1682     YZ     -51.9846     ZZ    -170.3965

 Total job time:  406.44s(wall), 3175.79s(cpu)
        *  Thank you very much for using Q-Chem.  Have a nice day.  *
