 Gaussian 16, Revision A.03,
 Gaussian 16:  ES64L-G16RevA.03 25-Dec-2016

 --------------------------------------
 #P UB3LYP/6-311++G(d,p) nosym opt freq
 --------------------------------------

 -------
 Radical
 -------
 Symbolic Z-matrix:
 Charge = -1 Multiplicity = 2

 SCF Done:  E(UB3LYP) =  -571.780429970     A.U. after   19 cycles
 SCF Done:  E(UB3LYP) =  -571.794052475     A.U. after   16 cycles
 SCF Done:  E(UB3LYP) =  -571.794440147     A.U. after   14 cycles
 SCF Done:  E(UB3LYP) =  -571.794467232     A.U. after   13 cycles
 Optimization completed.
    -- Stationary point found.
 Normal termination of Gaussian 16 at Sat Jan  6 01:52:33 2024.

 ----------------------------------------------------------------------
 #P Geom=AllCheck Guess=TCheck SCRF=Check GenChk UB3LYP/6-311++G(d,p) F
 req
 ----------------------------------------------------------------------

 Structure from the checkpoint file:  "349-rad.chk"
 -------
 Radical
 -------
 Charge = -1 Multiplicity = 2

                          Input orientation:
 ---------------------------------------------------------------------
 Center     Atomic      Atomic             Coordinates (Angstroms)
 Number     Number       Type             X           Y           Z
 ---------------------------------------------------------------------
      1          6           0       -3.587194    0.201212    0.847384
      2          6           0       -3.616099   -0.175978   -0.506337
      3          6           0       -2.428191   -0.366606   -1.200085
      4          6           0       -1.168550   -0.190036   -0.576129
      5          7           0       -0.029562   -0.386050   -1.288696
      6          6           0        1.139170   -0.197931   -0.622615
      7          6           0        2.370459   -0.383404   -1.298142
      8          6           0        3.587256   -0.201295   -0.653906
      9          6           0        3.615983    0.175955    0.700025
     10          6           0        2.428340    0.366589    1.393785
     11          6           0        1.168502    0.190057    0.769971
     12          7           0        0.029674    0.386134    1.482761
     13          6           0       -1.139301    0.197984    0.816573
     14          6           0       -2.370424    0.383412    1.491943
     15          1           0       -4.516484    0.350299    1.389778
     16          1           0       -4.567368   -0.318639   -1.010828
     17          1           0       -2.427092   -0.657996   -2.245837
     18          1           0        2.323596   -0.674595   -2.342828
     19          1           0        4.516671   -0.350275   -1.195922
     20          1           0        4.567447    0.318575    1.204370
     21          1           0        2.427170    0.657990    2.439574
     22          1           0       -2.324005    0.674598    2.536613
 ---------------------------------------------------------------------

 SCF Done:  E(UB3LYP) =  -571.794467232     A.U. after    1 cycles

 Alpha  occ. eigenvalues --  -14.14734 -14.14731 -10.06100 -10.06098 -10.06061
 Alpha  occ. eigenvalues --  -10.06060 -10.03860 -10.03859 -10.03809 -10.03809
 Alpha  occ. eigenvalues --  -10.02939 -10.02938 -10.02937 -10.02936  -0.81272
 Alpha  occ. eigenvalues --   -0.74461  -0.71456  -0.68751  -0.61492  -0.60815
 Alpha  occ. eigenvalues --   -0.58782  -0.53836  -0.49006  -0.46065  -0.45277
 Alpha  occ. eigenvalues --   -0.41911  -0.39999  -0.35162  -0.34305  -0.33391
 Alpha  occ. eigenvalues --   -0.31922  -0.29282  -0.28580  -0.28482  -0.27980
 Alpha  occ. eigenvalues --   -0.25088  -0.23464  -0.23047  -0.21531  -0.21254
 Alpha  occ. eigenvalues --   -0.19762  -0.18524  -0.14765  -0.12353  -0.11345
 Alpha  occ. eigenvalues --   -0.09372  -0.08329   0.00491
 Alpha virt. eigenvalues --    0.08822   0.08868   0.10258   0.10678   0.11568
 Alpha virt. eigenvalues --    0.11576   0.12341   0.12927   0.12949   0.14049
 Alpha virt. eigenvalues --    0.14984   0.16050   0.16830   0.17060   0.17220

  Beta  occ. eigenvalues --  -14.14156 -14.14153 -10.06138 -10.06136 -10.06100
  Beta  occ. eigenvalues --  -10.06098 -10.03795 -10.03795 -10.03746 -10.03745
  Beta  occ. eigenvalues --  -10.02800 -10.02799 -10.02797 -10.02796  -0.80622
  Beta  occ. eigenvalues --   -0.73472  -0.71185  -0.68371  -0.61190  -0.60604
  Beta  occ. eigenvalues --   -0.58409  -0.53256  -0.48907  -0.45754  -0.45020
  Beta  occ. eigenvalues --   -0.41628  -0.39835  -0.34985  -0.34073  -0.33275
  Beta  occ. eigenvalues --   -0.31815  -0.29151  -0.28459  -0.27816  -0.27396
  Beta  occ. eigenvalues --   -0.24990  -0.23287  -0.22313  -0.21441  -0.21070
  Beta  occ. eigenvalues --   -0.17722  -0.17334  -0.14062  -0.11475  -0.10612
  Beta  occ. eigenvalues --   -0.08813  -0.06456
  Beta virt. eigenvalues --    0.06242   0.08807   0.08853   0.10248   0.10662
  Beta virt. eigenvalues --    0.11584   0.11679   0.12919   0.12951   0.13397
  Beta virt. eigenvalues --    0.14983   0.15271   0.16081   0.17261   0.17270

 Mulliken charges and spin densities:
               1          2
     1  C   -0.288155   0.054994
     2  C   -0.286881   0.054195
     3  C   -0.161814   0.071832
     4  C   -0.021818   0.001415
     5  N   -0.045498   0.270387
     6  C   -0.019413   0.002251
     7  C   -0.162364   0.071037
     8  C   -0.288277   0.055025
     9  C   -0.286695   0.054306
    10  C   -0.161863   0.071604
    11  C   -0.021959   0.001514
    12  N   -0.045642   0.270467
    13  C   -0.019246   0.002171
    14  C   -0.162175   0.071044
    15  H    0.111303  -0.003962
    16  H    0.111295  -0.003892
    17  H    0.131626  -0.009153
    18  H    0.131673  -0.009114
    19  H    0.111306  -0.003966
    20  H    0.111303  -0.003898
    21  H    0.131624  -0.009143
    22  H    0.131669  -0.009113
 Sum of Mulliken charges =  -1.00000   1.00000

 Dipole moment (field-independent basis, Debye):
    X=             -0.0005    Y=             -0.0002    Z=             -0.4660  Tot=              0.4660
 Quadrupole moment (field-independent basis, Debye-Ang):
   XX=           -106.8824   YY=            -91.6361   ZZ=            -95.9399
   XY=              0.0278   XZ=              0.2223   YZ=             -1.2851

  Exact polarizability: 333.214  -0.393  98.567  -3.299  21.154 168.612
 Approx polarizability: 526.927  -0.437 155.420  -4.587  43.629 299.927

                      1                      2                      3
                      A                      A                      A
 Frequencies --     90.3013               103.0949               247.1116
 Red. masses --      5.5817                 3.8149                 4.6685
 Frc consts  --      0.0268                 0.0239                 0.1680
 IR Inten    --      2.9382                 0.0004                 6.9558

                      4                      5                      6
                      A                      A                      A
 Frequencies --    253.4205               254.9993               347.0800
 Red. masses --      4.8578                 6.0891                 5.2460
 Frc consts  --      0.1838                 0.2333                 0.3723
 IR Inten    --      0.0000                 0.0000                 0.7952

                      7                      8                      9
                      A                      A                      A
 Frequencies --    415.1835               447.3403               465.9655
 Red. masses --      6.6598                 4.9907                 3.0591
 Frc consts  --      0.6764                 0.5884                 0.3913
 IR Inten    --      0.0000                 0.0000                 0.0000

                     10                     11                     12
                      A                      A                      A
 Frequencies --    475.0387               517.8104               542.0571
 Red. masses --      3.5349                 4.5716                 8.5079
 Frc consts  --      0.4700                 0.7222                 1.4729
 IR Inten    --      1.2822                 0.0000                 0.0000

                     13                     14                     15
                      A                      A                      A
 Frequencies --    579.0695               611.8134               614.8349
 Red. masses --      4.7067                 8.9921                 7.0955
 Frc consts  --      0.9299                 1.9831                 1.5803
 IR Inten    --      0.0000                 0.0000                 3.7034

                     16                     17                     18
                      A                      A                      A
 Frequencies --    669.8049               700.7606               721.7962
 Red. masses --      6.1216                 4.9846                 1.2673
 Frc consts  --      1.6181                 1.4422                 0.3890
 IR Inten    --      0.0948                 0.0001               181.1943

                     19                     20                     21
                      A                      A                      A
 Frequencies --    725.5446               733.2653               760.8535
 Red. masses --      1.2733                 6.5881                 2.4083
 Frc consts  --      0.3949                 2.0870                 0.8214
 IR Inten    --      0.0019                 0.0000                 0.0011

                     22                     23                     24
                      A                      A                      A
 Frequencies --    804.1067               821.6117               835.6867
 Red. masses --      1.4218                 2.2201                 5.7147
 Frc consts  --      0.5416                 0.8830                 2.3514
 IR Inten    --      0.0002                 0.0002                31.9312

                     25                     26                     27
                      A                      A                      A
 Frequencies --    886.3888               887.4366               896.1745
 Red. masses --      1.3472                 1.3477                 6.0101
 Frc consts  --      0.6236                 0.6253                 2.8439
 IR Inten    --      0.1103                16.0210                 6.1751

                     28                     29                     30
                      A                      A                      A
 Frequencies --    897.3006               899.8316               922.1530
 Red. masses --      1.1604                 1.1770                 6.1320
 Frc consts  --      0.5505                 0.5615                 3.0722
 IR Inten    --      0.0006                 0.0037                 0.0001

                     31                     32                     33
                      A                      A                      A
 Frequencies --   1034.7938              1036.5444              1110.3488
 Red. masses --      1.9725                 2.1196                 1.6863
 Frc consts  --      1.2444                 1.3418                 1.2249
 IR Inten    --     23.9530                 0.0166                 0.0003

                     34                     35                     36
                      A                      A                      A
 Frequencies --   1131.0016              1151.3146              1161.2404
 Red. masses --      1.3746                 1.1388                 1.0695
 Frc consts  --      1.0360                 0.8893                 0.8497
 IR Inten    --     21.5522                 1.7325                 0.0004

                     37                     38                     39
                      A                      A                      A
 Frequencies --   1220.3367              1257.4056              1269.8927
 Red. masses --      1.8197                 3.6725                 6.0861
 Frc consts  --      1.5966                 3.4211                 5.7826
 IR Inten    --      0.0001                 0.0067                 0.6037

                     40                     41                     42
                      A                      A                      A
 Frequencies --   1290.5003              1294.7410              1331.6487
 Red. masses --      1.6920                 5.6514                 9.5708
 Frc consts  --      1.6602                 5.5818                 9.9995
 IR Inten    --      0.6298               186.4097               500.6037

                     43                     44                     45
                      A                      A                      A
 Frequencies --   1367.6699              1375.0476              1420.7886
 Red. masses --      7.0314                 4.1579                 2.3043
 Frc consts  --      7.7491                 4.6319                 2.7406
 IR Inten    --      0.0041                 0.0114                 0.0010

                     46                     47                     48
                      A                      A                      A
 Frequencies --   1437.6184              1474.5659              1501.7731
 Red. masses --      2.6180                 2.6287                 3.0965
 Frc consts  --      3.1879                 3.3676                 4.1146
 IR Inten    --      0.1573                 2.5316                 0.0021

                     49                     50                     51
                      A                      A                      A
 Frequencies --   1541.4207              1565.2270              1573.2522
 Red. masses --      4.4998                 4.4638                 6.6244
 Frc consts  --      6.2992                 6.4434                 9.6604
 IR Inten    --     85.9519                 0.0003                 0.0017

                     52                     53                     54
                      A                      A                      A
 Frequencies --   1610.2743              3127.2563              3127.4350
 Red. masses --      5.8452                 1.0827                 1.0829
 Frc consts  --      8.9300                 6.2384                 6.2403
 IR Inten    --     12.7070                 0.1613                 7.0106

                     55                     56                     57
                      A                      A                      A
 Frequencies --   3143.2573              3143.4797              3157.8049
 Red. masses --      1.0877                 1.0878                 1.0917
 Frc consts  --      6.3318                 6.3333                 6.4137
 IR Inten    --     69.0302                 8.2027                12.0049

                     58                     59                     60
                      A                      A                      A
 Frequencies --   3158.3808              3164.8939              3165.8884
 Red. masses --      1.0918                 1.0957                 1.0956
 Frc consts  --      6.4168                 6.4661                 6.4697
 IR Inten    --    116.0908                97.1823                 0.8235

 - Thermochemistry -
 -------------------
 Temperature   298.150 Kelvin.  Pressure   1.00000 Atm.
 Atom     1 has atomic number  6 and mass  12.00000

 Molecular mass:   180.06875 amu.
 Principal axes and moments of inertia in atomic units:
                           1         2         3
     Eigenvalues --   827.211693818.385534645.59721
           X            0.99978   0.02063  -0.00211
           Y           -0.00350   0.26834   0.96332
           Z           -0.02044   0.96310  -0.26835
 This molecule is an asymmetric top.
 Rotational symmetry number  1.
 Warning -- assumption of classical behavior for rotation
           may cause significant error
 Rotational temperatures (Kelvin)      0.10471     0.02268     0.01864
 Rotational constants (GHZ):           2.18172     0.47265     0.38848
 Zero-point vibrational energy     433488.6 (Joules/Mol)
                                  103.60627 (Kcal/Mol)
 Warning -- explicit consideration of  15 degrees of freedom as
           vibrations may cause significant error
 Vibrational temperatures:    129.92   148.33   355.54   364.62   366.89
          (Kelvin)            499.37   597.36   643.62   670.42   683.47
                              745.01   779.90   833.15   880.26   884.61
                              963.70  1008.24  1038.50  1043.90  1055.01
                             1094.70  1156.93  1182.12  1202.37  1275.32
                             1276.82  1289.40  1291.02  1294.66  1326.77
                             1488.84  1491.36  1597.54  1627.26  1656.48
                             1670.77  1755.79  1809.13  1827.09  1856.74
                             1862.84  1915.95  1967.77  1978.39  2044.20
                             2068.41  2121.57  2160.72  2217.76  2252.01
                             2263.56  2316.83  4499.42  4499.68  4522.45
                             4522.77  4543.38  4544.21  4553.58  4555.01

 Zero-point correction=                           0.165107 (Hartree/Particle)
 Thermal correction to Energy=                    0.174635
 Thermal correction to Enthalpy=                  0.175580
 Thermal correction to Gibbs Free Energy=         0.129576
 Sum of electronic and zero-point Energies=           -571.629360
 Sum of electronic and thermal Energies=              -571.619832
 Sum of electronic and thermal Enthalpies=            -571.618888
 Sum of electronic and thermal Free Energies=         -571.664891

                     E (Thermal)             CV                S
                      KCal/Mol        Cal/Mol-Kelvin    Cal/Mol-Kelvin
 Total                  109.585             40.703             96.822
 Electronic               0.000              0.000              1.377
 Translational            0.889              2.981             41.471
 Rotational               0.889              2.981             31.062
 Vibrational            107.808             34.741             22.911
 Vibration     1          0.602              1.956              3.654
 Vibration     2          0.605              1.947              3.395
 Vibration     3          0.661              1.768              1.751
 Vibration     4          0.665              1.757              1.707
 Vibration     5          0.665              1.754              1.696
 Vibration     6          0.725              1.581              1.179
 Vibration     7          0.779              1.437              0.908
 Vibration     8          0.806              1.367              0.804
 Vibration     9          0.823              1.326              0.749
 Vibration    10          0.832              1.305              0.724
 Vibration    11          0.873              1.211              0.615
 Vibration    12          0.897              1.157              0.561
 Vibration    13          0.936              1.077              0.487
 Vibration    14          0.971              1.007              0.430
 Vibration    15          0.974              1.000              0.425

                           ! Non-Optimized Parameters !
 Normal termination of Gaussian 16 at Sat Jan  6 02:36:05 2024.
