 Gaussian 16, Revision A.03,
 Gaussian 16:  ES64L-G16RevA.03 25-Dec-2016

 --------------------------------------
 #P UB3LYP/6-311++G(d,p) nosym opt freq
 --------------------------------------

 --------
 Oxidized
 --------
 Symbolic Z-matrix:
 Charge =  0 Multiplicity = 1

 SCF Done:  E(UB3LYP) =  -573.560970135     A.U. after   15 cycles
 SCF Done:  E(UB3LYP) =  -573.566513611     A.U. after   13 cycles
 SCF Done:  E(UB3LYP) =  -573.567524366     A.U. after   13 cycles
 SCF Done:  E(UB3LYP) =  -573.567719036     A.U. after   12 cycles
 SCF Done:  E(UB3LYP) =  -573.567721649     A.U. after   12 cycles
 SCF Done:  E(UB3LYP) =  -573.567710291     A.U. after   12 cycles
 SCF Done:  E(UB3LYP) =  -573.567726702     A.U. after   12 cycles
 Optimization completed.
    -- Stationary point found.
 Normal termination of Gaussian 16 at Sun Dec 17 21:04:49 2023.

 ----------------------------------------------------------------------
 #P Geom=AllCheck Guess=TCheck SCRF=Check GenChk UB3LYP/6-311++G(d,p) F
 req
 ----------------------------------------------------------------------

 Structure from the checkpoint file:  "058.chk"
 --------
 Oxidized
 --------
 Charge =  0 Multiplicity = 1

                          Input orientation:
 ---------------------------------------------------------------------
 Center     Atomic      Atomic             Coordinates (Angstroms)
 Number     Number       Type             X           Y           Z
 ---------------------------------------------------------------------
      1          6           0       -0.571389    1.132013   -0.288484
      2          6           0       -1.505512    0.108319   -0.826687
      3          6           0       -1.312254   -1.219000   -0.749466
      4          6           0       -0.076604   -1.702648   -0.078487
      5          6           0        0.871184   -0.694605    0.465747
      6          6           0        0.686413    0.637840    0.393035
      7          8           0       -0.849600    2.306795   -0.415597
      8          8           0        0.175243   -2.891676    0.034008
      9          6           0        1.691172    1.618013    0.967123
     10          6           0        2.951532    1.104739    1.654468
     11          8           0        1.513263    2.811802    0.891164
     12          1           0       -2.385537    0.529081   -1.302715
     13          1           0        3.072325    0.025551    1.701218
     14          1           0        2.959729    1.504917    2.670981
     15          1           0        3.810325    1.533553    1.132835
     16          6           0       -2.255521   -2.247486   -1.292502
     17          1           0        1.739786   -1.138285    0.934380
     18          1           0       -3.121235   -1.777397   -1.759881
     19          1           0       -2.596739   -2.914219   -0.495700
     20          1           0       -1.751280   -2.880587   -2.027879
 ---------------------------------------------------------------------

 SCF Done:  E(UB3LYP) =  -573.567726702     A.U. after    1 cycles

 Alpha  occ. eigenvalues --  -19.15347 -19.14196 -19.13086 -10.29759 -10.29344
 Alpha  occ. eigenvalues --  -10.28933 -10.23788 -10.23523 -10.23149 -10.21738
 Alpha  occ. eigenvalues --  -10.19418 -10.19145  -1.08380  -1.07817  -1.06500
 Alpha  occ. eigenvalues --   -0.88288  -0.83345  -0.76297  -0.74090  -0.71545
 Alpha  occ. eigenvalues --   -0.64906  -0.62566  -0.56333  -0.54300  -0.51298
 Alpha  occ. eigenvalues --   -0.49331  -0.48025  -0.47724  -0.46226  -0.45721
 Alpha  occ. eigenvalues --   -0.44959  -0.43332  -0.43286  -0.42152  -0.42141
 Alpha  occ. eigenvalues --   -0.41294  -0.40587  -0.38151  -0.32482  -0.30568
 Alpha  occ. eigenvalues --   -0.30405  -0.29795  -0.25738
 Alpha virt. eigenvalues --   -0.14870  -0.07579  -0.02446  -0.01636  -0.00892
 Alpha virt. eigenvalues --    0.01019   0.01219   0.01784   0.02341   0.02472
 Alpha virt. eigenvalues --    0.03685   0.04525   0.05441   0.05611   0.06021

  Beta  occ. eigenvalues --  -19.15347 -19.14196 -19.13086 -10.29759 -10.29344
  Beta  occ. eigenvalues --  -10.28933 -10.23788 -10.23523 -10.23149 -10.21738
  Beta  occ. eigenvalues --  -10.19418 -10.19145  -1.08380  -1.07817  -1.06500
  Beta  occ. eigenvalues --   -0.88288  -0.83345  -0.76297  -0.74090  -0.71545
  Beta  occ. eigenvalues --   -0.64906  -0.62566  -0.56333  -0.54300  -0.51298
  Beta  occ. eigenvalues --   -0.49331  -0.48025  -0.47724  -0.46226  -0.45721
  Beta  occ. eigenvalues --   -0.44959  -0.43332  -0.43286  -0.42152  -0.42141
  Beta  occ. eigenvalues --   -0.41294  -0.40587  -0.38151  -0.32482  -0.30568
  Beta  occ. eigenvalues --   -0.30405  -0.29795  -0.25738
  Beta virt. eigenvalues --   -0.14870  -0.07579  -0.02446  -0.01636  -0.00892
  Beta virt. eigenvalues --    0.01019   0.01219   0.01784   0.02341   0.02472
  Beta virt. eigenvalues --    0.03685   0.04525   0.05441   0.05611   0.06021

 Mulliken charges and spin densities:
               1          2
     1  C   -0.468273   0.000000
     2  C   -0.623684  -0.000000
     3  C    1.248475   0.000000
     4  C   -0.964289   0.000000
     5  C   -1.212035  -0.000000
     6  C    2.044921  -0.000000
     7  O   -0.161362   0.000000
     8  O   -0.195903   0.000000
     9  C   -0.193053   0.000000
    10  C   -0.379703  -0.000000
    11  O   -0.180662  -0.000000
    12  H    0.193786   0.000000
    13  H    0.146958  -0.000000
    14  H    0.189092  -0.000000
    15  H    0.188925  -0.000000
    16  C   -0.308705  -0.000000
    17  H    0.140495  -0.000000
    18  H    0.158745   0.000000
    19  H    0.188127  -0.000000
    20  H    0.188145  -0.000000
 Sum of Mulliken charges =  -0.00000  -0.00000

 Dipole moment (field-independent basis, Debye):
    X=              0.0308    Y=             -3.0619    Z=             -0.0431  Tot=              3.0623
 Quadrupole moment (field-independent basis, Debye-Ang):
   XX=            -59.7875   YY=            -93.9254   ZZ=            -65.4335
   XY=              3.3155   XZ=              4.6293   YZ=              1.2836

  Exact polarizability: 106.590   6.895 160.988  23.134   5.889  77.796
 Approx polarizability: 136.767 -20.003 323.677  19.628  -6.187 111.066

 ******    2 imaginary frequencies (negative Signs) ******

                      1                      2                      3
                      A                      A                      A
 Frequencies --   -147.0004               -78.1083                33.1505
 Red. masses --      1.0194                 6.4263                 4.9680
 Frc consts  --      0.0130                 0.0231                 0.0032
 IR Inten    --      0.2129                 1.4269                 7.9134

                      4                      5                      6
                      A                      A                      A
 Frequencies --    120.7867               127.7197               163.4753
 Red. masses --      2.2203                 2.5477                 1.8370
 Frc consts  --      0.0191                 0.0245                 0.0289
 IR Inten    --      2.0533                 5.6224                 0.0518

                      7                      8                      9
                      A                      A                      A
 Frequencies --    195.2666               285.0641               308.5760
 Red. masses --      5.1444                 3.4382                 5.5281
 Frc consts  --      0.1156                 0.1646                 0.3101
 IR Inten    --      4.6612                 1.1687                 1.0955

                     10                     11                     12
                      A                      A                      A
 Frequencies --    318.5029               378.5116               381.6543
 Red. masses --      6.3255                 3.0350                 6.8454
 Frc consts  --      0.3781                 0.2562                 0.5875
 IR Inten    --      1.1373                 0.7505                13.2162

                     13                     14                     15
                      A                      A                      A
 Frequencies --    418.5680               473.9995               521.5688
 Red. masses --      6.5750                 8.8144                 4.8171
 Frc consts  --      0.6787                 1.1668                 0.7721
 IR Inten    --      5.5879                 6.1927                14.8227

                     16                     17                     18
                      A                      A                      A
 Frequencies --    570.2785               629.2696               654.0193
 Red. masses --      3.0467                 4.2486                 4.5885
 Frc consts  --      0.5838                 0.9912                 1.1564
 IR Inten    --      0.0009                 5.1143                 0.5979

                     19                     20                     21
                      A                      A                      A
 Frequencies --    695.8935               704.4605               774.9306
 Red. masses --      5.7916                 3.4051                 4.9405
 Frc consts  --      1.6525                 0.9956                 1.7480
 IR Inten    --      4.1290                 3.3359                 0.0505

                     22                     23                     24
                      A                      A                      A
 Frequencies --    812.0521               880.4427               926.6766
 Red. masses --      3.2732                 1.3449                 5.1665
 Frc consts  --      1.2717                 0.6142                 2.6140
 IR Inten    --      2.6417                 0.0726                16.5617

                     25                     26                     27
                      A                      A                      A
 Frequencies --    944.8508              1013.2540              1023.3731
 Red. masses --      1.5661                 2.0370                 1.6482
 Frc consts  --      0.8237                 1.2322                 1.0170
 IR Inten    --     38.1763                30.1055                 7.7880

                     28                     29                     30
                      A                      A                      A
 Frequencies --   1034.0968              1059.4158              1133.3236
 Red. masses --      1.7829                 1.5195                 3.0285
 Frc consts  --      1.1233                 1.0048                 2.2918
 IR Inten    --      3.9727                 1.9989                65.8410

                     31                     32                     33
                      A                      A                      A
 Frequencies --   1201.5832              1221.8630              1255.3455
 Red. masses --      3.3817                 2.9217                 1.7506
 Frc consts  --      2.8767                 2.5700                 1.6254
 IR Inten    --      5.6224               228.9239                 0.5003

                     34                     35                     36
                      A                      A                      A
 Frequencies --   1346.8903              1378.1390              1392.7846
 Red. masses --      2.1707                 2.7920                 1.2081
 Frc consts  --      2.3202                 3.1243                 1.3808
 IR Inten    --     51.3435                 7.1110                45.1532

                     37                     38                     39
                      A                      A                      A
 Frequencies --   1417.6442              1468.5346              1474.4966
 Red. masses --      1.3270                 1.0427                 1.0447
 Frc consts  --      1.5713                 1.3249                 1.3382
 IR Inten    --     10.4395                 9.5723                 6.8924

                     40                     41                     42
                      A                      A                      A
 Frequencies --   1480.4400              1486.2325              1640.6987
 Red. masses --      1.0697                 1.0976                 8.0857
 Frc consts  --      1.3813                 1.4284                12.8240
 IR Inten    --      9.4288                13.8418                 6.2772

                     43                     44                     45
                      A                      A                      A
 Frequencies --   1689.9310              1718.0547              1719.7119
 Red. masses --      8.5132                10.1539                11.7458
 Frc consts  --     14.3245                17.6587                20.4666
 IR Inten    --     53.9068                23.0435               187.4209

                     46                     47                     48
                      A                      A                      A
 Frequencies --   1772.2174              3036.6884              3052.4593
 Red. masses --     12.2941                 1.0359                 1.0383
 Frc consts  --     22.7499                 5.6284                 5.7000
 IR Inten    --    325.7542                 7.1221                 1.2375

                     49                     50                     51
                      A                      A                      A
 Frequencies --   3087.5999              3109.5932              3123.6945
 Red. masses --      1.0989                 1.0999                 1.1031
 Frc consts  --      6.1725                 6.2665                 6.3415
 IR Inten    --      5.6054                 2.8465                 9.7877

                     52                     53                     54
                      A                      A                      A
 Frequencies --   3153.1960              3172.1210              3208.9905
 Red. masses --      1.0998                 1.0920                 1.0897
 Frc consts  --      6.4426                 6.4741                 6.6115
 IR Inten    --      9.2801                 3.7586                 2.1735

 - Thermochemistry -
 -------------------
 Temperature   298.150 Kelvin.  Pressure   1.00000 Atm.
 Atom     1 has atomic number  6 and mass  12.00000

 Molecular mass:   164.04734 amu.
 Principal axes and moments of inertia in atomic units:
                           1         2         3
     Eigenvalues --  1061.188832700.982923740.02116
           X            0.56717   0.66733  -0.48269
           Y            0.75502  -0.65542  -0.01896
           Z            0.32902   0.35369   0.87559
 This molecule is an asymmetric top.
 Rotational symmetry number  1.
 Warning -- assumption of classical behavior for rotation
           may cause significant error
 Rotational temperatures (Kelvin)      0.08162     0.03207     0.02316
 Rotational constants (GHZ):           1.70068     0.66818     0.48255
    2 imaginary frequencies ignored.
 Zero-point vibrational energy     389935.3 (Joules/Mol)
                                   93.19677 (Kcal/Mol)
 Warning -- explicit consideration of  14 degrees of freedom as
           vibrations may cause significant error
 Vibrational temperatures:     47.70   173.79   183.76   235.20   280.95
          (Kelvin)            410.14   443.97   458.25   544.59   549.12
                              602.23   681.98   750.42   820.50   905.38
                              940.99  1001.24  1013.56  1114.95  1168.36
                             1266.76  1333.28  1359.43  1457.85  1472.41
                             1487.83  1524.26  1630.60  1728.81  1757.99
                             1806.16  1937.87  1982.83  2003.91  2039.67
                             2112.89  2121.47  2130.02  2138.36  2360.60
                             2431.43  2471.90  2474.28  2549.83  4369.12
                             4391.81  4442.37  4474.01  4494.30  4536.75
                             4563.97  4617.02

 Zero-point correction=                           0.148519 (Hartree/Particle)
 Thermal correction to Energy=                    0.158692
 Thermal correction to Enthalpy=                  0.159636
 Thermal correction to Gibbs Free Energy=         0.112038
 Sum of electronic and zero-point Energies=           -573.419208
 Sum of electronic and thermal Energies=              -573.409035
 Sum of electronic and thermal Enthalpies=            -573.408090
 Sum of electronic and thermal Free Energies=         -573.455689

                     E (Thermal)             CV                S
                      KCal/Mol        Cal/Mol-Kelvin    Cal/Mol-Kelvin
 Total                   99.581             38.045            100.179
 Electronic               0.000              0.000              0.000
 Translational            0.889              2.981             41.193
 Rotational               0.889              2.981             30.750
 Vibrational             97.803             32.083             28.235
 Vibration     1          0.594              1.983              5.631
 Vibration     2          0.609              1.932              3.088
 Vibration     3          0.611              1.925              2.980
 Vibration     4          0.623              1.887              2.509
 Vibration     5          0.636              1.846              2.177
 Vibration     6          0.683              1.701              1.503
 Vibration     7          0.698              1.657              1.370
 Vibration     8          0.705              1.638              1.318
 Vibration     9          0.749              1.516              1.045
 Vibration    10          0.751              1.509              1.033
 Vibration    11          0.781              1.430              0.897
 Vibration    12          0.831              1.308              0.726
 Vibration    13          0.877              1.202              0.606
 Vibration    14          0.926              1.096              0.504

                           ! Non-Optimized Parameters !
 Normal termination of Gaussian 16 at Sun Dec 17 21:19:27 2023.
