 Q-Chem 5.4, Q-Chem, Inc., Pleasanton, CA (2021)
 Q-Chem 5.4.0 for Intel X86 EM64T Linux

User input:
--------------------------------------------------------------
$molecule
-1 2
Br                -1.6227190000      2.5312440000      1.3383520000
C                 -0.7274530000      1.0415630000      0.4890760000
C                 -1.4398090000      0.0212930000     -0.0904960000
C                 -0.7307380000     -1.0469320000     -0.8131740000
O                 -1.3485240000     -1.9668210000     -1.3901890000
C                  0.7216900000     -0.9507750000     -0.7995230000
C                  1.4353370000      0.0482490000     -0.1855520000
C                  0.7244380000      1.1471500000      0.4873960000
O                  1.3404480000      2.0957220000      1.0180050000
C                  2.9224210000      0.1088510000     -0.1490890000
C                  3.6062660000      1.1939090000     -0.7114200000
C                  4.9964580000      1.2609050000     -0.6694050000
C                  5.7312650000      0.2529550000     -0.0453450000
C                  5.0605650000     -0.8223300000      0.5352730000
C                  3.6700810000     -0.8922650000      0.4819940000
Br                 1.6112160000     -2.3448010000     -1.8031830000
C                 -2.9236070000     -0.0907140000     -0.0443870000
C                 -3.6755700000     -0.0991450000     -1.2258090000
C                 -5.0625470000     -0.2164830000     -1.1884220000
C                 -5.7252340000     -0.3484810000      0.0317300000
C                 -4.9857190000     -0.3610470000      1.2133220000
C                 -3.5990010000     -0.2323650000      1.1735340000
H                  3.0386960000      1.9905890000     -1.1754620000
H                  5.5066390000      2.1079990000     -1.1167300000
H                  6.8144890000      0.3080350000     -0.0072650000
H                  5.6195030000     -1.6094050000      1.0313470000
H                  3.1542320000     -1.7310510000      0.9341020000
H                 -3.1633390000     -0.0215390000     -2.1764620000
H                 -5.6263970000     -0.2149310000     -2.1157960000
H                 -6.8057410000     -0.4460730000      0.0606540000
H                 -5.4878520000     -0.4713860000      2.1691900000
H                 -3.0294940000     -0.2419200000      2.0952810000
$end
$rem
MAX_SCF_CYCLES=200
BASIS  =  6-311++G(d,p)
GUI  =  2
JOB_TYPE  =  SP
METHOD  =  B3LYP
SOLVENT_METHOD = COSMO
$end
$solvent
dielectric 37.219
opticaldielectric 1.43
$end

--------------------------------------------------------------

             Standard Nuclear Orientation (Angstroms)
    I     Atom           X                Y                Z
 ----------------------------------------------------------------
    1      Br     -2.0950678650    -2.5764508908     0.1088177006
    2      C      -0.9193392257    -1.0430528608     0.0178613114
    3      C      -1.4191501806     0.2352644235    -0.0021281092
    4      C      -0.4965020428     1.3815711460     0.0270461428
    5      O      -0.9165640147     2.5578345103     0.0545063316
    6      C       0.9191229831     1.0426053566     0.0176870262
    7      C       1.4188764388    -0.2357252568    -0.0027753383
    8      C       0.4963542618    -1.3819865987     0.0265090578
    9      O       0.9164572283    -2.5582437479     0.0536326009
   10      C       2.8705236130    -0.5624976002    -0.0513684760
   11      C       3.4695654950    -1.3043885867     0.9742813613
   12      C       4.8243438540    -1.6226330197     0.9275523555
   13      C       5.6044391923    -1.2225245306    -0.1572148423
   14      C       5.0148940521    -0.5005064240    -1.1937089159
   15      C       3.6615487407    -0.1739605791    -1.1389404068
   16      Br      2.0951236423     2.5757998376     0.1084368026
   17      C      -2.8706985375     0.5623135086    -0.0508556818
   18      C      -3.4694098991     1.3056575055     0.9739671249
   19      C      -4.8239206706     1.6249239626     0.9266311815
   20      C      -5.6041208066     1.2243545949    -0.1578873129
   21      C      -5.0149556205     0.5007278907    -1.1934783376
   22      C      -3.6618880664     0.1732013137    -1.1381295444
   23      H       2.8625213860    -1.6379088092     1.8064060010
   24      H       5.2696786507    -2.1934552450     1.7361260746
   25      H       6.6590605277    -1.4756579007    -0.1966541981
   26      H       5.6083863590    -0.1900058656    -2.0477255678
   27      H       3.2089868069     0.3884026610    -1.9470239857
   28      H      -2.8622790667     1.6396753095     1.8058136697
   29      H      -5.2689475623     2.1969868879     1.7344967905
   30      H      -6.6585084385     1.4783753659    -0.1978415725
   31      H      -5.6085138854     0.1898069293    -2.0473006962
   32      H      -3.2095841786    -0.3902240436    -1.9456071682
 ----------------------------------------------------------------

   10   -5990.9480163076      3.20e-06  Convergence criterion met
 Total energy in the final basis set =    -5990.9480163076
    4   -5991.0294937695      8.01e-06  Convergence criterion met
 Total energy in the final basis set =    -5991.0294937695

                    Orbital Energies (a.u.)
 --------------------------------------------------------------

 Alpha MOs
 -- Occupied --
********-482.8258 -62.4787 -62.4786 -56.2990 -56.2990 -56.2955 -56.2954
-56.2951 -56.2950 -19.0936 -19.0936 -10.2458 -10.2458 -10.2282 -10.2282
-10.1977 -10.1977 -10.1882 -10.1882 -10.1751 -10.1751 -10.1748 -10.1748
-10.1743 -10.1743 -10.1740 -10.1740 -10.1737 -10.1737  -8.6873  -8.6873
 -6.5184  -6.5184  -6.5064  -6.5064  -6.5053  -6.5053  -2.6294  -2.6294
 -2.6262  -2.6262  -2.6254  -2.6254  -2.6158  -2.6158  -2.6157  -2.6157
 -1.0255  -1.0229  -0.8737  -0.8658  -0.8486  -0.8233  -0.7790  -0.7737
 -0.7524  -0.7482  -0.7481  -0.7106  -0.6835  -0.6389  -0.6090  -0.6078
 -0.5967  -0.5707  -0.5688  -0.5230  -0.5136  -0.5100  -0.4741  -0.4636
 -0.4614  -0.4547  -0.4427  -0.4375  -0.4284  -0.4224  -0.4209  -0.4191
 -0.4092  -0.4062  -0.3969  -0.3857  -0.3714  -0.3659  -0.3526  -0.3525
 -0.3467  -0.3457  -0.3307  -0.3225  -0.2935  -0.2900  -0.2818  -0.2705
 -0.2653  -0.2615  -0.2550  -0.2530  -0.2440  -0.2375  -0.1753

 Beta MOs
 -- Occupied --
********-482.8258 -62.4786 -62.4786 -56.2991 -56.2991 -56.2954 -56.2954
-56.2951 -56.2950 -19.0868 -19.0868 -10.2446 -10.2445 -10.2271 -10.2270
-10.1965 -10.1965 -10.1884 -10.1883 -10.1750 -10.1750 -10.1748 -10.1748
-10.1742 -10.1742 -10.1740 -10.1740 -10.1736 -10.1736  -8.6873  -8.6873
 -6.5185  -6.5185  -6.5064  -6.5064  -6.5053  -6.5053  -2.6294  -2.6294
 -2.6262  -2.6262  -2.6254  -2.6254  -2.6157  -2.6157  -2.6157  -2.6157
 -1.0140  -1.0111  -0.8710  -0.8654  -0.8460  -0.8219  -0.7779  -0.7717
 -0.7512  -0.7481  -0.7479  -0.7090  -0.6750  -0.6368  -0.6086  -0.6076
 -0.5959  -0.5687  -0.5648  -0.5226  -0.5124  -0.5079  -0.4717  -0.4628
 -0.4588  -0.4539  -0.4411  -0.4329  -0.4223  -0.4214  -0.4191  -0.4120
 -0.4044  -0.4042  -0.3842  -0.3727  -0.3699  -0.3646  -0.3516  -0.3515
 -0.3462  -0.3450  -0.3250  -0.3085  -0.2929  -0.2897  -0.2684  -0.2667
 -0.2621  -0.2569  -0.2511  -0.2502  -0.2390  -0.2334

          Ground-State Mulliken Net Atomic Charges

     Atom                 Charge (a.u.)    Spin (a.u.)
  --------------------------------------------------------
      1 Br                   -0.148151       0.005049
      2 C                    -0.339221       0.064174
      3 C                     0.975232       0.097386
      4 C                    -1.155607       0.085384
      5 O                    -0.367924       0.248331
      6 C                    -0.339750       0.064081
      7 C                     0.973114       0.097568
      8 C                    -1.156754       0.085241
      9 O                    -0.367564       0.248503
     10 C                     1.207546      -0.040657
     11 C                    -0.098262       0.022971
     12 C                    -0.345044      -0.002095
     13 C                    -0.401238       0.005283
     14 C                    -0.440626      -0.002645
     15 C                    -0.478286       0.018700
     16 Br                   -0.148238       0.005046
     17 C                     1.207041      -0.040557
     18 C                    -0.097732       0.022996
     19 C                    -0.344997      -0.002095
     20 C                    -0.401220       0.005316
     21 C                    -0.440402      -0.002662
     22 C                    -0.479712       0.018673
     23 H                     0.241035      -0.001533
     24 H                     0.212796       0.000364
     25 H                     0.202150      -0.000393
     26 H                     0.213791       0.000255
     27 H                     0.224194      -0.000686
     28 H                     0.241006      -0.001539
     29 H                     0.212778       0.000365
     30 H                     0.202185      -0.000395
     31 H                     0.213777       0.000255
     32 H                     0.224079      -0.000686
  --------------------------------------------------------
  Sum of atomic charges =    -1.000005

                    Cartesian Multipole Moments
 -----------------------------------------------------------------
    Charge (ESU x 10^10)
                -4.8032
    Dipole Moment (Debye)
         X       0.0030      Y      -0.0016      Z      -0.4188
       Tot       0.4189
    Quadrupole Moments (Debye-Ang)
        XX    -151.3289     XY       1.0415     YY    -197.4463
        XZ       0.0113     YZ      -0.0014     ZZ    -148.2751

 Total job time:  203.59s(wall), 1250.79s(cpu)
        *  Thank you very much for using Q-Chem.  Have a nice day.  *
