 Q-Chem 5.4, Q-Chem, Inc., Pleasanton, CA (2021)
 Q-Chem 5.4.0 for Intel X86 EM64T Linux

User input:
--------------------------------------------------------------
$molecule
-2 1
C                  5.9179770000     -5.2148140000      1.1094220000
C                  6.8205270000     -5.0827280000      0.0699430000
C                  6.6072130000     -4.0904430000     -0.9186540000
C                  4.7767520000     -4.3868180000      1.2237560000
C                  4.5604390000     -3.3805000000      0.2212260000
C                  5.4993450000     -3.2673490000     -0.8307720000
C                  3.8735510000     -4.5976940000      2.3585850000
C                  2.7784700000     -3.6967770000      2.3395940000
C                  2.5638050000     -2.6983100000      1.3448460000
C                  3.4152580000     -2.4659180000      0.2347750000
O                  4.0905620000     -5.5032290000      3.2389430000
O                  3.2465000000     -1.5769210000     -0.6725930000
H                  6.0467940000     -5.9626800000      1.8856770000
H                  5.3015210000     -2.4957420000     -1.5683050000
Br                 1.5301690000     -3.9192950000      3.8245980000
Br                 1.0129250000     -1.5147870000      1.4285710000
H                  7.6893950000     -5.7366660000      0.0112410000
H                  7.3111350000     -3.9770190000     -1.7418440000
$end
$rem
MAX_SCF_CYCLES=200
BASIS  =  6-311++G(d,p)
GUI  =  2
JOB_TYPE  =  SP
METHOD  =  B3LYP
SOLVENT_METHOD = COSMO
$end
$solvent
dielectric 37.219
opticaldielectric 1.43
$end

--------------------------------------------------------------

             Standard Nuclear Orientation (Angstroms)
    I     Atom           X                Y                Z
 ----------------------------------------------------------------
    1      C       3.2022394298    -1.3903388820    -0.0001205093
    2      C       4.4053913376    -0.7084406113    -0.0003217585
    3      C       4.4054083649     0.7084067361    -0.0002434764
    4      C       1.9574346188    -0.7183976097     0.0001013054
    5      C       1.9574442743     0.7184508927     0.0002159797
    6      C       3.2022736818     1.3903490546     0.0000612346
    7      C       0.7316904008    -1.5219078483     0.0001376708
    8      C      -0.4330362222    -0.7128179959     0.0001417762
    9      C      -0.4330412635     0.7128541230     0.0002132506
   10      C       0.7316903864     1.5219499459     0.0003186516
   11      O       0.7605635202    -2.8030338975     0.0000508017
   12      O       0.7605355096     2.8030742792     0.0004504260
   13      H       3.1609268049    -2.4751257105    -0.0001687309
   14      H       3.1609727951     2.4751351402     0.0001553461
   15      Br     -2.1078263211    -1.7168521781     0.0000309205
   16      Br     -2.1078564056     1.7168259380    -0.0002064788
   17      H       5.3466002442    -1.2562893037    -0.0005178409
   18      H       5.3466333005     1.2562283944    -0.0003588026
 ----------------------------------------------------------------

   10   -5682.3430588373      7.25e-06  Convergence criterion met
 Total energy in the final basis set =    -5682.3430588373
    6   -5682.6168604820      3.24e-06  Convergence criterion met
 Total energy in the final basis set =    -5682.6168604820

                    Orbital Energies (a.u.)
 --------------------------------------------------------------

 Alpha MOs
 -- Occupied --
********-482.8084 -62.4613 -62.4613 -56.2815 -56.2815 -56.2781 -56.2781
-56.2778 -56.2778 -19.0352 -19.0352 -10.1963 -10.1962 -10.1927 -10.1922
-10.1590 -10.1585 -10.1565 -10.1561 -10.1549 -10.1549  -8.6699  -8.6699
 -6.5005  -6.5005  -6.4893  -6.4892  -6.4883  -6.4883  -2.6115  -2.6115
 -2.6086  -2.6086  -2.6078  -2.6078  -2.5989  -2.5988  -2.5988  -2.5987
 -0.9581  -0.9546  -0.8397  -0.8157  -0.7668  -0.7553  -0.7338  -0.6940
 -0.6545  -0.5887  -0.5827  -0.5388  -0.4930  -0.4723  -0.4448  -0.4291
 -0.4080  -0.3955  -0.3913  -0.3872  -0.3717  -0.3611  -0.3442  -0.3419
 -0.3312  -0.3198  -0.2984  -0.2879  -0.2839  -0.2593  -0.2402  -0.2392
 -0.2194  -0.2190  -0.2123  -0.1330

          Ground-State Mulliken Net Atomic Charges

     Atom                 Charge (a.u.)
  ----------------------------------------
      1 C                     0.053075
      2 C                    -0.443544
      3 C                    -0.444792
      4 C                     0.531759
      5 C                     0.533610
      6 C                     0.053241
      7 C                    -1.136668
      8 C                     0.521799
      9 C                     0.522708
     10 C                    -1.136240
     11 O                    -0.629906
     12 O                    -0.629953
     13 H                     0.161425
     14 H                     0.161448
     15 Br                   -0.252782
     16 Br                   -0.253126
     17 H                     0.193968
     18 H                     0.193980
  ----------------------------------------
  Sum of atomic charges =    -2.000000

                    Cartesian Multipole Moments
 -----------------------------------------------------------------
    Charge (ESU x 10^10)
                -9.6064
    Dipole Moment (Debye)
         X      -2.3588      Y       0.0011      Z      -0.0021
       Tot       2.3588
    Quadrupole Moments (Debye-Ang)
        XX    -129.5165     XY       0.0013     YY    -173.5848
        XZ      -0.0039     YZ      -0.0031     ZZ    -116.2979

 Total job time:  42.49s(wall), 309.25s(cpu)
        *  Thank you very much for using Q-Chem.  Have a nice day.  *
