 Q-Chem 5.4, Q-Chem, Inc., Pleasanton, CA (2021)
 Q-Chem 5.4.0 for Intel X86 EM64T Linux

User input:
--------------------------------------------------------------
$molecule
0 1
C                  3.9276500000      1.2700870000     -1.3009740000
N                  2.5310420000      1.0589270000     -0.9840590000
C                  2.0496970000      0.0024160000     -0.2831400000
C                  2.9282310000     -1.0011840000      0.1990080000
C                  2.4534050000     -2.0829020000      0.9139140000
C                  1.0902300000     -2.2237120000      1.1855820000
C                  0.2003730000     -1.2613190000      0.7297220000
C                 -1.2483170000     -1.4623440000      1.0491730000
O                 -1.6280700000     -2.4338720000      1.6840760000
C                 -2.2100590000     -0.4368560000      0.5655120000
C                 -3.5729420000     -0.5862430000      0.8421580000
C                 -4.4826550000      0.3642590000      0.3964370000
C                 -4.0358880000      1.4721940000     -0.3298920000
C                 -2.6831420000      1.6268130000     -0.6083230000
C                 -1.7599740000      0.6744500000     -0.1633690000
C                 -0.3132120000      0.8679020000     -0.4782810000
O                  0.0276030000      1.8672440000     -1.1249890000
C                  0.6470010000     -0.1345500000     -0.0082850000
H                  4.3377240000      0.4590190000     -1.9140450000
H                  4.5441830000      1.3660340000     -0.3995900000
H                  4.0121970000      2.1969310000     -1.8676490000
H                  1.8313980000      1.7276960000     -1.2893780000
H                  3.9885890000     -0.9164990000      0.0023200000
H                  3.1530040000     -2.8322590000      1.2679020000
H                  0.7068690000     -3.0666830000      1.7444340000
H                 -3.8925160000     -1.4535080000      1.4065590000
H                 -5.5386140000      0.2465940000      0.6119260000
H                 -4.7462620000      2.2138460000     -0.6775920000
H                 -2.3175430000      2.4775170000     -1.1691550000
$end
$rem
MAX_SCF_CYCLES=200
BASIS  =  6-311++G(d,p)
GUI  =  2
JOB_TYPE  =  SP
METHOD  =  B3LYP
SOLVENT_METHOD = COSMO
$end
$solvent
dielectric 37.219
opticaldielectric 1.43
$end

--------------------------------------------------------------

             Standard Nuclear Orientation (Angstroms)
    I     Atom           X                Y                Z
 ----------------------------------------------------------------
    1      C       4.2309201119     1.8363435055     0.0005090264
    2      N       2.8205167064     1.5103095326    -0.0007758960
    3      C       2.3195294330     0.2500685097    -0.0002633528
    4      C       3.1897600651    -0.8698423160    -0.0000828329
    5      C       2.6949905481    -2.1589765938     0.0002159237
    6      C       1.3191662787    -2.4018440799     0.0002718310
    7      C       0.4369070130    -1.3306425767     0.0000879751
    8      C      -1.0259858341    -1.6486161998     0.0000574519
    9      O      -1.4232079090    -2.8033435655    -0.0003292770
   10      C      -1.9797608043    -0.5080836129     0.0000544665
   11      C      -3.3554055840    -0.7608700715    -0.0000011830
   12      C      -4.2578821436     0.2951768313     0.0000495941
   13      C      -3.7910444817     1.6130300556     0.0001471822
   14      C      -2.4255326984     1.8713518828     0.0001729065
   15      C      -1.5095211209     0.8139298832     0.0000899503
   16      C      -0.0486558086     1.1230997843    -0.0001110703
   17      O       0.3097932112     2.3082516035    -0.0001081270
   18      C       0.9039290258     0.0093684928    -0.0001468090
   19      H       4.7434538501     1.4498853153    -0.8882019905
   20      H       4.7421995810     1.4480431079     0.8891191705
   21      H       4.3298901849     2.9214758306     0.0016547319
   22      H       2.1254920523     2.2498459459    -0.0006439788
   23      H       4.2596147822    -0.7097560593    -0.0003682679
   24      H       3.3887298517    -2.9926479590     0.0003249121
   25      H       0.9201708114    -3.4071718451     0.0004226566
   26      H      -3.6904559732    -1.7907078447    -0.0000905276
   27      H      -5.3237568574     0.0970832598    -0.0000008126
   28      H      -4.4957772976     2.4369996271     0.0001946570
   29      H      -2.0443443481     2.8845586221     0.0002135945
 ----------------------------------------------------------------

    9    -783.6540073219      2.73e-06  Convergence criterion met
 Total energy in the final basis set =     -783.6540073219
    5    -783.6686645081      4.35e-06  Convergence criterion met
 Total energy in the final basis set =     -783.6686645081

                    Orbital Energies (a.u.)
 --------------------------------------------------------------

 Alpha MOs
 -- Occupied --
-19.1275 -19.1243 -14.3379 -10.2797 -10.2766 -10.2429 -10.2044 -10.2041
-10.2027 -10.2009 -10.1998 -10.1940 -10.1940 -10.1935 -10.1928 -10.1920
-10.1879 -10.1832  -1.0633  -1.0577  -0.9546  -0.8871  -0.8679  -0.8072
 -0.7745  -0.7684  -0.7656  -0.7015  -0.6849  -0.6567  -0.6431  -0.6061
 -0.5882  -0.5575  -0.5503  -0.5245  -0.5018  -0.4925  -0.4825  -0.4700
 -0.4622  -0.4590  -0.4554  -0.4467  -0.4433  -0.4379  -0.4269  -0.4156
 -0.4002  -0.3901  -0.3846  -0.3836  -0.3704  -0.3676  -0.3632  -0.3183
 -0.2871  -0.2850  -0.2751  -0.2727  -0.2717  -0.2193

          Ground-State Mulliken Net Atomic Charges

     Atom                 Charge (a.u.)
  ----------------------------------------
      1 C                    -0.382568
      2 N                    -0.284152
      3 C                     0.127723
      4 C                     0.023124
      5 C                    -0.459962
      6 C                     0.054491
      7 C                     0.568205
      8 C                    -0.550524
      9 O                    -0.304027
     10 C                     0.027470
     11 C                     0.112222
     12 C                    -0.461416
     13 C                    -0.459842
     14 C                     0.155822
     15 C                    -0.033509
     16 C                    -0.250825
     17 O                    -0.339945
     18 C                     0.038058
     19 H                     0.178646
     20 H                     0.178427
     21 H                     0.183289
     22 H                     0.411205
     23 H                     0.211404
     24 H                     0.234416
     25 H                     0.185131
     26 H                     0.193098
     27 H                     0.222674
     28 H                     0.225237
     29 H                     0.196127
  ----------------------------------------
  Sum of atomic charges =     0.000000

                    Cartesian Multipole Moments
 -----------------------------------------------------------------
    Charge (ESU x 10^10)
                 0.0000
    Dipole Moment (Debye)
         X       2.8439      Y       2.3358      Z       0.0027
       Tot       3.6802
    Quadrupole Moments (Debye-Ang)
        XX     -67.5326     XY      -6.7603     YY    -110.2578
        XZ       0.0040     YZ       0.0006     ZZ    -108.1866

 Total job time:  82.51s(wall), 469.18s(cpu)
        *  Thank you very much for using Q-Chem.  Have a nice day.  *
