 Q-Chem 5.4, Q-Chem, Inc., Pleasanton, CA (2021)
 Q-Chem 5.4.0 for Intel X86 EM64T Linux

User input:
--------------------------------------------------------------
$molecule
0 1
C                 -2.4881650000      1.4032700000      0.3575710000
C                 -2.0058200000     -0.0592030000      0.4343500000
C                 -2.7728100000     -0.9600880000     -0.5543030000
C                 -0.5036300000     -0.1773190000      0.2722420000
C                  0.2831110000     -0.6506490000      1.2559590000
C                  1.7507610000     -0.7830430000      1.1420390000
O                  2.4139140000     -1.2203150000      2.0702960000
C                  2.4035650000     -0.3674300000     -0.1402180000
C                  1.6246280000      0.1060850000     -1.1270920000
C                  0.1546610000      0.2388630000     -1.0130900000
O                 -0.4908670000      0.6789670000     -1.9529360000
C                  3.8908920000     -0.5097980000     -0.2335560000
H                 -2.3377400000      1.8158360000     -0.6406000000
H                 -3.5552650000      1.4504900000      0.5923340000
H                 -1.9590290000      2.0331580000      1.0779210000
H                 -2.2228150000     -0.4230430000      1.4451090000
H                 -2.6323220000     -0.6255490000     -1.5826680000
H                 -2.4444410000     -2.0003460000     -0.4788220000
H                 -3.8417580000     -0.9292350000     -0.3253200000
H                 -0.1284830000     -0.9684110000      2.2090550000
H                  2.0351690000      0.4239840000     -2.0802590000
H                  4.3820420000      0.0723640000      0.5511160000
H                  4.2567670000     -0.1795280000     -1.2063900000
H                  4.1876350000     -1.5499540000     -0.0727370000
$end
$rem
MAX_SCF_CYCLES=200
BASIS  =  6-311++G(d,p)
GUI  =  2
JOB_TYPE  =  SP
METHOD  =  B3LYP
SOLVENT_METHOD = COSMO
$end
$solvent
dielectric 37.219
opticaldielectric 1.43
$end

--------------------------------------------------------------

             Standard Nuclear Orientation (Angstroms)
    I     Atom           X                Y                Z
 ----------------------------------------------------------------
    1      C      -2.9369329814    -0.2328893244     1.2748209200
    2      C      -2.2170594224    -0.7159006354    -0.0002716735
    3      C      -2.9378102701    -0.2314593390    -1.2742956308
    4      C      -0.7453184821    -0.3542602198    -0.0003327114
    5      C       0.2181580421    -1.2936295885    -0.0002812920
    6      C       1.6640553292    -0.9872254571    -0.0002209522
    7      O       2.4940685770    -1.8837285314    -0.0003087542
    8      C       2.0850705452     0.4500693607    -0.0000291830
    9      C       1.1288375550     1.3937314011    -0.0001670682
   10      C      -0.3193824115     1.0869931436    -0.0001001716
   11      O      -1.1339540897     1.9981359010     0.0004386016
   12      C       3.5542885254     0.7373334132     0.0003250581
   13      H      -2.9741560748     0.8561293220     1.3176760160
   14      H      -3.9623636049    -0.6129701378     1.2835625564
   15      H      -2.4365608836    -0.5997584013     2.1752001544
   16      H      -2.2515095672    -1.8113060270    -0.0008609189
   17      H      -2.9756010506     0.8575980473    -1.3156920070
   18      H      -2.4377335152    -0.5968243940    -2.1754570502
   19      H      -3.9630633313    -0.6120053908    -1.2830026110
   20      H      -0.0212098616    -2.3526278336    -0.0004164110
   21      H       1.3671432639     2.4526654838    -0.0000475836
   22      H       4.0327890155     0.2884372401     0.8751853733
   23      H       3.7445111865     1.8111881296    -0.0000839379
   24      H       4.0333999481     0.2876384791    -0.8737861328
 ----------------------------------------------------------------

    9    -538.8721424916      5.80e-06  Convergence criterion met
 Total energy in the final basis set =     -538.8721424916
    4    -538.8842056610      6.71e-06  Convergence criterion met
 Total energy in the final basis set =     -538.8842056610

                    Orbital Energies (a.u.)
 --------------------------------------------------------------

 Alpha MOs
 -- Occupied --
-19.1413 -19.1399 -10.2849 -10.2842 -10.2174 -10.2148 -10.2005 -10.1998
-10.1899 -10.1745 -10.1588 -10.1588  -1.0724  -1.0704  -0.8669  -0.8262
 -0.7751  -0.7265  -0.6877  -0.6864  -0.6267  -0.6137  -0.5617  -0.5296
 -0.4943  -0.4843  -0.4587  -0.4572  -0.4469  -0.4409  -0.4304  -0.4207
 -0.4120  -0.4063  -0.4049  -0.3882  -0.3826  -0.3587  -0.3495  -0.3434
 -0.3031  -0.2879  -0.2826  -0.2749

          Ground-State Mulliken Net Atomic Charges

     Atom                 Charge (a.u.)
  ----------------------------------------
      1 C                    -0.707894
      2 C                     0.133369
      3 C                    -0.707395
      4 C                     1.254640
      5 C                    -0.157527
      6 C                    -0.846807
      7 O                    -0.304257
      8 C                     1.179456
      9 C                    -0.770973
     10 C                    -0.687518
     11 O                    -0.273614
     12 C                    -0.364343
     13 H                     0.183163
     14 H                     0.169464
     15 H                     0.144429
     16 H                     0.212556
     17 H                     0.182973
     18 H                     0.144522
     19 H                     0.169425
     20 H                     0.243130
     21 H                     0.227609
     22 H                     0.199416
     23 H                     0.176910
     24 H                     0.199265
  ----------------------------------------
  Sum of atomic charges =     0.000000

                    Cartesian Multipole Moments
 -----------------------------------------------------------------
    Charge (ESU x 10^10)
                 0.0000
    Dipole Moment (Debye)
         X      -0.2097      Y       0.0141      Z      -0.0015
       Tot       0.2102
    Quadrupole Moments (Debye-Ang)
        XX     -71.6149     XY      16.7682     YY     -80.4703
        XZ       0.0040     YZ      -0.0037     ZZ     -71.8947

 Total job time:  29.50s(wall), 192.70s(cpu)
        *  Thank you very much for using Q-Chem.  Have a nice day.  *
