 Q-Chem 5.4, Q-Chem, Inc., Pleasanton, CA (2021)
 Q-Chem 5.4.0 for Intel X86 EM64T Linux

User input:
--------------------------------------------------------------
$molecule
0 1
O                  4.3931520000     -1.5011540000     -0.4083460000
C                  3.2740540000     -0.7522710000     -0.3158620000
C                  3.3447320000      0.6231250000     -0.3671650000
C                  2.1857830000      1.4133420000     -0.2719890000
O                  2.2956820000      2.7620530000     -0.3264810000
C                  0.9228080000      0.8149860000     -0.1217140000
C                 -0.3169950000      1.6165580000     -0.0187990000
O                 -0.3342910000      2.8366220000     -0.0559350000
C                 -1.6102900000      0.8672870000      0.1393810000
C                 -2.7974840000      1.5978860000      0.2390210000
C                 -4.0137210000      0.9415040000      0.3862680000
C                 -4.0607780000     -0.4554230000      0.4360150000
C                 -2.8884180000     -1.1917320000      0.3380210000
C                 -1.6600770000     -0.5345240000      0.1895510000
C                 -0.4197450000     -1.3244910000      0.0862350000
O                 -0.4565470000     -2.5659390000      0.1298040000
C                  0.8583870000     -0.6132060000     -0.0692760000
C                  2.0200000000     -1.3855060000     -0.1652140000
O                  2.0544570000     -2.7322960000     -0.1256810000
H                  4.1354120000     -2.4336790000     -0.3520180000
H                  4.3175100000      1.0899810000     -0.4832040000
H                  3.2234270000      3.0019280000     -0.4301370000
H                 -2.7396810000      2.6782940000      0.1982560000
H                 -4.9300740000      1.5159910000      0.4628480000
H                 -5.0115310000     -0.9631580000      0.5509270000
H                 -2.8978960000     -2.2737920000      0.3736800000
H                  1.1121230000     -3.0323860000     -0.0181860000
$end
$rem
MAX_SCF_CYCLES=200
BASIS  =  6-311++G(d,p)
GUI  =  2
JOB_TYPE  =  SP
METHOD  =  B3LYP
SOLVENT_METHOD = COSMO
$end
$solvent
dielectric 37.219
opticaldielectric 1.43
$end

--------------------------------------------------------------

             Standard Nuclear Orientation (Angstroms)
    I     Atom           X                Y                Z
 ----------------------------------------------------------------
    1      O       4.3498379869    -0.9147992044    -0.0004277293
    2      C       3.1354765010    -0.3256596046    -0.0001362226
    3      C       3.0226916147     1.0478836603    -0.0000809847
    4      C       1.7631464861     1.6725517342     0.0000897507
    5      O       1.6929760054     3.0250104680     0.0001727846
    6      C       0.5849357879     0.9060415395     0.0001185416
    7      C      -0.7566220197     1.5308961483     0.0000009182
    8      O      -0.9363464823     2.7383453198     0.0001195327
    9      C      -1.9449250484     0.6105832607    -0.0000423649
   10      C      -3.2246249230     1.1722778501    -0.0002454034
   11      C      -4.3485544345     0.3546386251    -0.0002503358
   12      C      -4.2093963177    -1.0370255458    -0.0001001095
   13      C      -2.9437028455    -1.6064127211     0.0000268748
   14      C      -1.8078338740    -0.7862974951     0.0000912679
   15      C      -0.4672972140    -1.3995731019     0.0002340936
   16      O      -0.3386183678    -2.6356505817     0.0002479902
   17      C       0.7109745362    -0.5190010671     0.0001573730
   18      C       1.9707781725    -1.1255412080     0.0000741110
   19      O       2.1844598387    -2.4563054969     0.0000769413
   20      H       4.2173534509    -1.8748270171    -0.0006984090
   21      H       3.9293945865     1.6442110179    -0.0002040511
   22      H       2.5850126067     3.3900665839     0.0004907985
   23      H      -3.3109234460     2.2515539731    -0.0004288475
   24      H      -5.3377172078     0.7986652194    -0.0003975903
   25      H      -5.0887040345    -1.6708621206    -0.0001254310
   26      H      -2.8090396552    -2.6806943713     0.0000683234
   27      H       1.2858733223    -2.8830897718     0.0001539904
 ----------------------------------------------------------------

    9    -914.7023641893      6.85e-06  Convergence criterion met
 Total energy in the final basis set =     -914.7023641893
    5    -914.7268928578      4.03e-06  Convergence criterion met
 Total energy in the final basis set =     -914.7268928578

                    Orbital Energies (a.u.)
 --------------------------------------------------------------

 Alpha MOs
 -- Occupied --
-19.1795 -19.1725 -19.1708 -19.1416 -19.1197 -10.2911 -10.2783 -10.2705
-10.2682 -10.2670 -10.2146 -10.2073 -10.2064 -10.2058 -10.1998 -10.1965
-10.1961 -10.1945 -10.1932  -1.1091  -1.0898  -1.0849  -1.0612  -1.0565
 -0.8931  -0.8785  -0.8142  -0.7781  -0.7736  -0.7683  -0.6988  -0.6794
 -0.6600  -0.6334  -0.6108  -0.5997  -0.5659  -0.5577  -0.5372  -0.5242
 -0.5103  -0.4942  -0.4809  -0.4765  -0.4632  -0.4612  -0.4503  -0.4439
 -0.4430  -0.4358  -0.4346  -0.4085  -0.4063  -0.4003  -0.3956  -0.3932
 -0.3801  -0.3755  -0.3666  -0.3298  -0.2960  -0.2848  -0.2771  -0.2697
 -0.2674  -0.2334

          Ground-State Mulliken Net Atomic Charges

     Atom                 Charge (a.u.)
  ----------------------------------------
      1 O                    -0.278723
      2 C                    -0.391014
      3 C                     0.134651
      4 C                    -0.120992
      5 O                    -0.225175
      6 C                     0.398211
      7 C                    -0.280152
      8 O                    -0.325883
      9 C                    -0.237297
     10 C                     0.177008
     11 C                    -0.503129
     12 C                    -0.492712
     13 C                     0.190845
     14 C                     0.193964
     15 C                    -0.344111
     16 O                    -0.335281
     17 C                     0.919127
     18 C                    -0.221648
     19 O                    -0.409607
     20 H                     0.335260
     21 H                     0.245849
     22 H                     0.326958
     23 H                     0.194857
     24 H                     0.225435
     25 H                     0.225110
     26 H                     0.203400
     27 H                     0.395051
  ----------------------------------------
  Sum of atomic charges =     0.000000

                    Cartesian Multipole Moments
 -----------------------------------------------------------------
    Charge (ESU x 10^10)
                 0.0000
    Dipole Moment (Debye)
         X       0.5335      Y      -1.4244      Z      -0.0015
       Tot       1.5211
    Quadrupole Moments (Debye-Ang)
        XX     -79.3239     XY      12.1069     YY    -115.8577
        XZ       0.0023     YZ       0.0035     ZZ    -110.4752

 Total job time:  64.54s(wall), 481.89s(cpu)
        *  Thank you very much for using Q-Chem.  Have a nice day.  *
