 Gaussian 16, Revision A.03,
 Gaussian 16:  ES64L-G16RevA.03 25-Dec-2016

 ----------------------------------------------------------------------
 #P UB3LYP/6-311++G(d,p) nosym opt freq SCRF=(PCM,Solvent=n,n-DiMethylF
 ormamide)
 ----------------------------------------------------------------------

 -------
 Radical
 -------
 Symbolic Z-matrix:
 Charge = -2 Multiplicity = 2

 SCF Done:  E(UB3LYP) =  -1463.08023377     A.U. after   20 cycles
 SCF Done:  E(UB3LYP) =  -1463.08102806     A.U. after   16 cycles
 SCF Done:  E(UB3LYP) =  -1463.08140178     A.U. after   16 cycles
 SCF Done:  E(UB3LYP) =  -1463.08152110     A.U. after   15 cycles
 SCF Done:  E(UB3LYP) =  -1463.08151499     A.U. after   13 cycles
 SCF Done:  E(UB3LYP) =  -1463.08160161     A.U. after   14 cycles
 SCF Done:  E(UB3LYP) =  -1463.08160209     A.U. after   12 cycles
 SCF Done:  E(UB3LYP) =  -1463.08160816     A.U. after   12 cycles
 SCF Done:  E(UB3LYP) =  -1463.08160858     A.U. after   12 cycles
 SCF Done:  E(UB3LYP) =  -1463.08160868     A.U. after   10 cycles
 Optimization completed.
    -- Stationary point found.
 Normal termination of Gaussian 16 at Sat Feb 10 23:55:20 2024.

 ----------------------------------------------------------------------
 #P Geom=AllCheck Guess=TCheck SCRF=Check GenChk UB3LYP/6-311++G(d,p) F
 req
 ----------------------------------------------------------------------

 Structure from the checkpoint file:  "194-rad.chk"
 -------
 Radical
 -------
 Charge = -2 Multiplicity = 2

                          Input orientation:
 ---------------------------------------------------------------------
 Center     Atomic      Atomic             Coordinates (Angstroms)
 Number     Number       Type             X           Y           Z
 ---------------------------------------------------------------------
      1          6           0        5.041158   -2.911338   -0.359971
      2          6           0        5.809323   -2.058013   -1.126980
      3          6           0        5.268816   -0.836033   -1.579594
      4          6           0        3.711044   -2.581845   -0.016162
      5          6           0        3.166124   -1.348762   -0.472116
      6          6           0        3.971495   -0.491996   -1.255456
      7          6           0        2.922722   -3.498232    0.790966
      8          6           0        1.566765   -3.120814    1.120571
      9          6           0        1.021546   -1.878497    0.660484
     10          6           0        1.803568   -0.967641   -0.142632
     11          6           0        0.765331   -3.998835    1.910895
     12          6           0       -0.547238   -3.634407    2.227774
     13          6           0       -0.316908   -1.547255    1.007398
     14          6           0       -1.075841   -2.416798    1.776351
     15          8           0        3.421977   -4.609001    1.195080
     16          8           0        1.311137    0.143425   -0.553423
     17          8           0        1.277961   -5.167015    2.343576
     18          1           0        5.443701   -3.852079   -0.005729
     19          1           0        6.828573   -2.325776   -1.382504
     20          1           0        5.874027   -0.167743   -2.182103
     21          1           0        2.221378   -5.185128    1.980801
     22          8           0       -0.871916   -0.379852    0.592781
     23          1           0       -2.092958   -2.152482    2.032804
     24          1           0       -0.147885    0.071808    0.061639
     25          1           0        3.544418    0.443105   -1.596014
     26         16           0       -1.619330   -4.717145    3.215349
     27          8           0       -1.774139   -5.983669    2.442182
     28          8           0       -0.942840   -4.914121    4.529797
     29          8           0       -2.905591   -3.971462    3.345207
 ---------------------------------------------------------------------

 SCF Done:  E(UB3LYP) =  -1463.08160868     A.U. after    2 cycles

 Alpha  occ. eigenvalues --  -89.03871 -19.12975 -19.12963 -19.09415 -19.09264
 Alpha  occ. eigenvalues --  -19.08121 -19.08098 -19.08096 -10.24102 -10.23877
 Alpha  occ. eigenvalues --  -10.23705 -10.23274 -10.19241 -10.18239 -10.18167
 Alpha  occ. eigenvalues --  -10.18131 -10.18120 -10.17758 -10.17709 -10.17586
 Alpha  occ. eigenvalues --  -10.17580 -10.17304  -8.09729  -6.06004  -6.05990
 Alpha  occ. eigenvalues --   -6.05910  -1.09913  -1.05693  -1.05241  -1.00856
 Alpha  occ. eigenvalues --   -1.00594  -0.96128  -0.96092  -0.86885  -0.85200
 Alpha  occ. eigenvalues --   -0.79778  -0.75896  -0.75229  -0.73960  -0.68605
 Alpha  occ. eigenvalues --   -0.65427  -0.63948  -0.60871  -0.58899  -0.57493
 Alpha  occ. eigenvalues --   -0.54396  -0.53041  -0.51525  -0.51068  -0.48472
 Alpha  occ. eigenvalues --   -0.47613  -0.46416  -0.44798  -0.44639  -0.43965
 Alpha  occ. eigenvalues --   -0.43708  -0.42909  -0.42638  -0.42552  -0.41985
 Alpha  occ. eigenvalues --   -0.40639  -0.40483  -0.40099  -0.37765  -0.37265
 Alpha  occ. eigenvalues --   -0.36248  -0.35761  -0.35410  -0.34237  -0.32583
 Alpha  occ. eigenvalues --   -0.32385  -0.31404  -0.29504  -0.29167  -0.28370
 Alpha  occ. eigenvalues --   -0.27040  -0.26510  -0.26310  -0.25269  -0.25052
 Alpha  occ. eigenvalues --   -0.24576  -0.21722  -0.14990
 Alpha virt. eigenvalues --   -0.05567  -0.03044  -0.00073   0.00324   0.00950
 Alpha virt. eigenvalues --    0.01380   0.02239   0.02792   0.04199   0.04265
 Alpha virt. eigenvalues --    0.04467   0.04634   0.04796   0.05263   0.06237

  Beta  occ. eigenvalues --  -89.03873 -19.12932 -19.12905 -19.08962 -19.08787
  Beta  occ. eigenvalues --  -19.08124 -19.08085 -19.08084 -10.24061 -10.23669
  Beta  occ. eigenvalues --  -10.23493 -10.23224 -10.19128 -10.18238 -10.18121
  Beta  occ. eigenvalues --  -10.18106 -10.18060 -10.17717 -10.17667 -10.17575
  Beta  occ. eigenvalues --  -10.17565 -10.17183  -8.09731  -6.06005  -6.05991
  Beta  occ. eigenvalues --   -6.05915  -1.09901  -1.05520  -1.05043  -1.00118
  Beta  occ. eigenvalues --   -0.99811  -0.96124  -0.96066  -0.86634  -0.85042
  Beta  occ. eigenvalues --   -0.79389  -0.75643  -0.75070  -0.73688  -0.68002
  Beta  occ. eigenvalues --   -0.65198  -0.63700  -0.60757  -0.58801  -0.57329
  Beta  occ. eigenvalues --   -0.54198  -0.52923  -0.51377  -0.50924  -0.48372
  Beta  occ. eigenvalues --   -0.47432  -0.46251  -0.44594  -0.44550  -0.43596
  Beta  occ. eigenvalues --   -0.43310  -0.42850  -0.42469  -0.42175  -0.41788
  Beta  occ. eigenvalues --   -0.40344  -0.39725  -0.39306  -0.37637  -0.36129
  Beta  occ. eigenvalues --   -0.35695  -0.35644  -0.34471  -0.34115  -0.32564
  Beta  occ. eigenvalues --   -0.32360  -0.30905  -0.29082  -0.28900  -0.28326
  Beta  occ. eigenvalues --   -0.26124  -0.25656  -0.25592  -0.24846  -0.24700
  Beta  occ. eigenvalues --   -0.24548  -0.20614
  Beta virt. eigenvalues --   -0.09615  -0.04445  -0.02039  -0.00055   0.00829
  Beta virt. eigenvalues --    0.00959   0.01397   0.02257   0.02797   0.04218
  Beta virt. eigenvalues --    0.04488   0.04528   0.04809   0.05326   0.05490

 Mulliken charges and spin densities:
               1          2
     1  C   -0.049691   0.030547
     2  C   -0.427753   0.036569
     3  C   -0.481902   0.031302
     4  C    0.225842   0.030115
     5  C    0.125939   0.014047
     6  C   -0.029357   0.037076
     7  C   -0.323010   0.116250
     8  C    0.329098  -0.020414
     9  C    0.768357  -0.003580
    10  C   -0.312796   0.118220
    11  C   -0.553981   0.041654
    12  C   -0.271802   0.079785
    13  C   -0.384692   0.042906
    14  C   -0.163290   0.087862
    15  O   -0.490560   0.164396
    16  O   -0.490906   0.173674
    17  O   -0.385236   0.015746
    18  H    0.171102  -0.000908
    19  H    0.189191  -0.002969
    20  H    0.186549  -0.002684
    21  H    0.410875  -0.003579
    22  O   -0.408991   0.018648
    23  H    0.235523  -0.007510
    24  H    0.367010  -0.003922
    25  H    0.175973  -0.001118
    26  S    0.764505  -0.001575
    27  O   -0.402799   0.004898
    28  O   -0.400548   0.004821
    29  O   -0.372652  -0.000256
 Sum of Mulliken charges =  -2.00000   1.00000

 Dipole moment (field-independent basis, Debye):
    X=              4.4284    Y=             37.4521    Z=            -22.2843  Tot=             43.8048
 Quadrupole moment (field-independent basis, Debye-Ang):
   XX=           -179.6579   YY=           -334.7224   ZZ=           -220.0789
   XY=            -24.9888   XZ=             25.3766   YZ=            111.0752

  Exact polarizability: 490.763   9.468 362.623-131.815-109.112 279.052
 Approx polarizability: 515.588 -24.623 428.879-112.063-116.366 303.791

                      1                      2                      3
                      A                      A                      A
 Frequencies --     35.0024                66.6099                82.0873
 Red. masses --      8.6387                11.8891                 9.3844
 Frc consts  --      0.0062                 0.0311                 0.0373
 IR Inten    --      0.0101                 0.7819                 5.0623

                      4                      5                      6
                      A                      A                      A
 Frequencies --     94.9501               121.7635               141.8593
 Red. masses --      7.9187                10.5525                 5.9002
 Frc consts  --      0.0421                 0.0922                 0.0700
 IR Inten    --      1.7337                 1.8450                 0.0075

                      7                      8                      9
                      A                      A                      A
 Frequencies --    155.7388               179.2805               211.6946
 Red. masses --      9.7250                 9.3563                 8.4498
 Frc consts  --      0.1390                 0.1772                 0.2231
 IR Inten    --      1.9410                 0.8588                 3.1341

                     10                     11                     12
                      A                      A                      A
 Frequencies --    230.9687               245.2640               295.4704
 Red. masses --      8.6782                 7.6935                13.1284
 Frc consts  --      0.2728                 0.2727                 0.6753
 IR Inten    --      1.7787                 1.1610                 5.6294

                     13                     14                     15
                      A                      A                      A
 Frequencies --    296.6338               336.5622               358.0539
 Red. masses --      6.6885                 6.7121                 6.3848
 Frc consts  --      0.3468                 0.4480                 0.4823
 IR Inten    --      0.1409                 4.4485                21.0709

                     16                     17                     18
                      A                      A                      A
 Frequencies --    397.0257               409.3275               430.5475
 Red. masses --     10.2693                11.8108                 4.7609
 Frc consts  --      0.9537                 1.1659                 0.5200
 IR Inten    --      0.4895                 7.9183                 3.6189

                     19                     20                     21
                      A                      A                      A
 Frequencies --    436.8797               444.4271               459.5535
 Red. masses --      8.6783                 4.5718                12.8300
 Frc consts  --      0.9759                 0.5320                 1.5964
 IR Inten    --     95.2862                 0.1642                 3.9571

                     22                     23                     24
                      A                      A                      A
 Frequencies --    486.3657               491.4732               491.8152
 Red. masses --     10.2122                 6.5881                13.7145
 Frc consts  --      1.4233                 0.9376                 1.9545
 IR Inten    --     39.4929                12.5505                64.8545

                     25                     26                     27
                      A                      A                      A
 Frequencies --    535.7963               536.4207               550.7067
 Red. masses --      8.4992                 7.4947                 9.0313
 Frc consts  --      1.4376                 1.2706                 1.6138
 IR Inten    --     45.1595                57.8488                11.2185

                     28                     29                     30
                      A                      A                      A
 Frequencies --    597.4829               620.0428               655.8920
 Red. masses --     13.8247                 4.6404                 6.6328
 Frc consts  --      2.9078                 1.0511                 1.6812
 IR Inten    --    404.1474                 8.4893                 2.4535

                     31                     32                     33
                      A                      A                      A
 Frequencies --    661.7066               687.7783               711.2684
 Red. masses --      6.3359                 7.1533                 5.2976
 Frc consts  --      1.6345                 1.9937                 1.5790
 IR Inten    --      0.0692               120.6543                 2.9793

                     34                     35                     36
                      A                      A                      A
 Frequencies --    729.4679               732.0573               777.5770
 Red. masses --      3.4513                 6.4158                 5.4609
 Frc consts  --      1.0820                 2.0258                 1.9454
 IR Inten    --     61.9695                22.4765                 1.1993

                     37                     38                     39
                      A                      A                      A
 Frequencies --    791.1392               792.2404               865.9132
 Red. masses --      1.8612                 8.0487                 1.2483
 Frc consts  --      0.6864                 2.9764                 0.5514
 IR Inten    --     57.7109                46.8258               158.4072

                     40                     41                     42
                      A                      A                      A
 Frequencies --    878.6555               886.0664               898.0438
 Red. masses --      1.1735                 1.4100                 1.0617
 Frc consts  --      0.5338                 0.6522                 0.5045
 IR Inten    --     13.0417                 8.4998               138.1793

                     43                     44                     45
                      A                      A                      A
 Frequencies --    901.8639               915.5772               964.6198
 Red. masses --      8.3881                 8.6955                12.7276
 Frc consts  --      4.0197                 4.2947                 6.9777
 IR Inten    --     63.6238               108.4378               484.0680

                     46                     47                     48
                      A                      A                      A
 Frequencies --    990.2150              1004.3014              1009.2456
 Red. masses --      1.3658                 1.2940                 6.9699
 Frc consts  --      0.7890                 0.7690                 4.1828
 IR Inten    --      1.7193                 0.0202               433.6129

                     49                     50                     51
                      A                      A                      A
 Frequencies --   1038.9358              1105.7796              1109.5959
 Red. masses --      2.2461                 3.7322                 6.5839
 Frc consts  --      1.4284                 2.6888                 4.7760
 IR Inten    --      7.8635               105.9635               210.2008

                     52                     53                     54
                      A                      A                      A
 Frequencies --   1111.7012              1114.6194              1159.8293
 Red. masses --     11.5755                 3.2519                 1.2607
 Frc consts  --      8.4288                 2.3804                 0.9992
 IR Inten    --    515.3283               317.9037                24.4989

                     55                     56                     57
                      A                      A                      A
 Frequencies --   1184.5211              1216.4027              1256.1436
 Red. masses --      1.6871                 1.8942                 3.4396
 Frc consts  --      1.3947                 1.6513                 3.1977
 IR Inten    --    162.9002                12.8297                15.2377

                     58                     59                     60
                      A                      A                      A
 Frequencies --   1272.2837              1280.4878              1301.3421
 Red. masses --      3.2679                 5.7920                 5.1849
 Frc consts  --      3.1166                 5.5954                 5.1733
 IR Inten    --    189.5365                13.0807               208.4949

                     61                     62                     63
                      A                      A                      A
 Frequencies --   1314.8932              1357.5513              1371.9804
 Red. masses --      3.4540                10.3484                 7.5394
 Frc consts  --      3.5185                11.2366                 8.3615
 IR Inten    --    720.5148                 1.6519                84.8934

                     64                     65                     66
                      A                      A                      A
 Frequencies --   1397.8531              1426.9538              1452.5233
 Red. masses --      2.9590                 7.0917                 3.3717
 Frc consts  --      3.4066                 8.5079                 4.1913
 IR Inten    --    691.5869               176.0987              1430.0128

                     67                     68                     69
                      A                      A                      A
 Frequencies --   1483.2694              1497.5770              1509.8356
 Red. masses --      2.4353                 3.5677                 3.6402
 Frc consts  --      3.1567                 4.7143                 4.8891
 IR Inten    --    144.7615               206.0051               271.3385

                     70                     71                     72
                      A                      A                      A
 Frequencies --   1562.9732              1579.1831              1628.0474
 Red. masses --      5.6283                 1.9558                 5.5760
 Frc consts  --      8.1008                 2.8737                 8.7078
 IR Inten    --    223.3764               140.5793                 0.9179

                     73                     74                     75
                      A                      A                      A
 Frequencies --   1630.0142              1641.3961              2862.0283
 Red. masses --      3.7993                 2.4588                 1.0766
 Frc consts  --      5.9476                 3.9030                 5.1960
 IR Inten    --     26.5401                34.6252               766.5861

                     76                     77                     78
                      A                      A                      A
 Frequencies --   2977.7177              3164.3909              3178.0921
 Red. masses --      1.0731                 1.0864                 1.0907
 Frc consts  --      5.6062                 6.4096                 6.4909
 IR Inten    --    695.6784                12.0134                20.8951

                     79                     80                     81
                      A                      A                      A
 Frequencies --   3195.0133              3198.5498              3207.3837
 Red. masses --      1.0923                 1.0942                 1.0896
 Frc consts  --      6.5696                 6.5954                 6.6044
 IR Inten    --     14.0963                36.2253                16.3555

 - Thermochemistry -
 -------------------
 Temperature   298.150 Kelvin.  Pressure   1.00000 Atm.
 Atom     1 has atomic number  6 and mass  12.00000

 Molecular mass:   318.99125 amu.
 Principal axes and moments of inertia in atomic units:
                           1         2         3
     Eigenvalues --  3050.49770********************
           X            0.75440  -0.57005   0.32546
           Y            0.40703   0.79522   0.44939
           Z           -0.51499  -0.20654   0.83194
 This molecule is an asymmetric top.
 Rotational symmetry number  1.
 Warning -- assumption of classical behavior for rotation
           may cause significant error
 Rotational temperatures (Kelvin)      0.02839     0.00787     0.00632
 Rotational constants (GHZ):           0.59162     0.16404     0.13175
 Zero-point vibrational energy     492755.6 (Joules/Mol)
                                  117.77141 (Kcal/Mol)
 Warning -- explicit consideration of  29 degrees of freedom as
           vibrations may cause significant error
 Vibrational temperatures:     50.36    95.84   118.11   136.61   175.19
          (Kelvin)            204.10   224.07   257.94   304.58   332.31
                              352.88   425.12   426.79   484.24   515.16
                              571.23   588.93   619.46   628.57   639.43
                              661.20   699.77   707.12   707.61   770.89
                              771.79   792.34   859.64   892.10   943.68
                              952.05   989.56  1023.36  1049.54  1053.27
                             1118.76  1138.27  1139.86  1245.86  1264.19
                             1274.85  1292.08  1297.58  1317.31  1387.87
                             1424.70  1444.97  1452.08  1494.80  1590.97
                             1596.46  1599.49  1603.69  1668.74  1704.26
                             1750.13  1807.31  1830.53  1842.34  1872.34
                             1891.84  1953.21  1973.97  2011.20  2053.07
                             2089.86  2134.09  2154.68  2172.32  2248.77
                             2272.09  2342.40  2345.23  2361.60  4117.82
                             4284.27  4552.85  4572.57  4596.91  4602.00
                             4614.71

 Zero-point correction=                           0.187681 (Hartree/Particle)
 Thermal correction to Energy=                    0.204419
 Thermal correction to Enthalpy=                  0.205363
 Thermal correction to Gibbs Free Energy=         0.142534
 Sum of electronic and zero-point Energies=          -1462.893928
 Sum of electronic and thermal Energies=             -1462.877190
 Sum of electronic and thermal Enthalpies=           -1462.876246
 Sum of electronic and thermal Free Energies=        -1462.939074

                     E (Thermal)             CV                S
                      KCal/Mol        Cal/Mol-Kelvin    Cal/Mol-Kelvin
 Total                  128.275             66.622            132.233
 Electronic               0.000              0.000              1.377
 Translational            0.889              2.981             43.176
 Rotational               0.889              2.981             34.485
 Vibrational            126.497             60.661             53.195
 Vibration     1          0.594              1.982              5.524
 Vibration     2          0.598              1.970              4.251
 Vibration     3          0.600              1.961              3.840
 Vibration     4          0.603              1.953              3.555
 Vibration     5          0.609              1.931              3.072
 Vibration     6          0.615              1.911              2.779
 Vibration     7          0.620              1.896              2.601
 Vibration     8          0.629              1.868              2.336
 Vibration     9          0.643              1.823              2.029
 Vibration    10          0.653              1.794              1.871
 Vibration    11          0.660              1.771              1.764
 Vibration    12          0.690              1.682              1.442
 Vibration    13          0.690              1.680              1.436
 Vibration    14          0.717              1.602              1.228
 Vibration    15          0.733              1.559              1.131
 Vibration    16          0.764              1.477              0.974
 Vibration    17          0.774              1.450              0.929
 Vibration    18          0.792              1.404              0.857
 Vibration    19          0.797              1.390              0.836
 Vibration    20          0.804              1.373              0.813
 Vibration    21          0.817              1.340              0.767
 Vibration    22          0.842              1.280              0.693
 Vibration    23          0.847              1.269              0.680
 Vibration    24          0.848              1.268              0.679
 Vibration    25          0.891              1.171              0.574
 Vibration    26          0.891              1.169              0.573
 Vibration    27          0.906              1.138              0.543
 Vibration    28          0.955              1.037              0.454
 Vibration    29          0.980              0.990              0.416

 Optimization completed.
    -- Stationary point found.
 Normal termination of Gaussian 16 at Sun Feb 11 00:55:19 2024.
