 Q-Chem 5.4, Q-Chem, Inc., Pleasanton, CA (2021)
 Q-Chem 5.4.0 for Intel X86 EM64T Linux

User input:
--------------------------------------------------------------
$molecule
0 1
C                  3.7410120000     -1.0412110000     -0.3257780000
C                  2.4551920000     -0.2913390000     -0.0832080000
C                  2.4688250000      1.0971430000      0.1264620000
C                  1.2945250000      1.8022480000      0.3524160000
C                  0.0683760000      1.1331300000      0.3746250000
C                 -1.1936880000      1.8839550000      0.6164870000
O                 -1.2068330000      3.0920880000      0.8018900000
C                 -2.4534850000      1.1102010000      0.6258870000
C                 -2.5149320000     -0.2198920000      0.4295840000
C                 -3.7944550000     -0.9993400000      0.4401490000
C                 -1.2567400000     -0.9969230000      0.1840940000
O                 -1.3070420000     -2.2031990000      0.0053190000
C                  0.0372150000     -0.2539650000      0.1666850000
C                  1.2263940000     -0.9515660000     -0.0596230000
H                  4.2622340000     -0.6523170000     -1.2057420000
H                  4.4214410000     -0.9381180000      0.5250540000
H                  3.5581580000     -2.1050330000     -0.4842400000
H                  3.4155400000      1.6279460000      0.1112870000
H                  1.3049920000      2.8733620000      0.5141460000
H                 -3.3486020000      1.6974880000      0.8057370000
H                 -3.7629650000     -1.7782180000      1.2070130000
H                 -4.6491050000     -0.3479460000      0.6258670000
H                 -3.9369040000     -1.5160110000     -0.5129960000
H                  1.1708450000     -2.0224830000     -0.2171800000
$end

$rem
BASIS  =  6-311++G(d,p)
GUI  =  2
JOB_TYPE  =  SP
METHOD  =  B3LYP
SCF_CONVERGENCE  = 8
SOLVENT_METHOD = sm12
$end

$smx
solvent dimethylformamide
charges CM5
$end

--------------------------------------------------------------

             Standard Nuclear Orientation (Angstroms)
    I     Atom           X                Y                Z
 ----------------------------------------------------------------
    1      C       3.7410120000    -1.0412110000    -0.3257780000
    2      C       2.4551920000    -0.2913390000    -0.0832080000
    3      C       2.4688250000     1.0971430000     0.1264620000
    4      C       1.2945250000     1.8022480000     0.3524160000
    5      C       0.0683760000     1.1331300000     0.3746250000
    6      C      -1.1936880000     1.8839550000     0.6164870000
    7      O      -1.2068330000     3.0920880000     0.8018900000
    8      C      -2.4534850000     1.1102010000     0.6258870000
    9      C      -2.5149320000    -0.2198920000     0.4295840000
   10      C      -3.7944550000    -0.9993400000     0.4401490000
   11      C      -1.2567400000    -0.9969230000     0.1840940000
   12      O      -1.3070420000    -2.2031990000     0.0053190000
   13      C       0.0372150000    -0.2539650000     0.1666850000
   14      C       1.2263940000    -0.9515660000    -0.0596230000
   15      H       4.2622340000    -0.6523170000    -1.2057420000
   16      H       4.4214410000    -0.9381180000     0.5250540000
   17      H       3.5581580000    -2.1050330000    -0.4842400000
   18      H       3.4155400000     1.6279460000     0.1112870000
   19      H       1.3049920000     2.8733620000     0.5141460000
   20      H      -3.3486020000     1.6974880000     0.8057370000
   21      H      -3.7629650000    -1.7782180000     1.2070130000
   22      H      -4.6491050000    -0.3479460000     0.6258670000
   23      H      -3.9369040000    -1.5160110000    -0.5129960000
   24      H       1.1708450000    -2.0224830000    -0.2171800000
 ----------------------------------------------------------------

   15    -613.9181020508      3.54e-09  Convergence criterion met
 Total energy in the final basis set =     -613.9360703434

                    Orbital Energies (a.u.)
 --------------------------------------------------------------

 Alpha MOs
 -- Occupied --
-19.1339 -19.1283 -10.2813 -10.2776 -10.2179 -10.2065 -10.2059 -10.2032
-10.2014 -10.1961 -10.1936 -10.1934 -10.1734 -10.1702  -1.0666  -1.0599
 -0.8900  -0.8473  -0.7982  -0.7775  -0.7345  -0.7028  -0.6812  -0.6299
 -0.6169  -0.5865  -0.5389  -0.5182  -0.4988  -0.4692  -0.4617  -0.4585
 -0.4529  -0.4481  -0.4286  -0.4209  -0.4208  -0.4108  -0.4050  -0.3954
 -0.3892  -0.3721  -0.3649  -0.3622  -0.2956  -0.2851  -0.2770  -0.2726
 -0.2677

          Ground-State Mulliken Net Atomic Charges

     Atom                 Charge (a.u.)
  ----------------------------------------
      1 C                     0.450206
      2 C                     1.096150
      3 C                     0.297151
      4 C                    -0.182695
      5 C                    -0.184335
      6 C                    -1.487043
      7 O                    -0.326314
      8 C                    -0.216650
      9 C                     1.296683
     10 C                     0.394666
     11 C                    -1.354146
     12 O                    -0.260433
     13 C                    -0.995741
     14 C                    -0.683806
     15 H                     0.210922
     16 H                     0.211762
     17 H                     0.245770
     18 H                     0.306699
     19 H                     0.180989
     20 H                     0.238718
     21 H                     0.189976
     22 H                     0.257723
     23 H                     0.190105
     24 H                     0.123641
  ----------------------------------------
  Sum of atomic charges =     0.000000

                    Cartesian Multipole Moments
 -----------------------------------------------------------------
    Charge (ESU x 10^10)
                 0.0000
    Dipole Moment (Debye)
         X       1.9225      Y      -1.2283      Z      -0.3783
       Tot       2.3125
    Quadrupole Moments (Debye-Ang)
        XX     -60.6792     XY       1.8209     YY     -97.5048
        XZ      -1.5401     YZ      -2.6854     ZZ     -83.1088

 Total job time:  364.12s(wall), 2796.91s(cpu)
        *  Thank you very much for using Q-Chem.  Have a nice day.  *
