 Q-Chem 5.4, Q-Chem, Inc., Pleasanton, CA (2021)
 Q-Chem 5.4.0 for Intel X86 EM64T Linux

User input:
--------------------------------------------------------------
$molecule
-3 1
C                  5.0501380000     -2.8934330000     -0.3568480000
C                  5.8212790000     -2.0439660000     -1.1246940000
C                  5.2650520000     -0.8212910000     -1.5965520000
C                  3.7072170000     -2.5913600000     -0.0153310000
C                  3.1527870000     -1.3371840000     -0.4687320000
C                  3.9657320000     -0.4925660000     -1.2713610000
C                  2.9362350000     -3.5160190000      0.7755660000
C                  1.5821840000     -3.1341760000      1.1117690000
C                  1.0392840000     -1.8787770000      0.6578560000
C                  1.8126910000     -0.9528810000     -0.1335900000
C                  0.7675680000     -4.0215610000      1.9071620000
C                 -0.5432510000     -3.6617940000      2.2295830000
C                 -0.3082010000     -1.5567960000      1.0141700000
C                 -1.0619740000     -2.4297230000      1.7749270000
O                  3.4486960000     -4.6431160000      1.1766470000
O                  1.3050690000      0.1828300000     -0.5381670000
O                  1.2963610000     -5.1887650000      2.3259370000
H                  5.4488500000     -3.8326530000      0.0122350000
H                  6.8491760000     -2.3026680000     -1.3757790000
H                  5.8698840000     -0.1527780000     -2.2089780000
H                  2.2394320000     -5.1880630000      1.9521710000
O                 -0.8555140000     -0.3725450000      0.5951600000
H                 -2.0803100000     -2.1729910000      2.0363430000
H                 -0.0992700000      0.0621680000      0.0685150000
H                  3.5184490000      0.4338650000     -1.6163700000
S                 -1.6602240000     -4.7206970000      3.2378390000
O                 -1.8308010000     -6.0063670000      2.4993230000
O                 -1.0201490000     -4.8830410000      4.5763590000
O                 -2.9399690000     -3.9412650000      3.3158120000
$end

$rem
BASIS  =  6-311++G(d,p)
GUI  =  2
JOB_TYPE  =  SP
METHOD  =  B3LYP
SCF_CONVERGENCE  = 8
SOLVENT_METHOD = sm12
$end

$smx
solvent dimethylformamide
charges CM5
$end

--------------------------------------------------------------

             Standard Nuclear Orientation (Angstroms)
    I     Atom           X                Y                Z
 ----------------------------------------------------------------
    1      C       5.0501380000    -2.8934330000    -0.3568480000
    2      C       5.8212790000    -2.0439660000    -1.1246940000
    3      C       5.2650520000    -0.8212910000    -1.5965520000
    4      C       3.7072170000    -2.5913600000    -0.0153310000
    5      C       3.1527870000    -1.3371840000    -0.4687320000
    6      C       3.9657320000    -0.4925660000    -1.2713610000
    7      C       2.9362350000    -3.5160190000     0.7755660000
    8      C       1.5821840000    -3.1341760000     1.1117690000
    9      C       1.0392840000    -1.8787770000     0.6578560000
   10      C       1.8126910000    -0.9528810000    -0.1335900000
   11      C       0.7675680000    -4.0215610000     1.9071620000
   12      C      -0.5432510000    -3.6617940000     2.2295830000
   13      C      -0.3082010000    -1.5567960000     1.0141700000
   14      C      -1.0619740000    -2.4297230000     1.7749270000
   15      O       3.4486960000    -4.6431160000     1.1766470000
   16      O       1.3050690000     0.1828300000    -0.5381670000
   17      O       1.2963610000    -5.1887650000     2.3259370000
   18      H       5.4488500000    -3.8326530000     0.0122350000
   19      H       6.8491760000    -2.3026680000    -1.3757790000
   20      H       5.8698840000    -0.1527780000    -2.2089780000
   21      H       2.2394320000    -5.1880630000     1.9521710000
   22      O      -0.8555140000    -0.3725450000     0.5951600000
   23      H      -2.0803100000    -2.1729910000     2.0363430000
   24      H      -0.0992700000     0.0621680000     0.0685150000
   25      H       3.5184490000     0.4338650000    -1.6163700000
   26      S      -1.6602240000    -4.7206970000     3.2378390000
   27      O      -1.8308010000    -6.0063670000     2.4993230000
   28      O      -1.0201490000    -4.8830410000     4.5763590000
   29      O      -2.9399690000    -3.9412650000     3.3158120000
 ----------------------------------------------------------------

   16   -1462.6720640646      8.63e-09  Convergence criterion met
 Total energy in the final basis set =    -1463.1968824324

                    Orbital Energies (a.u.)
 --------------------------------------------------------------

 Alpha MOs
 -- Occupied --
-89.0155 -19.1024 -19.1010 -19.0584 -19.0577 -19.0576 -19.0481 -19.0466
-10.2146 -10.2062 -10.1986 -10.1958 -10.1738 -10.1729 -10.1707 -10.1706
-10.1636 -10.1589 -10.1573 -10.1566 -10.1562 -10.1468  -8.0736  -6.0365
 -6.0362  -6.0354  -1.0717  -1.0256  -1.0188  -0.9601  -0.9550  -0.9353
 -0.9338  -0.8476  -0.8251  -0.7721  -0.7455  -0.7290  -0.7108  -0.6580
 -0.6319  -0.6192  -0.5865  -0.5606  -0.5552  -0.5243  -0.5090  -0.4879
 -0.4830  -0.4641  -0.4541  -0.4447  -0.4223  -0.4214  -0.4203  -0.4128
 -0.4100  -0.4025  -0.3933  -0.3888  -0.3784  -0.3757  -0.3712  -0.3549
 -0.3453  -0.3377  -0.3311  -0.3280  -0.3182  -0.3000  -0.2971  -0.2849
 -0.2656  -0.2638  -0.2567  -0.2505  -0.2419  -0.2301  -0.2281  -0.2195
 -0.2166  -0.1892  -0.1206

          Ground-State Mulliken Net Atomic Charges

     Atom                 Charge (a.u.)
  ----------------------------------------
      1 C                     1.003350
      2 C                     1.787321
      3 C                     2.271750
      4 C                    -1.012461
      5 C                    -1.488507
      6 C                     0.995394
      7 C                    -1.396596
      8 C                    -0.853264
      9 C                    -0.489584
     10 C                    -1.927283
     11 C                    -1.231232
     12 C                    -0.940934
     13 C                    -0.639875
     14 C                    -0.502973
     15 O                    -0.348744
     16 O                    -0.314055
     17 O                    -0.228935
     18 H                     0.182758
     19 H                     0.428073
     20 H                     0.455250
     21 H                     0.437835
     22 O                    -0.210777
     23 H                     0.100607
     24 H                     0.427106
     25 H                     0.209569
     26 S                     1.094251
     27 O                    -0.264035
     28 O                    -0.266877
     29 O                    -0.277132
  ----------------------------------------
  Sum of atomic charges =    -3.000000

                    Cartesian Multipole Moments
 -----------------------------------------------------------------
    Charge (ESU x 10^10)
               -14.4096
    Dipole Moment (Debye)
         X      -7.4795      Y      46.7548      Z     -22.9245
       Tot      52.6069
    Quadrupole Moments (Debye-Ang)
        XX    -251.6066     XY      -1.2271     YY    -373.2736
        XZ      37.5110     YZ     118.6988     ZZ    -236.6944

 Total job time:  828.62s(wall), 6374.18s(cpu)
        *  Thank you very much for using Q-Chem.  Have a nice day.  *
