 Q-Chem 5.4, Q-Chem, Inc., Pleasanton, CA (2021)
 Q-Chem 5.4.0 for Intel X86 EM64T Linux

User input:
--------------------------------------------------------------
$molecule
-1 2
C                 -3.1498000000      1.4230710000      0.1950880000
C                 -2.4122320000      0.6542510000     -0.9177600000
C                 -1.0496530000      0.1562340000     -0.4895070000
C                 -0.8596900000     -1.1291870000      0.0083500000
C                 -2.0039080000     -2.1091500000      0.1350010000
C                  0.4438140000     -1.6080180000      0.4260590000
O                  0.6274130000     -2.7750580000      0.8737030000
C                  1.5644490000     -0.6629370000      0.3074760000
C                  2.8593610000     -1.0596530000      0.6973850000
C                  3.9321240000     -0.1916790000      0.5964830000
C                  3.7369190000      1.1114370000      0.0972130000
C                  2.4725230000      1.5187340000     -0.2898240000
C                  1.3684020000      0.6485440000     -0.1943820000
C                  0.0359150000      1.1069870000     -0.6120520000
O                 -0.1425570000      2.2766420000     -1.0548660000
H                 -4.1247860000      1.7857080000     -0.1532350000
H                 -2.5565380000      2.2856550000      0.5070380000
H                 -3.3178260000      0.7895910000      1.0719900000
H                 -3.0349500000     -0.1790940000     -1.2570070000
H                 -2.2731450000      1.3335510000     -1.7633220000
H                 -1.6452650000     -3.0095740000      0.6342760000
H                 -2.8405970000     -1.6948800000      0.7086170000
H                 -2.4019580000     -2.3991670000     -0.8460910000
H                  2.9790780000     -2.0678080000      1.0774000000
H                  4.9240420000     -0.5132890000      0.9013390000
H                  4.5782320000      1.7940550000      0.0173530000
H                  2.2906350000      2.5150360000     -0.6767250000
$end

$rem
BASIS  =  6-311++G(d,p)
GUI  =  2
JOB_TYPE  =  SP
METHOD  =  B3LYP
SCF_CONVERGENCE  = 8
SOLVENT_METHOD = sm12
$end

$smx
solvent dimethylformamide
charges CM5
$end

--------------------------------------------------------------

             Standard Nuclear Orientation (Angstroms)
    I     Atom           X                Y                Z
 ----------------------------------------------------------------
    1      C      -3.1498000000     1.4230710000     0.1950880000
    2      C      -2.4122320000     0.6542510000    -0.9177600000
    3      C      -1.0496530000     0.1562340000    -0.4895070000
    4      C      -0.8596900000    -1.1291870000     0.0083500000
    5      C      -2.0039080000    -2.1091500000     0.1350010000
    6      C       0.4438140000    -1.6080180000     0.4260590000
    7      O       0.6274130000    -2.7750580000     0.8737030000
    8      C       1.5644490000    -0.6629370000     0.3074760000
    9      C       2.8593610000    -1.0596530000     0.6973850000
   10      C       3.9321240000    -0.1916790000     0.5964830000
   11      C       3.7369190000     1.1114370000     0.0972130000
   12      C       2.4725230000     1.5187340000    -0.2898240000
   13      C       1.3684020000     0.6485440000    -0.1943820000
   14      C       0.0359150000     1.1069870000    -0.6120520000
   15      O      -0.1425570000     2.2766420000    -1.0548660000
   16      H      -4.1247860000     1.7857080000    -0.1532350000
   17      H      -2.5565380000     2.2856550000     0.5070380000
   18      H      -3.3178260000     0.7895910000     1.0719900000
   19      H      -3.0349500000    -0.1790940000    -1.2570070000
   20      H      -2.2731450000     1.3335510000    -1.7633220000
   21      H      -1.6452650000    -3.0095740000     0.6342760000
   22      H      -2.8405970000    -1.6948800000     0.7086170000
   23      H      -2.4019580000    -2.3991670000    -0.8460910000
   24      H       2.9790780000    -2.0678080000     1.0774000000
   25      H       4.9240420000    -0.5132890000     0.9013390000
   26      H       4.5782320000     1.7940550000     0.0173530000
   27      H       2.2906350000     2.5150360000    -0.6767250000
 ----------------------------------------------------------------

   16    -653.3063793965      7.35e-09  Convergence criterion met
 Total energy in the final basis set =     -653.3913009961

                    Orbital Energies (a.u.)
 --------------------------------------------------------------

 Alpha MOs
 -- Occupied --
-19.0740 -19.0734 -10.2202 -10.2194 -10.1821 -10.1816 -10.1778 -10.1777
-10.1774 -10.1770 -10.1737 -10.1699 -10.1687 -10.1638 -10.1628  -0.9983
 -0.9959  -0.8631  -0.8241  -0.7724  -0.7560  -0.7509  -0.7001  -0.6633
 -0.6383  -0.6037  -0.5852  -0.5564  -0.5199  -0.4961  -0.4697  -0.4615
 -0.4425  -0.4330  -0.4288  -0.4201  -0.4120  -0.4080  -0.4027  -0.3868
 -0.3841  -0.3754  -0.3667  -0.3641  -0.3527  -0.3472  -0.3364  -0.3352
 -0.2706  -0.2627  -0.2478  -0.2440  -0.2333  -0.1521

 Beta MOs
 -- Occupied --
-19.0674 -19.0670 -10.2188 -10.2180 -10.1818 -10.1812 -10.1777 -10.1777
-10.1769 -10.1764 -10.1723 -10.1689 -10.1685 -10.1636 -10.1629  -0.9871
 -0.9844  -0.8611  -0.8202  -0.7703  -0.7544  -0.7490  -0.6972  -0.6572
 -0.6364  -0.6026  -0.5823  -0.5539  -0.5179  -0.4939  -0.4671  -0.4606
 -0.4395  -0.4325  -0.4241  -0.4180  -0.4091  -0.4026  -0.3959  -0.3844
 -0.3793  -0.3742  -0.3636  -0.3504  -0.3441  -0.3398  -0.3337  -0.3327
 -0.2561  -0.2493  -0.2382  -0.2347  -0.2273

          Ground-State Mulliken Net Atomic Charges

     Atom                 Charge (a.u.)    Spin (a.u.)
  --------------------------------------------------------
      1 C                    -0.288017       0.009784
      2 C                     0.557544      -0.000435
      3 C                     0.303481       0.103472
      4 C                     0.078597       0.105166
      5 C                     0.395324       0.000915
      6 C                    -1.566622       0.075562
      7 O                    -0.321371       0.245201
      8 C                    -1.054841       0.015868
      9 C                    -0.068425       0.028332
     10 C                     0.892812       0.026244
     11 C                     0.863575       0.026376
     12 C                    -0.118887       0.028693
     13 C                    -1.114508       0.013553
     14 C                    -1.810066       0.076047
     15 O                    -0.296340       0.240823
     16 H                     0.243722       0.001921
     17 H                     0.136379      -0.000549
     18 H                     0.116971      -0.000910
     19 H                     0.240136       0.001176
     20 H                     0.150737       0.002421
     21 H                     0.178655      -0.001598
     22 H                     0.233548       0.004789
     23 H                     0.212368       0.005894
     24 H                     0.156420      -0.002232
     25 H                     0.359955      -0.002128
     26 H                     0.359168      -0.002131
     27 H                     0.159683      -0.002256
  --------------------------------------------------------
  Sum of atomic charges =    -1.000000

                    Cartesian Multipole Moments
 -----------------------------------------------------------------
    Charge (ESU x 10^10)
                -4.8032
    Dipole Moment (Debye)
         X      -2.0039      Y       1.0047      Z       0.2430
       Tot       2.2548
    Quadrupole Moments (Debye-Ang)
        XX     -97.3358     XY       5.0499     YY    -122.7041
        XZ      -0.8632     YZ      10.0041     ZZ     -99.7693

 Total job time:  562.99s(wall), 4379.65s(cpu)
        *  Thank you very much for using Q-Chem.  Have a nice day.  *
