 Gaussian 16, Revision A.03,
 Gaussian 16:  ES64L-G16RevA.03 25-Dec-2016

 --------------------------------------
 #P UB3LYP/6-311++G(d,p) nosym opt freq
 --------------------------------------

 --------
 Oxidized
 --------
 Symbolic Z-matrix:
 Charge =  0 Multiplicity = 1

 SCF Done:  E(UB3LYP) =  -953.966480719     A.U. after   18 cycles
 SCF Done:  E(UB3LYP) =  -953.999004015     A.U. after   16 cycles
 SCF Done:  E(UB3LYP) =  -954.006918612     A.U. after   14 cycles
 SCF Done:  E(UB3LYP) =  -954.008242571     A.U. after   13 cycles
 SCF Done:  E(UB3LYP) =  -954.008289180     A.U. after   12 cycles
 SCF Done:  E(UB3LYP) =  -954.008293512     A.U. after   11 cycles
 SCF Done:  E(UB3LYP) =  -954.008294157     A.U. after    9 cycles
 Optimization completed.
    -- Stationary point found.
 Normal termination of Gaussian 16 at Thu Dec 21 19:52:37 2023.

 ----------------------------------------------------------------------
 #P Geom=AllCheck Guess=TCheck SCRF=Check GenChk UB3LYP/6-311++G(d,p) F
 req
 ----------------------------------------------------------------------

 Structure from the checkpoint file:  "203.chk"
 --------
 Oxidized
 --------
 Charge =  0 Multiplicity = 1

                          Input orientation:
 ---------------------------------------------------------------------
 Center     Atomic      Atomic             Coordinates (Angstroms)
 Number     Number       Type             X           Y           Z
 ---------------------------------------------------------------------
      1          6           0        4.637664    1.281724   -0.553423
      2          6           0        3.335904    0.601771   -0.211888
      3          6           0        3.319171   -0.641592    0.414108
      4          6           0        2.127037   -1.310660    0.717464
      5          8           0        2.174322   -2.518876    1.328885
      6          6           0        0.882356   -0.725290    0.388659
      7          6           0       -0.415270   -1.408688    0.697669
      8          8           0       -0.439009   -2.497925    1.240211
      9          6           0       -1.674791   -0.702905    0.313769
     10          6           0       -2.953363   -1.266083    0.563089
     11          8           0       -3.054559   -2.474175    1.164083
     12          6           0       -4.112759   -0.582712    0.192660
     13          6           0       -4.040349    0.660440   -0.426717
     14          8           0       -5.217443    1.260420   -0.756012
     15          6           0       -2.800982    1.236950   -0.683843
     16          6           0       -1.643185    0.557839   -0.315418
     17          6           0       -0.346686    1.232825   -0.619971
     18          8           0       -0.326757    2.325880   -1.164687
     19          6           0        0.914776    0.536608   -0.241919
     20          6           0        2.111625    1.186502   -0.534342
     21          1           0        5.448799    0.947490    0.096920
     22          1           0        4.550563    2.366574   -0.464244
     23          1           0        4.928520    1.060957   -1.586037
     24          1           0        4.259599   -1.117399    0.683107
     25          1           0        3.096645   -2.758740    1.474908
     26          1           0       -3.986693   -2.703173    1.254842
     27          1           0       -5.088634   -1.016651    0.385128
     28          1           0       -5.043811    2.110004   -1.176243
     29          1           0       -2.706516    2.203845   -1.164592
     30          1           0        2.063825    2.155036   -1.016168
 ---------------------------------------------------------------------

 SCF Done:  E(UB3LYP) =  -954.008294157     A.U. after    2 cycles

 Alpha  occ. eigenvalues --  -19.17873 -19.16890 -19.16737 -19.12138 -19.09967
 Alpha  occ. eigenvalues --  -10.27424 -10.26661 -10.26439 -10.26380 -10.26238
 Alpha  occ. eigenvalues --  -10.20873 -10.20831 -10.20318 -10.20037 -10.19904
 Alpha  occ. eigenvalues --  -10.19506 -10.19425 -10.18945 -10.18415 -10.18414
 Alpha  occ. eigenvalues --   -1.09172  -1.08692  -1.08473  -1.05641  -1.03675
 Alpha  occ. eigenvalues --   -0.88710  -0.87688  -0.81630  -0.78333  -0.76886
 Alpha  occ. eigenvalues --   -0.76692  -0.72088  -0.68821  -0.66826  -0.64582
 Alpha  occ. eigenvalues --   -0.63055  -0.60595  -0.58966  -0.56821  -0.53221
 Alpha  occ. eigenvalues --   -0.52776  -0.52489  -0.50367  -0.49285  -0.47442
 Alpha  occ. eigenvalues --   -0.46720  -0.45945  -0.44505  -0.44453  -0.44042
 Alpha  occ. eigenvalues --   -0.42997  -0.42930  -0.41879  -0.41783  -0.41589
 Alpha  occ. eigenvalues --   -0.40785  -0.39642  -0.38583  -0.38552  -0.38291
 Alpha  occ. eigenvalues --   -0.37501  -0.36980  -0.34671  -0.33111  -0.27475
 Alpha  occ. eigenvalues --   -0.27412  -0.26298  -0.24617  -0.24448  -0.24299
 Alpha virt. eigenvalues --   -0.10536  -0.05448  -0.03182  -0.01821  -0.01650
 Alpha virt. eigenvalues --   -0.01127  -0.01005  -0.00187   0.01609   0.02136
 Alpha virt. eigenvalues --    0.03014   0.03278   0.03536   0.04203   0.04525

  Beta  occ. eigenvalues --  -19.17873 -19.16890 -19.16737 -19.12138 -19.09967
  Beta  occ. eigenvalues --  -10.27424 -10.26661 -10.26439 -10.26380 -10.26238
  Beta  occ. eigenvalues --  -10.20873 -10.20831 -10.20318 -10.20037 -10.19904
  Beta  occ. eigenvalues --  -10.19506 -10.19425 -10.18945 -10.18415 -10.18414
  Beta  occ. eigenvalues --   -1.09172  -1.08692  -1.08473  -1.05641  -1.03675
  Beta  occ. eigenvalues --   -0.88710  -0.87688  -0.81630  -0.78333  -0.76886
  Beta  occ. eigenvalues --   -0.76692  -0.72088  -0.68821  -0.66826  -0.64582
  Beta  occ. eigenvalues --   -0.63055  -0.60595  -0.58966  -0.56821  -0.53221
  Beta  occ. eigenvalues --   -0.52776  -0.52489  -0.50367  -0.49285  -0.47442
  Beta  occ. eigenvalues --   -0.46720  -0.45945  -0.44505  -0.44453  -0.44042
  Beta  occ. eigenvalues --   -0.42997  -0.42930  -0.41879  -0.41783  -0.41589
  Beta  occ. eigenvalues --   -0.40785  -0.39642  -0.38583  -0.38552  -0.38291
  Beta  occ. eigenvalues --   -0.37501  -0.36980  -0.34671  -0.33111  -0.27475
  Beta  occ. eigenvalues --   -0.27412  -0.26298  -0.24617  -0.24448  -0.24299
  Beta virt. eigenvalues --   -0.10536  -0.05448  -0.03182  -0.01821  -0.01650
  Beta virt. eigenvalues --   -0.01127  -0.01005  -0.00187   0.01609   0.02136
  Beta virt. eigenvalues --    0.03014   0.03278   0.03536   0.04203   0.04525

 Mulliken charges and spin densities:
               1          2
     1  C   -0.281442  -0.000000
     2  C    0.542922   0.000000
     3  C   -0.643550  -0.000000
     4  C   -0.008694   0.000000
     5  O   -0.140264   0.000000
     6  C   -0.064559  -0.000000
     7  C   -0.479940   0.000000
     8  O   -0.206167   0.000000
     9  C   -0.141991  -0.000000
    10  C    0.170051  -0.000000
    11  O   -0.139744   0.000000
    12  C    0.066756   0.000000
    13  C   -0.710558  -0.000000
    14  O   -0.225538  -0.000000
    15  C    0.171592   0.000000
    16  C    0.754951   0.000000
    17  C   -0.935344   0.000000
    18  O   -0.198261   0.000000
    19  C    0.548650  -0.000000
    20  C    0.056973  -0.000000
    21  H    0.151699  -0.000000
    22  H    0.159388  -0.000000
    23  H    0.184167   0.000000
    24  H    0.093674   0.000000
    25  H    0.260833   0.000000
    26  H    0.266363   0.000000
    27  H    0.162849   0.000000
    28  H    0.278133  -0.000000
    29  H    0.152115  -0.000000
    30  H    0.154936  -0.000000
 Sum of Mulliken charges =  -0.00000   0.00000

 Dipole moment (field-independent basis, Debye):
    X=              1.2392    Y=              1.1212    Z=             -0.5792  Tot=              1.7687
 Quadrupole moment (field-independent basis, Debye-Ang):
   XX=            -78.5005   YY=           -119.5571   ZZ=           -117.3123
   XY=             -3.4435   XZ=              2.4829   YZ=              1.2003

  Exact polarizability: 298.873   0.530 196.426   4.074 -51.177 120.822
 Approx polarizability: 413.943  -5.778 372.317   8.537-110.090 209.279

 ******    1 imaginary frequencies (negative Signs) ******

                      1                      2                      3
                      A                      A                      A
 Frequencies --     -7.0521                31.6208                44.7058
 Red. masses --      8.1970                 1.0272                 5.9825
 Frc consts  --      0.0002                 0.0006                 0.0070
 IR Inten    --      8.7909                 0.3074                 0.0260

                      4                      5                      6
                      A                      A                      A
 Frequencies --     58.2915               131.7623               157.1501
 Red. masses --      8.3272                 7.0880                 5.3910
 Frc consts  --      0.0167                 0.0725                 0.0784
 IR Inten    --      0.0620                 0.1228                 0.4590

                      7                      8                      9
                      A                      A                      A
 Frequencies --    159.6913               210.3989               214.0235
 Red. masses --      5.3995                 4.1606                 4.5083
 Frc consts  --      0.0811                 0.1085                 0.1217
 IR Inten    --      2.2735                 0.1349                 2.9858

                     10                     11                     12
                      A                      A                      A
 Frequencies --    248.3051               258.4615               268.9147
 Red. masses --      4.7388                 4.7780                 6.4346
 Frc consts  --      0.1721                 0.1881                 0.2742
 IR Inten    --      1.7390                 0.6320                 4.3828

                     13                     14                     15
                      A                      A                      A
 Frequencies --    298.6806               325.2228               350.1035
 Red. masses --      2.3611                 5.6619                 1.1629
 Frc consts  --      0.1241                 0.3528                 0.0840
 IR Inten    --      1.6951                 0.2780                31.9990

                     16                     17                     18
                      A                      A                      A
 Frequencies --    358.7578               366.3044               372.5108
 Red. masses --      7.4554                 1.2618                 1.3332
 Frc consts  --      0.5654                 0.0997                 0.1090
 IR Inten    --      1.7661               191.2027                68.7792

                     19                     20                     21
                      A                      A                      A
 Frequencies --    375.1642               403.5646               429.4762
 Red. masses --      5.9761                10.9660                 7.0981
 Frc consts  --      0.4956                 1.0523                 0.7714
 IR Inten    --     15.3307                17.3091                 3.6273

                     22                     23                     24
                      A                      A                      A
 Frequencies --    464.3934               468.6454               510.6578
 Red. masses --     10.4130                 5.9314                 4.6186
 Frc consts  --      1.3231                 0.7675                 0.7096
 IR Inten    --      0.6375                 2.6625                18.4050

                     25                     26                     27
                      A                      A                      A
 Frequencies --    540.7671               552.3038               564.7114
 Red. masses --      4.5367                 8.4295                 6.8484
 Frc consts  --      0.7816                 1.5150                 1.2867
 IR Inten    --      2.1615                 1.3013                 1.1199

                     28                     29                     30
                      A                      A                      A
 Frequencies --    587.8480               611.2384               622.5679
 Red. masses --      4.4413                 5.8323                 4.8236
 Frc consts  --      0.9043                 1.2838                 1.1015
 IR Inten    --      1.8426                12.4611                25.6325

                     31                     32                     33
                      A                      A                      A
 Frequencies --    626.4710               651.5570               713.2988
 Red. masses --      4.3477                 4.1450                 5.3175
 Frc consts  --      1.0053                 1.0368                 1.5940
 IR Inten    --      6.1690                 7.0386                 1.0797

                     34                     35                     36
                      A                      A                      A
 Frequencies --    723.3781               774.8168               783.0429
 Red. masses --      5.6349                 4.9355                 8.6206
 Frc consts  --      1.7373                 1.7457                 3.1143
 IR Inten    --      2.2418                22.3183                47.1323

                     37                     38                     39
                      A                      A                      A
 Frequencies --    804.5455               833.2141               851.8902
 Red. masses --      8.3123                 1.5011                 1.4754
 Frc consts  --      3.1701                 0.6140                 0.6309
 IR Inten    --      0.0057                31.7025                21.8306

                     40                     41                     42
                      A                      A                      A
 Frequencies --    874.1910               892.0125               923.0704
 Red. masses --      1.4540                 6.1437                 1.4069
 Frc consts  --      0.6547                 2.8802                 0.7063
 IR Inten    --      9.6824                47.2065                 3.8943

                     43                     44                     45
                      A                      A                      A
 Frequencies --    954.8523              1009.8319              1035.0105
 Red. masses --      7.7516                 2.2286                 2.6654
 Frc consts  --      4.1640                 1.3390                 1.6823
 IR Inten    --      5.8249                10.7761                11.6292

                     46                     47                     48
                      A                      A                      A
 Frequencies --   1045.8750              1057.3448              1107.9885
 Red. masses --      3.2711                 1.5381                 2.9811
 Frc consts  --      2.1081                 1.0132                 2.1562
 IR Inten    --     54.0342                11.7554                48.9464

                     49                     50                     51
                      A                      A                      A
 Frequencies --   1130.9744              1186.4224              1190.2748
 Red. masses --      4.4909                 1.3856                 2.6914
 Frc consts  --      3.3844                 1.1491                 2.2466
 IR Inten    --    122.9158               144.2642                24.7357

                     52                     53                     54
                      A                      A                      A
 Frequencies --   1193.0527              1207.4796              1218.8957
 Red. masses --      1.7604                 1.3451                 1.4099
 Frc consts  --      1.4764                 1.1555                 1.2342
 IR Inten    --     99.4515                41.5844                96.9459

                     55                     56                     57
                      A                      A                      A
 Frequencies --   1277.4954              1278.6769              1292.4744
 Red. masses --      2.6128                 1.9875                 2.0344
 Frc consts  --      2.5123                 1.9146                 2.0023
 IR Inten    --    517.9421               103.4127               330.4169

                     58                     59                     60
                      A                      A                      A
 Frequencies --   1340.7719              1363.7043              1377.6792
 Red. masses --      7.6054                 8.0401                 5.1088
 Frc consts  --      8.0553                 8.8095                 5.7130
 IR Inten    --     54.2153               140.8184               129.2350

                     61                     62                     63
                      A                      A                      A
 Frequencies --   1395.2840              1415.1907              1441.5013
 Red. masses --      4.0062                 1.2749                 2.9046
 Frc consts  --      4.5952                 1.5044                 3.5561
 IR Inten    --     51.3561                 5.7789                30.1909

                     64                     65                     66
                      A                      A                      A
 Frequencies --   1478.7429              1488.6844              1494.7283
 Red. masses --      3.5261                 1.0796                 1.2035
 Frc consts  --      4.5428                 1.4097                 1.5842
 IR Inten    --     48.3734                 7.6248                18.4184

                     67                     68                     69
                      A                      A                      A
 Frequencies --   1508.8073              1522.9982              1603.6383
 Red. masses --      3.3747                 3.6126                 6.1179
 Frc consts  --      4.5264                 4.9370                 9.2698
 IR Inten    --      1.2375                16.1721                14.2017

                     70                     71                     72
                      A                      A                      A
 Frequencies --   1617.9187              1639.4016              1644.7771
 Red. masses --      6.4092                 6.2418                 6.6814
 Frc consts  --      9.8849                 9.8840                10.6495
 IR Inten    --    210.7254               132.7531               295.0016

                     73                     74                     75
                      A                      A                      A
 Frequencies --   1714.6602              1726.8010              3025.8342
 Red. masses --     12.2444                12.1785                 1.0401
 Frc consts  --     21.2101                21.3958                 5.6107
 IR Inten    --      1.1445               331.9657                22.8932

                     76                     77                     78
                      A                      A                      A
 Frequencies --   3081.8526              3108.2895              3133.6145
 Red. masses --      1.0950                 1.1027                 1.0899
 Frc consts  --      6.1273                 6.2770                 6.3055
 IR Inten    --     15.9292                11.6109                20.9976

                     79                     80                     81
                      A                      A                      A
 Frequencies --   3167.7495              3182.6889              3195.9044
 Red. masses --      1.0911                 1.0908                 1.0906
 Frc consts  --      6.4510                 6.5098                 6.5628
 IR Inten    --      5.1136                10.3030                 2.9321

                     82                     83                     84
                      A                      A                      A
 Frequencies --   3808.1258              3809.7553              3826.9582
 Red. masses --      1.0659                 1.0659                 1.0662
 Frc consts  --      9.1069                 9.1152                 9.2003
 IR Inten    --     62.7874                66.2649                93.5766

 - Thermochemistry -
 -------------------
 Temperature   298.150 Kelvin.  Pressure   1.00000 Atm.
 Atom     1 has atomic number  6 and mass  12.00000

 Molecular mass:   270.05282 amu.
 Principal axes and moments of inertia in atomic units:
                           1         2         3
     Eigenvalues --  2754.019677586.06460**********
           X            0.99953   0.02194  -0.02163
           Y           -0.00991   0.89380   0.44835
           Z            0.02917  -0.44792   0.89360
 This molecule is an asymmetric top.
 Rotational symmetry number  1.
 Warning -- assumption of classical behavior for rotation
           may cause significant error
 Rotational temperatures (Kelvin)      0.03145     0.01142     0.00839
 Rotational constants (GHZ):           0.65531     0.23790     0.17473
    1 imaginary frequencies ignored.
 Zero-point vibrational energy     572655.0 (Joules/Mol)
                                  136.86784 (Kcal/Mol)
 Warning -- explicit consideration of  28 degrees of freedom as
           vibrations may cause significant error
 Vibrational temperatures:     45.50    64.32    83.87   189.58   226.10
          (Kelvin)            229.76   302.72   307.93   357.26   371.87
                              386.91   429.73   467.92   503.72   516.17
                              527.03   535.96   539.78   580.64   617.92
                              668.16   674.28   734.72   778.04   794.64
                              812.49   845.78   879.44   895.74   901.35
                              937.45  1026.28  1040.78  1114.79  1126.62
                             1157.56  1198.81  1225.68  1257.77  1283.41
                             1328.09  1373.82  1452.92  1489.15  1504.78
                             1521.28  1594.15  1627.22  1707.00  1712.54
                             1716.54  1737.29  1753.72  1838.03  1839.73
                             1859.58  1929.07  1962.07  1982.17  2007.50
                             2036.14  2074.00  2127.58  2141.88  2150.58
                             2170.84  2191.25  2307.28  2327.82  2358.73
                             2366.47  2467.01  2484.48  4353.50  4434.10
                             4472.14  4508.57  4557.68  4579.18  4598.19
                             5479.04  5481.39  5506.14

 Zero-point correction=                           0.218113 (Hartree/Particle)
 Thermal correction to Energy=                    0.234262
 Thermal correction to Enthalpy=                  0.235206
 Thermal correction to Gibbs Free Energy=         0.174512
 Sum of electronic and zero-point Energies=           -953.790181
 Sum of electronic and thermal Energies=              -953.774033
 Sum of electronic and thermal Enthalpies=            -953.773088
 Sum of electronic and thermal Free Energies=         -953.833782

                     E (Thermal)             CV                S
                      KCal/Mol        Cal/Mol-Kelvin    Cal/Mol-Kelvin
 Total                  147.001             64.016            127.741
 Electronic               0.000              0.000              0.000
 Translational            0.889              2.981             42.679
 Rotational               0.889              2.981             33.734
 Vibrational            145.224             58.055             51.328
 Vibration     1          0.594              1.983              5.725
 Vibration     2          0.595              1.980              5.039
 Vibration     3          0.596              1.974              4.514
 Vibration     4          0.612              1.922              2.920
 Vibration     5          0.621              1.895              2.584
 Vibration     6          0.622              1.892              2.553
 Vibration     7          0.643              1.825              2.040
 Vibration     8          0.644              1.820              2.009
 Vibration     9          0.662              1.766              1.743
 Vibration    10          0.667              1.748              1.672
 Vibration    11          0.673              1.730              1.603
 Vibration    12          0.692              1.676              1.424
 Vibration    13          0.709              1.625              1.284
 Vibration    14          0.727              1.575              1.166
 Vibration    15          0.734              1.557              1.127
 Vibration    16          0.739              1.542              1.095
 Vibration    17          0.744              1.529              1.069
 Vibration    18          0.746              1.523              1.059
 Vibration    19          0.769              1.462              0.950
 Vibration    20          0.791              1.406              0.860
 Vibration    21          0.822              1.329              0.753
 Vibration    22          0.826              1.320              0.741
 Vibration    23          0.866              1.226              0.632
 Vibration    24          0.896              1.160              0.564
 Vibration    25          0.908              1.135              0.539
 Vibration    26          0.921              1.108              0.515
 Vibration    27          0.945              1.058              0.471
 Vibration    28          0.970              1.008              0.431

                           ! Non-Optimized Parameters !
 Normal termination of Gaussian 16 at Thu Dec 21 21:39:21 2023.
