 Q-Chem 5.4, Q-Chem, Inc., Pleasanton, CA (2021)
 Q-Chem 5.4.0 for Intel X86 EM64T Linux

User input:
--------------------------------------------------------------
$molecule
-2 1
C                  3.8405980000      1.2651240000     -1.3635810000
N                  2.5264580000      1.1715620000     -0.7977580000
C                  2.0623840000      0.0301650000     -0.1740790000
C                  2.9323340000     -0.9767180000      0.2477150000
C                  2.4358240000     -2.1092450000      0.9420900000
C                  1.0918870000     -2.2386750000      1.1986800000
C                  0.1572330000     -1.2594300000      0.7628150000
C                 -1.2459590000     -1.4876150000      1.0551840000
O                 -1.6596420000     -2.5179820000      1.6975960000
C                 -2.1485960000     -0.4661500000      0.5696390000
C                 -3.5406740000     -0.5929080000      0.8039140000
C                 -4.4509120000      0.3437180000      0.3579110000
C                 -3.9889780000      1.4798080000     -0.3655660000
C                 -2.6400310000      1.6321300000     -0.6107740000
C                 -1.6783500000      0.6890340000     -0.1611170000
C                 -0.2832700000      0.9087260000     -0.4479030000
O                  0.0939870000      1.9566700000     -1.1328260000
C                  0.6301160000     -0.0893600000      0.0496700000
H                  4.0959640000      0.4125410000     -2.0239190000
H                  4.6329830000      1.3141270000     -0.5988500000
H                  3.9103240000      2.1799690000     -1.9610380000
H                  1.7341910000      1.7434490000     -1.1541860000
H                  3.9985690000     -0.8750880000      0.0754380000
H                  3.1349290000     -2.8765960000      1.2721450000
H                  0.6876170000     -3.0923420000      1.7309960000
H                 -3.8574560000     -1.4726000000      1.3560070000
H                 -5.5140190000      0.2164770000      0.5555230000
H                 -4.6983680000      2.2244980000     -0.7230940000
H                 -2.2591420000      2.4867100000     -1.1606330000
$end
$rem
MAX_SCF_CYCLES=200
BASIS  =  6-311++G(d,p)
GUI  =  2
JOB_TYPE  =  SP
METHOD  =  B3LYP
SOLVENT_METHOD = COSMO
$end
$solvent
dielectric 37.219
opticaldielectric 1.43
$end

--------------------------------------------------------------

             Standard Nuclear Orientation (Angstroms)
    I     Atom           X                Y                Z
 ----------------------------------------------------------------
    1      C      -4.1523042712     1.8462480938     0.1369056726
    2      N      -2.7924227280     1.5011536730    -0.1589075861
    3      C      -2.3138407837     0.2090078594    -0.0670065369
    4      C      -3.1763752563    -0.8872324562    -0.0138274932
    5      C      -2.6580292253    -2.2069640623     0.0165387132
    6      C      -1.3013103546    -2.4260036465     0.0069065136
    7      C      -0.3769958599    -1.3453965752    -0.0132984455
    8      C       1.0382766864    -1.6667141562     0.0026529500
    9      O       1.4731344750    -2.8734347960     0.0170389882
   10      C       1.9274293187    -0.5250924918     0.0002407404
   11      C       3.3298481917    -0.7297321851     0.0135608311
   12      C       4.2271498374     0.3188457883     0.0209192922
   13      C       3.7403677304     1.6569539018     0.0174072071
   14      C       2.3807434093     1.8898907267     0.0051963586
   15      C       1.4324154511     0.8330260508    -0.0075695850
   16      C       0.0254305709     1.1443298107    -0.0231422200
   17      O      -0.3768193028     2.3883283319    -0.0060628331
   18      C      -0.8722472272     0.0166026917    -0.0439905903
   19      H      -4.5073768472     1.4409360789     1.1053071784
   20      H      -4.8604923820     1.4882916624    -0.6282254127
   21      H      -4.2453487527     2.9363380882     0.1793848960
   22      H      -2.0179881805     2.1879043611    -0.0568914925
   23      H      -4.2496221103    -0.7301997923    -0.0324562265
   24      H      -3.3503955859    -3.0473710396     0.0458063814
   25      H      -0.8798563952    -3.4247912596     0.0253934730
   26      H       3.6652928125    -1.7624300194     0.0188163479
   27      H       5.2988242686     0.1268546741     0.0304373630
   28      H       4.4392616710     2.4918937368     0.0242168022
   29      H       1.9807899137     2.8987334110     0.0037941052
 ----------------------------------------------------------------

   14    -783.6240507214      5.84e-06  Convergence criterion met
 Total energy in the final basis set =     -783.6240507214
    6    -783.8953114963      2.89e-06  Convergence criterion met
 Total energy in the final basis set =     -783.8953114963

                    Orbital Energies (a.u.)
 --------------------------------------------------------------

 Alpha MOs
 -- Occupied --
-19.0328 -19.0259 -14.2864 -10.1898 -10.1816 -10.1798 -10.1768 -10.1504
-10.1499 -10.1477 -10.1474 -10.1461 -10.1442 -10.1394 -10.1381 -10.1370
-10.1338 -10.1315  -0.9522  -0.9450  -0.9028  -0.8279  -0.8106  -0.7527
 -0.7253  -0.7205  -0.7071  -0.6594  -0.6371  -0.6029  -0.5910  -0.5520
 -0.5333  -0.5063  -0.4961  -0.4732  -0.4481  -0.4424  -0.4308  -0.4218
 -0.4204  -0.4096  -0.4002  -0.3840  -0.3810  -0.3754  -0.3678  -0.3599
 -0.3465  -0.3434  -0.3339  -0.3272  -0.3166  -0.3079  -0.3049  -0.2711
 -0.2328  -0.2318  -0.2181  -0.2126  -0.2027  -0.1806  -0.1102

          Ground-State Mulliken Net Atomic Charges

     Atom                 Charge (a.u.)
  ----------------------------------------
      1 C                    -0.396956
      2 N                    -0.310527
      3 C                     0.163405
      4 C                    -0.155743
      5 C                    -0.524014
      6 C                    -0.142944
      7 C                     0.468787
      8 C                    -0.447267
      9 O                    -0.695644
     10 C                     0.089406
     11 C                    -0.048437
     12 C                    -0.504432
     13 C                    -0.544883
     14 C                    -0.030018
     15 C                     0.013898
     16 C                    -0.273323
     17 O                    -0.676960
     18 C                     0.017480
     19 H                     0.148208
     20 H                     0.148219
     21 H                     0.156571
     22 H                     0.400083
     23 H                     0.157974
     24 H                     0.180995
     25 H                     0.141532
     26 H                     0.151081
     27 H                     0.178522
     28 H                     0.179000
     29 H                     0.155987
  ----------------------------------------
  Sum of atomic charges =    -2.000000

                    Cartesian Multipole Moments
 -----------------------------------------------------------------
    Charge (ESU x 10^10)
                -9.6064
    Dipole Moment (Debye)
         X      -5.1250      Y       4.9135      Z       0.4736
       Tot       7.1157
    Quadrupole Moments (Debye-Ang)
        XX    -134.3599     XY       9.1804     YY    -162.6788
        XZ      -1.4426     YZ       1.1103     ZZ    -119.9710

 Total job time:  87.30s(wall), 678.02s(cpu)
        *  Thank you very much for using Q-Chem.  Have a nice day.  *
