 Gaussian 16, Revision A.03,
 Gaussian 16:  ES64L-G16RevA.03 25-Dec-2016

 ----------------------------------------------------------------
 #P UB3LYP/6-311++G(d,p) SCRF=(PCM,Solvent=n,n-DiMethylFormamide)
 ----------------------------------------------------------------

 ------------------
 Radical PCM in DMF
 ------------------
 Symbolic Z-matrix:
 Charge = -1 Multiplicity = 2

                         Standard orientation:
 ---------------------------------------------------------------------
 Center     Atomic      Atomic             Coordinates (Angstroms)
 Number     Number       Type             X           Y           Z
 ---------------------------------------------------------------------
      1          6           0       -0.266828    2.101730   -0.291786
      2          6           0       -1.590965    2.519719   -0.236215
      3          6           0       -2.620036    1.598108   -0.019012
      4          6           0        0.045991    0.736554   -0.121822
      5          6           0       -0.998195   -0.199834    0.081617
      6          6           0       -2.335599    0.248691    0.120820
      7          6           0        1.470382    0.319104   -0.170205
      8          6           0        1.730609   -1.097191    0.010889
      9          6           0        0.687620   -1.997933    0.201205
     10          6           0       -0.687807   -1.627461    0.282515
     11          8           0        2.342729    1.185494   -0.371204
     12          8           0       -1.601310   -2.459063    0.530172
     13          1           0       -3.649164    1.938115    0.023188
     14          1           0        0.905396   -3.049465    0.337275
     15          6           0       -3.490339   -0.692681    0.313870
     16          8           0       -4.152177   -0.773069    1.322662
     17          8           0       -3.807624   -1.323539   -0.839084
     18          6           0       -4.770713   -2.376676   -0.716421
     19          1           0       -1.827970    3.568365   -0.378597
     20          1           0       -4.911786   -2.764047   -1.724542
     21          1           0       -5.714201   -2.001595   -0.314120
     22          1           0       -4.374856   -3.154388   -0.060612
     23          6           0        3.127138   -1.580380    0.041255
     24          8           0        4.117488   -0.960656    0.356465
     25          8           0        3.210052   -2.908364   -0.318223
     26          6           0        0.745317    3.179203   -0.621060
     27          8           0        0.846569    3.626795   -1.736041
     28          8           0        1.355428    3.831447    0.402710
     29          6           0        1.452100    3.229530    1.700094
     30          6           0        4.517703   -3.476273   -0.248839
     31          1           0        1.799314    4.022420    2.362725
     32          1           0        2.175789    2.414786    1.672944
     33          1           0        0.483245    2.863056    2.047819
     34          1           0        4.404953   -4.513755   -0.563260
     35          1           0        4.913400   -3.429768    0.769033
     36          1           0        5.208367   -2.951346   -0.912938
 ---------------------------------------------------------------------

 SCF Done:  E(UB3LYP) =  -1219.23360020     A.U. after   19 cycles

 The electronic state is 2-A.
 Alpha  occ. eigenvalues --  -19.17084 -19.16979 -19.16463 -19.12233 -19.11937
 Alpha  occ. eigenvalues --  -19.11512 -19.09739 -19.09472 -10.31861 -10.31579
 Alpha  occ. eigenvalues --  -10.30511 -10.24968 -10.23808 -10.22069 -10.22021
 Alpha  occ. eigenvalues --  -10.21872 -10.20969 -10.20713 -10.20155 -10.20095
 Alpha  occ. eigenvalues --  -10.19707 -10.19632 -10.19131 -10.18284  -1.11476
 Alpha  occ. eigenvalues --   -1.10939  -1.10587  -1.03222  -1.03090  -1.03037
 Alpha  occ. eigenvalues --   -1.02029  -1.01883  -0.88768  -0.83272  -0.80071
 Alpha  occ. eigenvalues --   -0.77605  -0.73633  -0.72679  -0.72400  -0.69900
 Alpha  occ. eigenvalues --   -0.66640  -0.64806  -0.61786  -0.58934  -0.57239
 Alpha  occ. eigenvalues --   -0.55783  -0.54132  -0.53039  -0.52473  -0.50729
 Alpha  occ. eigenvalues --   -0.49841  -0.48899  -0.48557  -0.48354  -0.48263
 Alpha  occ. eigenvalues --   -0.48151  -0.46984  -0.46091  -0.45031  -0.43808
 Alpha  occ. eigenvalues --   -0.43544  -0.42857  -0.42546  -0.41909  -0.41225
 Alpha  occ. eigenvalues --   -0.40694  -0.40114  -0.39542  -0.39416  -0.38637
 Alpha  occ. eigenvalues --   -0.37517  -0.37136  -0.36434  -0.36123  -0.35581
 Alpha  occ. eigenvalues --   -0.31350  -0.31045  -0.30765  -0.30249  -0.29907
 Alpha  occ. eigenvalues --   -0.29487  -0.29232  -0.27237  -0.26760  -0.26173
 Alpha  occ. eigenvalues --   -0.25136  -0.17520
 Alpha virt. eigenvalues --   -0.06338  -0.05028  -0.00781  -0.00563  -0.00248
 Alpha virt. eigenvalues --    0.00287   0.00623   0.00859   0.01473   0.02159
 Alpha virt. eigenvalues --    0.02247   0.02827   0.03241   0.03543   0.03799

  Beta  occ. eigenvalues --  -19.17084 -19.16979 -19.16456 -19.12228 -19.11936
  Beta  occ. eigenvalues --  -19.11451 -19.09224 -19.08739 -10.31861 -10.31580
  Beta  occ. eigenvalues --  -10.30507 -10.24874 -10.23692 -10.22069 -10.22020
  Beta  occ. eigenvalues --  -10.21873 -10.20977 -10.20693 -10.20116 -10.20068
  Beta  occ. eigenvalues --  -10.19697 -10.19601 -10.18993 -10.17999  -1.11471
  Beta  occ. eigenvalues --   -1.10936  -1.10536  -1.03217  -1.03031  -1.02454
  Beta  occ. eigenvalues --   -1.01691  -1.00638  -0.88623  -0.82700  -0.79982
  Beta  occ. eigenvalues --   -0.77433  -0.73583  -0.72583  -0.72277  -0.69050
  Beta  occ. eigenvalues --   -0.66588  -0.64531  -0.61552  -0.58887  -0.57150
  Beta  occ. eigenvalues --   -0.55716  -0.54020  -0.52869  -0.52367  -0.50530
  Beta  occ. eigenvalues --   -0.49663  -0.48879  -0.48487  -0.48277  -0.48154
  Beta  occ. eigenvalues --   -0.48112  -0.46928  -0.45985  -0.44983  -0.43310
  Beta  occ. eigenvalues --   -0.43089  -0.42599  -0.42041  -0.41498  -0.41100
  Beta  occ. eigenvalues --   -0.40380  -0.39826  -0.39426  -0.38909  -0.37321
  Beta  occ. eigenvalues --   -0.36881  -0.36454  -0.36363  -0.36061  -0.35437
  Beta  occ. eigenvalues --   -0.31275  -0.30870  -0.30757  -0.30083  -0.29665
  Beta  occ. eigenvalues --   -0.29359  -0.26759  -0.26472  -0.26292  -0.25572
  Beta  occ. eigenvalues --   -0.24639
  Beta virt. eigenvalues --   -0.10768  -0.05642  -0.03993  -0.00735  -0.00423
  Beta virt. eigenvalues --   -0.00195   0.00292   0.00639   0.01356   0.01519
  Beta virt. eigenvalues --    0.02192   0.02270   0.02849   0.03286   0.03655

 Mulliken charges and spin densities:
               1          2
     1  C    0.112212  -0.011553
     2  C    0.287198   0.029033
     3  C   -0.042819   0.005978
     4  C    0.271271   0.019773
     5  C    0.468363   0.018627
     6  C    0.601705   0.019350
     7  C   -0.824344   0.043294
     8  C    0.223588   0.082259
     9  C   -0.207497   0.206770
    10  C   -0.654540   0.082410
    11  O   -0.357440   0.194983
    12  O   -0.383813   0.269675
    13  H    0.211676  -0.000500
    14  H    0.208831  -0.016000
    15  C   -0.856535  -0.000260
    16  O   -0.236551   0.000981
    17  O    0.029476  -0.001378
    18  C   -0.243079   0.001431
    19  H    0.228937  -0.001878
    20  H    0.170591   0.000103
    21  H    0.164929  -0.000106
    22  H    0.184046  -0.000441
    23  C    0.297149   0.033517
    24  O   -0.302675   0.021725
    25  O   -0.103861   0.000303
    26  C   -0.377979   0.001078
    27  O   -0.292486   0.000192
    28  O   -0.040087   0.000136
    29  C   -0.362516   0.000165
    30  C   -0.242108  -0.000265
    31  H    0.170212  -0.000748
    32  H    0.216255   0.000034
    33  H    0.156906   0.001008
    34  H    0.162153   0.000039
    35  H    0.185530  -0.000004
    36  H    0.177304   0.000268
 Sum of Mulliken charges =  -1.00000   1.00000

 Dipole moment (field-independent basis, Debye):
    X=             -3.7403    Y=             -2.4489    Z=              1.7612  Tot=              4.8050
 Quadrupole moment (field-independent basis, Debye-Ang):
   XX=           -167.7877   YY=           -160.5014   ZZ=           -149.4697
   XY=            -26.3264   XZ=             17.0433   YZ=             22.6832

 Normal termination of Gaussian 16 at Sun Jan 21 08:38:16 2024.
