 Q-Chem 5.4, Q-Chem, Inc., Pleasanton, CA (2021)
 Q-Chem 5.4.0 for Intel X86 EM64T Linux

User input:
--------------------------------------------------------------
$molecule
-2 1
Cl                 2.3135120000     -2.0483560000      0.0546180000
C                  0.9415240000     -0.8886630000      0.0233380000
C                  1.1931240000      0.5019370000      0.0003960000
Cl                 2.8854490000      1.1079280000      0.0026180000
C                  0.1716920000      1.5075400000     -0.0254740000
O                  0.3778530000      2.7826350000     -0.0469680000
C                 -1.1329560000      0.9121360000     -0.0251590000
C                 -1.3810040000     -0.4569800000     -0.0025720000
C                 -0.3681100000     -1.4719520000      0.0236930000
O                 -0.6223910000     -2.7383180000      0.0441220000
H                 -1.9692810000      1.6114630000     -0.0443580000
H                 -2.4094130000     -0.8193690000     -0.0042540000
$end
$rem
MAX_SCF_CYCLES=200
BASIS  =  6-311++G(d,p)
GUI  =  2
JOB_TYPE  =  SP
METHOD  =  B3LYP
SOLVENT_METHOD = PCM
$end
$pcm
theory = CPCM
$end
$solvent
dielectric 37.219
opticaldielectric 1.43
$end

--------------------------------------------------------------

             Standard Nuclear Orientation (Angstroms)
    I     Atom           X                Y                Z
 ----------------------------------------------------------------
    1      Cl      2.3135120000    -2.0483560000     0.0546180000
    2      C       0.9415240000    -0.8886630000     0.0233380000
    3      C       1.1931240000     0.5019370000     0.0003960000
    4      Cl      2.8854490000     1.1079280000     0.0026180000
    5      C       0.1716920000     1.5075400000    -0.0254740000
    6      O       0.3778530000     2.7826350000    -0.0469680000
    7      C      -1.1329560000     0.9121360000    -0.0251590000
    8      C      -1.3810040000    -0.4569800000    -0.0025720000
    9      C      -0.3681100000    -1.4719520000     0.0236930000
   10      O      -0.6223910000    -2.7383180000     0.0441220000
   11      H      -1.9692810000     1.6114630000    -0.0443580000
   12      H      -2.4094130000    -0.8193690000    -0.0042540000
 ----------------------------------------------------------------

    9   -1301.0935826499      3.10e-06  Convergence criterion met
 Total energy in the final basis set =    -1301.0935826499

                    Orbital Energies (a.u.)
 --------------------------------------------------------------

 Alpha MOs
 -- Occupied --
********-101.5326 -19.0287 -19.0287 -10.1985 -10.1980 -10.1902 -10.1902
-10.1376 -10.1370  -9.4469  -9.4469  -7.2110  -7.2110  -7.2023  -7.2023
 -7.2016  -7.2015  -0.9468  -0.9426  -0.8562  -0.8174  -0.7799  -0.6890
 -0.6612  -0.5639  -0.5429  -0.4580  -0.4426  -0.4218  -0.3903  -0.3903
 -0.3745  -0.3536  -0.3432  -0.3401  -0.3237  -0.3072  -0.3040  -0.2844
 -0.2380  -0.2181  -0.2114  -0.2110  -0.1344

          Ground-State Mulliken Net Atomic Charges

     Atom                 Charge (a.u.)
  ----------------------------------------
      1 Cl                    0.172963
      2 C                     0.474368
      3 C                     0.476922
      4 Cl                    0.171552
      5 C                    -0.954044
      6 O                    -0.691040
      7 C                    -0.168601
      8 C                    -0.167074
      9 C                    -0.953269
     10 O                    -0.690149
     11 H                     0.164348
     12 H                     0.164023
  ----------------------------------------
  Sum of atomic charges =    -2.000000

                    Cartesian Multipole Moments
 -----------------------------------------------------------------
    Charge (ESU x 10^10)
                -9.6064
    Dipole Moment (Debye)
         X      -4.3090      Y       0.7718      Z      -0.0475
       Tot       4.3778
    Quadrupole Moments (Debye-Ang)
        XX     -93.4613     XY      -9.1894     YY    -142.3745
        XZ       0.0539     YZ       1.0565     ZZ     -79.3893

 Total job time:  10.17s(wall), 75.23s(cpu)
        *  Thank you very much for using Q-Chem.  Have a nice day.  *
