 Gaussian 16, Revision A.03,
 Gaussian 16:  ES64L-G16RevA.03 25-Dec-2016

 ----------------------------------------------------------------------
 #P UB3LYP/6-311++G(d,p) nosym opt freq SCRF=(PCM,Solvent=n,n-DiMethylF
 ormamide)
 ----------------------------------------------------------------------

 --------
 Oxidized
 --------
 Symbolic Z-matrix:
 Charge =  0 Multiplicity = 1

 SCF Done:  E(UB3LYP) =  -669.295280267     A.U. after   15 cycles
 SCF Done:  E(UB3LYP) =  -669.296108744     A.U. after   12 cycles
 SCF Done:  E(UB3LYP) =  -669.296171577     A.U. after   13 cycles
 SCF Done:  E(UB3LYP) =  -669.295603143     A.U. after   13 cycles
 SCF Done:  E(UB3LYP) =  -669.296347582     A.U. after   12 cycles
 SCF Done:  E(UB3LYP) =  -669.296361817     A.U. after   12 cycles
 SCF Done:  E(UB3LYP) =  -669.296409054     A.U. after   12 cycles
 SCF Done:  E(UB3LYP) =  -669.296425404     A.U. after   11 cycles
 SCF Done:  E(UB3LYP) =  -669.296436987     A.U. after   11 cycles
 SCF Done:  E(UB3LYP) =  -669.296443170     A.U. after   10 cycles
 SCF Done:  E(UB3LYP) =  -669.296444450     A.U. after   10 cycles
 SCF Done:  E(UB3LYP) =  -669.296445055     A.U. after   10 cycles
 SCF Done:  E(UB3LYP) =  -669.296445130     A.U. after    8 cycles
 Optimization completed.
    -- Stationary point found.
 Normal termination of Gaussian 16 at Sun Feb 11 15:53:38 2024.

 ----------------------------------------------------------------------
 #P Geom=AllCheck Guess=TCheck SCRF=Check GenChk UB3LYP/6-311++G(d,p) F
 req
 ----------------------------------------------------------------------

 Structure from the checkpoint file:  "324.chk"
 --------
 Oxidized
 --------
 Charge =  0 Multiplicity = 1

                          Input orientation:
 ---------------------------------------------------------------------
 Center     Atomic      Atomic             Coordinates (Angstroms)
 Number     Number       Type             X           Y           Z
 ---------------------------------------------------------------------
      1          6           0       -1.795404    2.756461   -0.722243
      2          6           0       -2.892330    1.929223   -0.508664
      3          6           0       -2.683846    0.594778   -0.169371
      4          6           0       -0.494879    2.261320   -0.599809
      5          6           0       -0.274943    0.910076   -0.256164
      6          6           0       -1.389332    0.091932   -0.044729
      7          6           0        0.646144    3.183697   -0.837340
      8          6           0        2.077491    2.617231   -0.700764
      9          6           0        2.205500    1.247206   -0.351089
     10          6           0        1.122939    0.408896   -0.132184
     11          8           0        0.484180    4.353366   -1.131627
     12          8           0        3.028719    3.381755   -0.901106
     13          1           0       -1.928698    3.797846   -0.986905
     14          1           0       -3.898313    2.319247   -0.605295
     15          1           0       -3.527453   -0.063433    0.000547
     16          1           0       -1.286470   -0.952394    0.220547
     17          1           0        3.213562    0.866123   -0.258049
     18          7           0        1.299719   -0.880090    0.197881
     19          6           0        2.596063   -1.538762    0.365450
     20          6           0        2.407287   -3.002866    0.740979
     21          1           0        0.488661   -1.457781    0.350750
     22          1           0        3.164568   -1.016222    1.141666
     23          1           0        3.162763   -1.454429   -0.567503
     24          1           0        1.863708   -3.102915    1.684067
     25          1           0        3.382014   -3.478456    0.861821
     26          1           0        1.861860   -3.543728   -0.036718
 ---------------------------------------------------------------------

 SCF Done:  E(UB3LYP) =  -669.296445130     A.U. after    1 cycles

 Alpha  occ. eigenvalues --  -19.13857 -19.10807 -14.36942 -10.27942 -10.26373
 Alpha  occ. eigenvalues --  -10.25914 -10.22418 -10.22242 -10.20935 -10.20550
 Alpha  occ. eigenvalues --  -10.20224 -10.20065 -10.19787 -10.17495 -10.17447
 Alpha  occ. eigenvalues --   -1.07326  -1.02947  -0.98295  -0.89285  -0.82815
 Alpha  occ. eigenvalues --   -0.79160  -0.76851  -0.76181  -0.69669  -0.66126
 Alpha  occ. eigenvalues --   -0.64271  -0.63067  -0.60018  -0.56402  -0.53208
 Alpha  occ. eigenvalues --   -0.52441  -0.49393  -0.48763  -0.48016  -0.47314
 Alpha  occ. eigenvalues --   -0.46027  -0.45157  -0.44942  -0.43224  -0.42253
 Alpha  occ. eigenvalues --   -0.40802  -0.40128  -0.39324  -0.38703  -0.37822
 Alpha  occ. eigenvalues --   -0.37562  -0.37123  -0.34764  -0.30085  -0.28523
 Alpha  occ. eigenvalues --   -0.27938  -0.25553  -0.23636
 Alpha virt. eigenvalues --   -0.11816  -0.05690  -0.02121  -0.00993   0.00104
 Alpha virt. eigenvalues --    0.00685   0.01895   0.02061   0.02130   0.02494
 Alpha virt. eigenvalues --    0.03449   0.04322   0.04444   0.05092   0.05484

  Beta  occ. eigenvalues --  -19.13857 -19.10807 -14.36942 -10.27942 -10.26373
  Beta  occ. eigenvalues --  -10.25914 -10.22418 -10.22242 -10.20935 -10.20550
  Beta  occ. eigenvalues --  -10.20224 -10.20065 -10.19787 -10.17495 -10.17447
  Beta  occ. eigenvalues --   -1.07326  -1.02947  -0.98295  -0.89285  -0.82815
  Beta  occ. eigenvalues --   -0.79160  -0.76851  -0.76181  -0.69669  -0.66126
  Beta  occ. eigenvalues --   -0.64271  -0.63067  -0.60018  -0.56402  -0.53208
  Beta  occ. eigenvalues --   -0.52441  -0.49393  -0.48763  -0.48016  -0.47314
  Beta  occ. eigenvalues --   -0.46027  -0.45157  -0.44942  -0.43224  -0.42253
  Beta  occ. eigenvalues --   -0.40802  -0.40128  -0.39324  -0.38703  -0.37822
  Beta  occ. eigenvalues --   -0.37562  -0.37123  -0.34764  -0.30085  -0.28523
  Beta  occ. eigenvalues --   -0.27938  -0.25553  -0.23636
  Beta virt. eigenvalues --   -0.11816  -0.05690  -0.02121  -0.00993   0.00104
  Beta virt. eigenvalues --    0.00685   0.01895   0.02061   0.02130   0.02494
  Beta virt. eigenvalues --    0.03449   0.04322   0.04444   0.05092   0.05484

 Mulliken charges and spin densities:
               1          2
     1  C    0.201094   0.000000
     2  C   -0.397700  -0.000000
     3  C   -0.560847   0.000000
     4  C    0.449611  -0.000000
     5  C    0.588915  -0.000000
     6  C   -0.281770   0.000000
     7  C   -0.653437   0.000000
     8  C    0.045468   0.000000
     9  C    0.186212  -0.000000
    10  C   -0.436094   0.000000
    11  O   -0.288093   0.000000
    12  O   -0.419937  -0.000000
    13  H    0.190815   0.000000
    14  H    0.204644  -0.000000
    15  H    0.214208  -0.000000
    16  H    0.096201   0.000000
    17  H    0.228689  -0.000000
    18  N    0.066012  -0.000000
    19  C    0.033652   0.000000
    20  C   -0.789465  -0.000000
    21  H    0.452708  -0.000000
    22  H    0.186414   0.000000
    23  H    0.185865   0.000000
    24  H    0.163525   0.000000
    25  H    0.169501  -0.000000
    26  H    0.163811   0.000000
 Sum of Mulliken charges =  -0.00000   0.00000

 Dipole moment (field-independent basis, Debye):
    X=             -5.7473    Y=            -12.5577    Z=              3.2338  Tot=             14.1839
 Quadrupole moment (field-independent basis, Debye-Ang):
   XX=            -88.3998   YY=           -123.6215   ZZ=            -92.4011
   XY=            -31.8122   XZ=              8.3035   YZ=              8.9476

  Exact polarizability: 269.286  20.856 295.092  -5.806 -46.240 126.299
 Approx polarizability: 301.429  41.562 358.983 -11.167 -57.889 147.581

                      1                      2                      3
                      A                      A                      A
 Frequencies --     42.7689                65.6751                88.2872
 Red. masses --      4.0158                 4.5781                 2.7523
 Frc consts  --      0.0043                 0.0116                 0.0126
 IR Inten    --      0.1400                 2.1980                 5.6234

                      4                      5                      6
                      A                      A                      A
 Frequencies --    120.7731               123.5352               157.8117
 Red. masses --      2.6474                 3.6720                 4.1255
 Frc consts  --      0.0228                 0.0330                 0.0605
 IR Inten    --      0.0748                 1.6767                 0.1429

                      7                      8                      9
                      A                      A                      A
 Frequencies --    204.5160               266.3568               267.2578
 Red. masses --      3.1620                 1.3263                 5.2442
 Frc consts  --      0.0779                 0.0554                 0.2207
 IR Inten    --      1.5225                 0.3707                10.6714

                     10                     11                     12
                      A                      A                      A
 Frequencies --    315.9163               365.0483               372.6563
 Red. masses --      4.2044                 1.5123                 5.3037
 Frc consts  --      0.2472                 0.1187                 0.4340
 IR Inten    --      2.2922                63.5371                 2.3384

                     13                     14                     15
                      A                      A                      A
 Frequencies --    376.8689               405.6026               417.8753
 Red. masses --      9.7553                 3.0432                 7.2976
 Frc consts  --      0.8163                 0.2950                 0.7508
 IR Inten    --      7.2845                 6.2811                 8.9506

                     16                     17                     18
                      A                      A                      A
 Frequencies --    464.6138               473.0844               513.9315
 Red. masses --      8.0011                 3.1540                 3.8074
 Frc consts  --      1.0176                 0.4159                 0.5925
 IR Inten    --      2.6632                21.5356                44.5187

                     19                     20                     21
                      A                      A                      A
 Frequencies --    595.9064               642.6297               653.2891
 Red. masses --      6.8006                 5.2685                 3.5548
 Frc consts  --      1.4228                 1.2819                 0.8939
 IR Inten    --      8.4296                 7.6156                 2.1310

                     22                     23                     24
                      A                      A                      A
 Frequencies --    696.3221               718.6612               725.3998
 Red. masses --      6.5258                 6.8849                 2.8537
 Frc consts  --      1.8642                 2.0951                 0.8847
 IR Inten    --      7.7671                 2.2078                41.9086

                     25                     26                     27
                      A                      A                      A
 Frequencies --    773.9699               803.7519               825.8594
 Red. masses --      1.7843                 1.4853                 2.0047
 Frc consts  --      0.6297                 0.5653                 0.8056
 IR Inten    --     74.9315                11.5169                13.8941

                     28                     29                     30
                      A                      A                      A
 Frequencies --    837.2563               847.7879               888.5536
 Red. masses --      1.5749                 4.2126                 1.4336
 Frc consts  --      0.6504                 1.7839                 0.6669
 IR Inten    --     29.6004                 9.7240                 0.2967

                     31                     32                     33
                      A                      A                      A
 Frequencies --    925.5791               977.8997               985.2211
 Red. masses --      2.0085                 6.0618                 1.3907
 Frc consts  --      1.0138                 3.4154                 0.7953
 IR Inten    --      2.7169                55.9620                 1.7363

                     34                     35                     36
                      A                      A                      A
 Frequencies --   1018.1050              1053.5054              1073.4711
 Red. masses --      1.3319                 3.3962                 2.2584
 Frc consts  --      0.8134                 2.2208                 1.5333
 IR Inten    --      0.0555                 3.8813                 7.6928

                     37                     38                     39
                      A                      A                      A
 Frequencies --   1108.8151              1141.3303              1158.6353
 Red. masses --      2.5382                 1.8448                 1.5096
 Frc consts  --      1.8387                 1.4158                 1.1940
 IR Inten    --      6.8278                32.5428                 2.8684

                     40                     41                     42
                      A                      A                      A
 Frequencies --   1173.9223              1194.6963              1241.9333
 Red. masses --      2.3311                 1.2590                 2.4700
 Frc consts  --      1.8927                 1.0587                 2.2446
 IR Inten    --      8.2961                 3.3588                92.8868

                     43                     44                     45
                      A                      A                      A
 Frequencies --   1279.9955              1306.2006              1307.0695
 Red. masses --      1.9082                 1.1395                 2.0369
 Frc consts  --      1.8420                 1.1455                 2.0503
 IR Inten    --     99.9832                33.5866               470.7476

                     46                     47                     48
                      A                      A                      A
 Frequencies --   1341.7163              1347.7385              1367.0108
 Red. masses --      2.0053                 4.3119                 3.3620
 Frc consts  --      2.1269                 4.6146                 3.7017
 IR Inten    --     22.5158                29.0355                28.5604

                     49                     50                     51
                      A                      A                      A
 Frequencies --   1401.1641              1418.4295              1474.8546
 Red. masses --      1.4902                 1.3426                 2.2672
 Frc consts  --      1.7237                 1.5916                 2.9056
 IR Inten    --      9.6074                17.7479               111.3530

                     52                     53                     54
                      A                      A                      A
 Frequencies --   1486.9924              1488.3207              1505.5903
 Red. masses --      1.0366                 1.0719                 1.6432
 Frc consts  --      1.3504                 1.3989                 2.1946
 IR Inten    --     13.5956                87.9839               295.4680

                     55                     56                     57
                      A                      A                      A
 Frequencies --   1511.9503              1566.1912              1571.6024
 Red. masses --      1.3699                 4.2063                 2.0666
 Frc consts  --      1.8451                 6.0792                 3.0074
 IR Inten    --     31.3904              1346.4130               264.8470

                     58                     59                     60
                      A                      A                      A
 Frequencies --   1620.8178              1630.7916              1641.6231
 Red. masses --      6.2285                 5.0329                11.1320
 Frc consts  --      9.6406                 7.8861                17.6754
 IR Inten    --    351.7515                74.6625               616.6508

                     61                     62                     63
                      A                      A                      A
 Frequencies --   1732.4874              3021.8209              3033.6443
 Red. masses --     12.6107                 1.0575                 1.0363
 Frc consts  --     22.3013                 5.6894                 5.6191
 IR Inten    --    281.3057                23.3604                32.5057

                     64                     65                     66
                      A                      A                      A
 Frequencies --   3051.0278              3098.4285              3112.8449
 Red. masses --      1.1061                 1.1041                 1.1008
 Frc consts  --      6.0666                 6.2449                 6.2843
 IR Inten    --     17.7128                47.8245                27.4858

                     67                     68                     69
                      A                      A                      A
 Frequencies --   3179.4142              3187.9963              3197.6240
 Red. masses --      1.0868                 1.0898                 1.0933
 Frc consts  --      6.4729                 6.5258                 6.5866
 IR Inten    --      2.0456                15.2034                11.3955

                     70                     71                     72
                      A                      A                      A
 Frequencies --   3203.4783              3204.7500              3639.2499
 Red. masses --      1.0895                 1.0967                 1.0767
 Frc consts  --      6.5874                 6.6361                 8.4016
 IR Inten    --      6.1997                13.8155               167.5410

 - Thermochemistry -
 -------------------
 Temperature   298.150 Kelvin.  Pressure   1.00000 Atm.
 Atom     1 has atomic number  6 and mass  12.00000

 Molecular mass:   201.07898 amu.
 Principal axes and moments of inertia in atomic units:
                           1         2         3
     Eigenvalues --  2311.969523561.671465851.06951
           X           -0.52582   0.85059   0.00279
           Y            0.82443   0.50883   0.24782
           Z           -0.20937  -0.13260   0.96880
 This molecule is an asymmetric top.
 Rotational symmetry number  1.
 Warning -- assumption of classical behavior for rotation
           may cause significant error
 Rotational temperatures (Kelvin)      0.03746     0.02432     0.01480
 Rotational constants (GHZ):           0.78061     0.50671     0.30845
 Zero-point vibrational energy     538534.3 (Joules/Mol)
                                  128.71279 (Kcal/Mol)
 Warning -- explicit consideration of  19 degrees of freedom as
           vibrations may cause significant error
 Vibrational temperatures:     61.53    94.49   127.03   173.77   177.74
          (Kelvin)            227.06   294.25   383.23   384.52   454.53
                              525.22   536.17   542.23   583.57   601.23
                              668.48   680.66   739.43   857.38   924.60
                              939.94  1001.85  1033.99  1043.69  1113.57
                             1156.42  1188.23  1204.63  1219.78  1278.43
                             1331.70  1406.98  1417.51  1464.83  1515.76
                             1544.49  1595.34  1642.12  1667.02  1689.01
                             1718.90  1786.87  1841.63  1879.33  1880.58
                             1930.43  1939.10  1966.82  2015.96  2040.80
                             2121.99  2139.45  2141.36  2166.21  2175.36
                             2253.40  2261.19  2332.00  2346.35  2361.93
                             2492.66  4347.73  4364.74  4389.75  4457.95
                             4478.69  4574.47  4586.82  4600.67  4609.09
                             4610.92  5236.07

 Zero-point correction=                           0.205117 (Hartree/Particle)
 Thermal correction to Energy=                    0.218212
 Thermal correction to Enthalpy=                  0.219156
 Thermal correction to Gibbs Free Energy=         0.164988
 Sum of electronic and zero-point Energies=           -669.091328
 Sum of electronic and thermal Energies=              -669.078234
 Sum of electronic and thermal Enthalpies=            -669.077289
 Sum of electronic and thermal Free Energies=         -669.131458

                     E (Thermal)             CV                S
                      KCal/Mol        Cal/Mol-Kelvin    Cal/Mol-Kelvin
 Total                  136.930             50.165            114.007
 Electronic               0.000              0.000              0.000
 Translational            0.889              2.981             41.800
 Rotational               0.889              2.981             32.244
 Vibrational            135.152             44.203             39.963
 Vibration     1          0.595              1.980              5.127
 Vibration     2          0.597              1.971              4.279
 Vibration     3          0.601              1.957              3.698
 Vibration     4          0.609              1.932              3.088
 Vibration     5          0.610              1.929              3.044
 Vibration     6          0.621              1.894              2.576
 Vibration     7          0.640              1.833              2.092
 Vibration     8          0.672              1.735              1.620
 Vibration     9          0.672              1.733              1.614
 Vibration    10          0.703              1.643              1.331
 Vibration    11          0.738              1.544              1.101
 Vibration    12          0.744              1.528              1.069
 Vibration    13          0.747              1.519              1.052
 Vibration    14          0.771              1.458              0.942
 Vibration    15          0.781              1.431              0.899
 Vibration    16          0.822              1.329              0.753
 Vibration    17          0.830              1.310              0.729
 Vibration    18          0.869              1.219              0.624
 Vibration    19          0.954              1.040              0.457

 Optimization completed.
    -- Stationary point found.
 Normal termination of Gaussian 16 at Sun Feb 11 16:26:50 2024.
