 Gaussian 16, Revision A.03,
 Gaussian 16:  ES64L-G16RevA.03 25-Dec-2016

 --------------------------------------
 #P UB3LYP/6-311++G(d,p) nosym opt freq
 --------------------------------------

 -------
 Radical
 -------
 Symbolic Z-matrix:
 Charge = -1 Multiplicity = 2

 SCF Done:  E(UB3LYP) =  -3108.87171997     A.U. after   24 cycles
 Optimization completed.
    -- Stationary point found.
 Normal termination of Gaussian 16 at Tue Jan  9 20:31:03 2024.

 ----------------------------------------------------------------------
 #P Geom=AllCheck Guess=TCheck SCRF=Check GenChk UB3LYP/6-311++G(d,p) F
 req
 ----------------------------------------------------------------------

 Structure from the checkpoint file:  "321-rad.chk"
 -------
 Radical
 -------
 Charge = -1 Multiplicity = 2

                          Input orientation:
 ---------------------------------------------------------------------
 Center     Atomic      Atomic             Coordinates (Angstroms)
 Number     Number       Type             X           Y           Z
 ---------------------------------------------------------------------
      1         35           0        3.728456   -2.178130    0.614917
      2          6           0        2.236979   -0.985393    0.271355
      3          6           0        0.974433   -1.507858    0.315800
      4          6           0       -0.160059   -0.672771    0.070294
      5          6           0       -1.477595   -1.183684    0.109035
      6          6           0       -2.569523   -0.369193   -0.129590
      7          6           0       -2.375709    0.997523   -0.417724
      8          6           0       -1.094338    1.517590   -0.460461
      9          6           0        0.034439    0.708708   -0.221083
     10          6           0        1.380898    1.299885   -0.275902
     11          8           0        1.550624    2.504797   -0.530336
     12          6           0        2.567329    0.401836   -0.013973
     13          8           0        3.729215    0.840535   -0.045835
     14          1           0        0.819316   -2.557327    0.536840
     15          1           0       -1.622185   -2.237538    0.331529
     16          1           0       -3.573174   -0.781909   -0.094920
     17          1           0       -3.231734    1.638442   -0.605281
     18          1           0       -0.917373    2.564487   -0.679567
 ---------------------------------------------------------------------

 SCF Done:  E(UB3LYP) =  -3108.87171997     A.U. after    1 cycles

 Alpha  occ. eigenvalues -- -482.69834 -62.35112 -56.17126 -56.16779 -56.16754
 Alpha  occ. eigenvalues --  -18.94977 -18.94559 -10.09565 -10.09462 -10.09324
 Alpha  occ. eigenvalues --  -10.06783 -10.06673 -10.06604 -10.06222 -10.05866
 Alpha  occ. eigenvalues --  -10.05666 -10.05288  -8.56069  -6.39142  -6.37977
 Alpha  occ. eigenvalues --   -6.37906  -2.50247  -2.49925  -2.49871  -2.48944
 Alpha  occ. eigenvalues --   -2.48944  -0.88757  -0.86020  -0.75189  -0.70685
 Alpha  occ. eigenvalues --   -0.65818  -0.64225  -0.59538  -0.56632  -0.49392
 Alpha  occ. eigenvalues --   -0.48087  -0.45326  -0.39765  -0.37428  -0.36386
 Alpha  occ. eigenvalues --   -0.32960  -0.31780  -0.30365  -0.29691  -0.28991
 Alpha  occ. eigenvalues --   -0.27539  -0.26114  -0.25316  -0.23926  -0.22993
 Alpha  occ. eigenvalues --   -0.22356  -0.19662  -0.17101  -0.16248  -0.14408
 Alpha  occ. eigenvalues --   -0.12585  -0.10579  -0.09351  -0.03034
 Alpha virt. eigenvalues --    0.07566   0.07798   0.09187   0.09771   0.10532
 Alpha virt. eigenvalues --    0.11086   0.12205   0.13016   0.13379   0.14643
 Alpha virt. eigenvalues --    0.15602   0.15620   0.15772   0.17196   0.17321

  Beta  occ. eigenvalues -- -482.69834 -62.35112 -56.17127 -56.16778 -56.16755
  Beta  occ. eigenvalues --  -18.94362 -18.93880 -10.09481 -10.09383 -10.09269
  Beta  occ. eigenvalues --  -10.06726 -10.06644 -10.06577 -10.06172 -10.05660
  Beta  occ. eigenvalues --  -10.05651 -10.05192  -8.56070  -6.39145  -6.37976
  Beta  occ. eigenvalues --   -6.37906  -2.50249  -2.49925  -2.49873  -2.48943
  Beta  occ. eigenvalues --   -2.48943  -0.87697  -0.84831  -0.74943  -0.70409
  Beta  occ. eigenvalues --   -0.65641  -0.63985  -0.59339  -0.55836  -0.49231
  Beta  occ. eigenvalues --   -0.47758  -0.44976  -0.39583  -0.37184  -0.36183
  Beta  occ. eigenvalues --   -0.32795  -0.31702  -0.30223  -0.28590  -0.28336
  Beta  occ. eigenvalues --   -0.26973  -0.25857  -0.24217  -0.23758  -0.22204
  Beta  occ. eigenvalues --   -0.21321  -0.17481  -0.16573  -0.16209  -0.13401
  Beta  occ. eigenvalues --   -0.11961  -0.09471  -0.08750
  Beta virt. eigenvalues --    0.03439   0.07561   0.08556   0.09176   0.09804
  Beta virt. eigenvalues --    0.10541   0.12204   0.12504   0.13381   0.13597
  Beta virt. eigenvalues --    0.14645   0.15621   0.15650   0.16348   0.17193

 Mulliken charges and spin densities:
               1          2
     1  Br  -0.256506   0.001961
     2  C    0.888580   0.046556
     3  C   -0.451107   0.137025
     4  C   -0.454160   0.029413
     5  C   -0.132228   0.005817
     6  C   -0.334143   0.053381
     7  C   -0.280762   0.037820
     8  C    0.185700   0.029275
     9  C    0.846153   0.075801
    10  C   -0.458207   0.048005
    11  O   -0.341033   0.233334
    12  C   -0.557257   0.071752
    13  O   -0.312215   0.253423
    14  H    0.162322  -0.014646
    15  H    0.093347   0.001518
    16  H    0.125041  -0.004285
    17  H    0.126516  -0.003252
    18  H    0.149957  -0.002898
 Sum of Mulliken charges =  -1.00000   1.00000

 Dipole moment (field-independent basis, Debye):
    X=            -11.0432    Y=             -3.7063    Z=              0.5272  Tot=             11.6605
 Quadrupole moment (field-independent basis, Debye-Ang):
   XX=           -135.3914   YY=           -108.0949   ZZ=            -94.0809
   XY=             -5.8016   XZ=             -0.3041   YZ=              3.1619

  Exact polarizability: 253.186 -20.047 176.357  13.808 -21.553  88.393
 Approx polarizability: 403.982  -7.817 300.208  16.937 -37.932 138.035

                      1                      2                      3
                      A                      A                      A
 Frequencies --     72.4638                80.6331               147.1188
 Red. masses --     13.8712                 5.4146                 5.4948
 Frc consts  --      0.0429                 0.0207                 0.0701
 IR Inten    --      0.2707                 0.3404                 1.0987

                      4                      5                      6
                      A                      A                      A
 Frequencies --    157.7297               230.2145               272.7075
 Red. masses --     10.4939                19.1144                 5.8369
 Frc consts  --      0.1538                 0.5969                 0.2558
 IR Inten    --      2.5710                 0.3848                 0.2524

                      7                      8                      9
                      A                      A                      A
 Frequencies --    294.2648               329.1081               374.9160
 Red. masses --      6.4731                 5.3689                15.6473
 Frc consts  --      0.3302                 0.3426                 1.2959
 IR Inten    --      1.3078                 0.8978                 0.5473

                     10                     11                     12
                      A                      A                      A
 Frequencies --    414.4534               435.3989               504.1081
 Red. masses --      8.9425                 3.5495                 9.1428
 Frc consts  --      0.9050                 0.3965                 1.3689
 IR Inten    --     13.6310                 0.9808                 0.6646

                     13                     14                     15
                      A                      A                      A
 Frequencies --    532.8500               562.2576               587.8006
 Red. masses --      3.4007                 6.0176                 7.1036
 Frc consts  --      0.5689                 1.1208                 1.4461
 IR Inten    --      8.3324                15.7577                13.3457

                     16                     17                     18
                      A                      A                      A
 Frequencies --    654.8984               701.4981               718.7959
 Red. masses --      6.5205                 5.1061                 7.2133
 Frc consts  --      1.6477                 1.4805                 2.1958
 IR Inten    --      7.5755                 0.5131                 0.0894

                     19                     20                     21
                      A                      A                      A
 Frequencies --    737.1847               762.2446               780.6173
 Red. masses --      1.2802                 4.3505                 8.3428
 Frc consts  --      0.4099                 1.4893                 2.9953
 IR Inten    --     46.5757                 0.3740               110.6465

                     22                     23                     24
                      A                      A                      A
 Frequencies --    816.4565               849.1746               896.4325
 Red. masses --      1.5684                 1.3944                 5.3672
 Frc consts  --      0.6160                 0.5924                 2.5412
 IR Inten    --     28.0545                 1.1626                10.3309

                     25                     26                     27
                      A                      A                      A
 Frequencies --    937.8678               978.1041               979.0526
 Red. masses --      1.3069                 1.2905                 7.2710
 Frc consts  --      0.6773                 0.7274                 4.1064
 IR Inten    --      1.8568                 1.5106                 4.5593

                     28                     29                     30
                      A                      A                      A
 Frequencies --   1040.0767              1110.2747              1126.0066
 Red. masses --      2.0873                 3.3388                 1.9604
 Frc consts  --      1.3304                 2.4249                 1.4644
 IR Inten    --     20.8513                23.8416                53.7532

                     31                     32                     33
                      A                      A                      A
 Frequencies --   1165.7220              1220.4515              1250.1796
 Red. masses --      1.1469                 2.1352                 2.1577
 Frc consts  --      0.9182                 1.8738                 1.9869
 IR Inten    --      3.1074                28.9456                 2.6354

                     34                     35                     36
                      A                      A                      A
 Frequencies --   1271.6682              1349.9180              1363.4743
 Red. masses --      2.2705                 2.2546                 9.0645
 Frc consts  --      2.1633                 2.4207                 9.9286
 IR Inten    --     15.6475                45.3050                30.9266

                     37                     38                     39
                      A                      A                      A
 Frequencies --   1452.5930              1493.1676              1515.5104
 Red. masses --      2.5228                 2.8325                 5.4121
 Frc consts  --      3.1363                 3.7208                 7.3237
 IR Inten    --     32.4230                40.6096               163.2112

                     40                     41                     42
                      A                      A                      A
 Frequencies --   1554.6097              1584.7496              1592.2719
 Red. masses --      8.3860                 6.1001                10.3841
 Frc consts  --     11.9412                 9.0262                15.5116
 IR Inten    --    215.4452                31.8746               343.4321

                     43                     44                     45
                      A                      A                      A
 Frequencies --   1625.6067              3131.6475              3144.3714
 Red. masses --      6.2801                 1.0840                 1.0887
 Frc consts  --      9.7780                 6.2638                 6.3421
 IR Inten    --     16.8755                 0.8327                36.2111

                     46                     47                     48
                      A                      A                      A
 Frequencies --   3161.3982              3172.8509              3182.7740
 Red. masses --      1.0945                 1.0899                 1.0924
 Frc consts  --      6.4449                 6.4647                 6.5201
 IR Inten    --     55.6626                 8.3912                19.9435

 - Thermochemistry -
 -------------------
 Temperature   298.150 Kelvin.  Pressure   1.00000 Atm.
 Atom     1 has atomic number 35 and mass  78.91834

 Molecular mass:   235.94729 amu.
 Principal axes and moments of inertia in atomic units:
                           1         2         3
     Eigenvalues --  1470.875644974.137626445.01324
           X            0.88804   0.45659  -0.05398
           Y           -0.43643   0.87406   0.21344
           Z            0.14464  -0.16598   0.97546
 This molecule is an asymmetric top.
 Rotational symmetry number  1.
 Warning -- assumption of classical behavior for rotation
           may cause significant error
 Rotational temperatures (Kelvin)      0.05889     0.01741     0.01344
 Rotational constants (GHZ):           1.22698     0.36282     0.28002
 Zero-point vibrational energy     312929.2 (Joules/Mol)
                                   74.79187 (Kcal/Mol)
 Warning -- explicit consideration of  15 degrees of freedom as
           vibrations may cause significant error
 Vibrational temperatures:    104.26   116.01   211.67   226.94   331.23
          (Kelvin)            392.37   423.38   473.51   539.42   596.31
                              626.44   725.30   766.65   808.96   845.71
                              942.25  1009.30  1034.19  1060.64  1096.70
                             1123.13  1174.70  1221.77  1289.77  1349.38
                             1407.27  1408.64  1496.44  1597.44  1620.07
                             1677.21  1755.96  1798.73  1829.65  1942.23
                             1961.74  2089.96  2148.34  2180.48  2236.74
                             2280.10  2290.92  2338.89  4505.74  4524.05
                             4548.55  4565.02  4579.30

 Zero-point correction=                           0.119188 (Hartree/Particle)
 Thermal correction to Energy=                    0.129449
 Thermal correction to Enthalpy=                  0.130394
 Thermal correction to Gibbs Free Energy=         0.081314
 Sum of electronic and zero-point Energies=          -3108.752532
 Sum of electronic and thermal Energies=             -3108.742271
 Sum of electronic and thermal Enthalpies=           -3108.741326
 Sum of electronic and thermal Free Energies=        -3108.790406

                     E (Thermal)             CV                S
                      KCal/Mol        Cal/Mol-Kelvin    Cal/Mol-Kelvin
 Total                   81.231             39.429            103.296
 Electronic               0.000              0.000              1.377
 Translational            0.889              2.981             42.277
 Rotational               0.889              2.981             32.222
 Vibrational             79.453             33.468             27.419
 Vibration     1          0.599              1.967              4.085
 Vibration     2          0.600              1.962              3.875
 Vibration     3          0.617              1.906              2.709
 Vibration     4          0.621              1.894              2.577
 Vibration     5          0.652              1.795              1.877
 Vibration     6          0.676              1.724              1.579
 Vibration     7          0.689              1.684              1.449
 Vibration     8          0.712              1.617              1.264
 Vibration     9          0.746              1.524              1.060
 Vibration    10          0.778              1.439              0.911
 Vibration    11          0.796              1.393              0.841
 Vibration    12          0.859              1.241              0.648
 Vibration    13          0.888              1.177              0.581
 Vibration    14          0.918              1.113              0.519
 Vibration    15          0.945              1.058              0.471

 Optimization completed.
    -- Stationary point found.
 Normal termination of Gaussian 16 at Tue Jan  9 20:54:05 2024.
