 Q-Chem 5.4, Q-Chem, Inc., Pleasanton, CA (2021)
 Q-Chem 5.4.0 for Intel X86 EM64T Linux

User input:
--------------------------------------------------------------
$molecule
-1 2
Br                 3.7284560000     -2.1781300000      0.6149170000
C                  2.2369790000     -0.9853930000      0.2713550000
C                  0.9744330000     -1.5078580000      0.3158000000
C                 -0.1600590000     -0.6727710000      0.0702940000
C                 -1.4775950000     -1.1836840000      0.1090350000
C                 -2.5695230000     -0.3691930000     -0.1295900000
C                 -2.3757090000      0.9975230000     -0.4177240000
C                 -1.0943380000      1.5175900000     -0.4604610000
C                  0.0344390000      0.7087080000     -0.2210830000
C                  1.3808980000      1.2998850000     -0.2759020000
O                  1.5506240000      2.5047970000     -0.5303360000
C                  2.5673290000      0.4018360000     -0.0139730000
O                  3.7292150000      0.8405350000     -0.0458350000
H                  0.8193160000     -2.5573270000      0.5368400000
H                 -1.6221850000     -2.2375380000      0.3315290000
H                 -3.5731740000     -0.7819090000     -0.0949200000
H                 -3.2317340000      1.6384420000     -0.6052810000
H                 -0.9173730000      2.5644870000     -0.6795670000
$end
$rem
MAX_SCF_CYCLES=200
BASIS  =  6-311++G(d,p)
GUI  =  2
JOB_TYPE  =  SP
METHOD  =  B3LYP
SOLVENT_METHOD = PCM
$end
$pcm
theory = CPCM
$end
$solvent
dielectric 37.219
opticaldielectric 1.43
$end

--------------------------------------------------------------

             Standard Nuclear Orientation (Angstroms)
    I     Atom           X                Y                Z
 ----------------------------------------------------------------
    1      Br      3.7284560000    -2.1781300000     0.6149170000
    2      C       2.2369790000    -0.9853930000     0.2713550000
    3      C       0.9744330000    -1.5078580000     0.3158000000
    4      C      -0.1600590000    -0.6727710000     0.0702940000
    5      C      -1.4775950000    -1.1836840000     0.1090350000
    6      C      -2.5695230000    -0.3691930000    -0.1295900000
    7      C      -2.3757090000     0.9975230000    -0.4177240000
    8      C      -1.0943380000     1.5175900000    -0.4604610000
    9      C       0.0344390000     0.7087080000    -0.2210830000
   10      C       1.3808980000     1.2998850000    -0.2759020000
   11      O       1.5506240000     2.5047970000    -0.5303360000
   12      C       2.5673290000     0.4018360000    -0.0139730000
   13      O       3.7292150000     0.8405350000    -0.0458350000
   14      H       0.8193160000    -2.5573270000     0.5368400000
   15      H      -1.6221850000    -2.2375380000     0.3315290000
   16      H      -3.5731740000    -0.7819090000    -0.0949200000
   17      H      -3.2317340000     1.6384420000    -0.6052810000
   18      H      -0.9173730000     2.5644870000    -0.6795670000
 ----------------------------------------------------------------

    9   -3108.9558941853      5.03e-06  Convergence criterion met
 Total energy in the final basis set =    -3108.9558941853

                    Orbital Energies (a.u.)
 --------------------------------------------------------------

 Alpha MOs
 -- Occupied --
******** -62.4769 -56.2972 -56.2936 -56.2934 -19.0897 -19.0872 -10.2320
-10.2315 -10.2191 -10.1873 -10.1833 -10.1769 -10.1766 -10.1756 -10.1741
-10.1733  -8.6855  -6.5164  -6.5045  -6.5039  -2.6274  -2.6240  -2.6237
 -2.6142  -2.6141  -1.0301  -1.0029  -0.8713  -0.8293  -0.7797  -0.7597
 -0.7166  -0.6921  -0.6115  -0.6010  -0.5765  -0.5192  -0.4935  -0.4846
 -0.4488  -0.4356  -0.4317  -0.4246  -0.4226  -0.4103  -0.3835  -0.3784
 -0.3657  -0.3572  -0.3407  -0.3270  -0.2930  -0.2909  -0.2695  -0.2635
 -0.2370  -0.2285  -0.1651

 Beta MOs
 -- Occupied --
******** -62.4769 -56.2972 -56.2937 -56.2934 -19.0840 -19.0811 -10.2303
-10.2299 -10.2195 -10.1869 -10.1807 -10.1768 -10.1762 -10.1750 -10.1738
-10.1729  -8.6855  -6.5164  -6.5045  -6.5039  -2.6274  -2.6240  -2.6237
 -2.6142  -2.6142  -1.0199  -0.9920  -0.8687  -0.8272  -0.7779  -0.7568
 -0.7147  -0.6832  -0.6095  -0.5977  -0.5727  -0.5174  -0.4908  -0.4822
 -0.4471  -0.4333  -0.4213  -0.4195  -0.4139  -0.4069  -0.3822  -0.3674
 -0.3560  -0.3469  -0.3398  -0.3100  -0.2901  -0.2874  -0.2642  -0.2539
 -0.2316  -0.2210

          Ground-State Mulliken Net Atomic Charges

     Atom                 Charge (a.u.)    Spin (a.u.)
  --------------------------------------------------------
      1 Br                   -0.223692       0.000865
      2 C                     0.815885      -0.018464
      3 C                    -0.313193       0.172978
      4 C                    -0.499889       0.003580
      5 C                    -0.081315       0.021114
      6 C                    -0.391188       0.052418
      7 C                    -0.360613       0.019656
      8 C                     0.189326       0.059172
      9 C                     0.739895       0.029570
     10 C                    -0.411838       0.097117
     11 O                    -0.464055       0.217862
     12 C                    -0.502887       0.144990
     13 O                    -0.455204       0.224020
     14 H                     0.209872      -0.015283
     15 H                     0.174356       0.000519
     16 H                     0.203738      -0.003853
     17 H                     0.202911      -0.001841
     18 H                     0.167890      -0.004419
  --------------------------------------------------------
  Sum of atomic charges =    -1.000000

                    Cartesian Multipole Moments
 -----------------------------------------------------------------
    Charge (ESU x 10^10)
                -4.8032
    Dipole Moment (Debye)
         X     -15.1898      Y      -6.4174      Z       0.8913
       Tot      16.5139
    Quadrupole Moments (Debye-Ang)
        XX    -136.6448     XY     -11.3039     YY    -106.2318
        XZ       1.0900     YZ       2.7123     ZZ     -93.5657

 Total job time:  29.98s(wall), 191.42s(cpu)
        *  Thank you very much for using Q-Chem.  Have a nice day.  *
