 Gaussian 16, Revision A.03,
 Gaussian 16:  ES64L-G16RevA.03 25-Dec-2016

 --------------------------------------
 #P UB3LYP/6-311++G(d,p) nosym opt freq
 --------------------------------------

 -------
 Reduced
 -------
 Symbolic Z-matrix:
 Charge = -2 Multiplicity = 1

 SCF Done:  E(UB3LYP) =  -5990.89065287     A.U. after   24 cycles
 SCF Done:  E(UB3LYP) =  -5990.89065286     A.U. after   13 cycles
 SCF Done:  E(UB3LYP) =  -5990.89065286     A.U. after   13 cycles
 Optimization completed.
    -- Stationary point found.
 Normal termination of Gaussian 16 at Sat Jan  6 06:09:50 2024.

 ----------------------------------------------------------------------
 #P Geom=AllCheck Guess=TCheck SCRF=Check GenChk UB3LYP/6-311++G(d,p) F
 req
 ----------------------------------------------------------------------

 Structure from the checkpoint file:  "021-an.chk"
 -------
 Reduced
 -------
 Charge = -2 Multiplicity = 1

                          Input orientation:
 ---------------------------------------------------------------------
 Center     Atomic      Atomic             Coordinates (Angstroms)
 Number     Number       Type             X           Y           Z
 ---------------------------------------------------------------------
      1         35           0       -1.631840    2.710335    1.057252
      2          6           0       -0.701916    1.132179    0.316844
      3          6           0       -1.435463    0.084921   -0.262090
      4          6           0       -0.740646   -0.947596   -1.037403
      5          8           0       -1.356959   -1.852496   -1.690657
      6          6           0        0.683305   -0.838892   -0.955531
      7          6           0        1.419140    0.172856   -0.319068
      8          6           0        0.718218    1.303525    0.297341
      9          8           0        1.327813    2.313666    0.780454
     10          6           0        2.891013    0.154623   -0.184629
     11          6           0        3.662124    1.317299   -0.392744
     12          6           0        5.046259    1.307172   -0.238315
     13          6           0        5.716007    0.144776    0.154442
     14          6           0        4.966367   -1.010015    0.391156
     15          6           0        3.583484   -1.002079    0.225937
     16         35           0        1.598005   -2.173944   -2.088986
     17          6           0       -2.895891   -0.078663   -0.102931
     18          6           0       -3.717403   -0.440142   -1.191128
     19          6           0       -5.089337   -0.622609   -1.035261
     20          6           0       -5.694960   -0.477187    0.216160
     21          6           0       -4.893520   -0.145495    1.311243
     22          6           0       -3.523371    0.047554    1.152595
     23          1           0        3.146314    2.230569   -0.652544
     24          1           0        5.608284    2.221056   -0.417324
     25          1           0        6.795474    0.141592    0.282456
     26          1           0        5.460721   -1.923744    0.712665
     27          1           0        3.018779   -1.904292    0.423002
     28          1           0       -3.249115   -0.598509   -2.151981
     29          1           0       -5.691967   -0.891484   -1.899924
     30          1           0       -6.764634   -0.628407    0.336916
     31          1           0       -5.336844   -0.041496    2.298816
     32          1           0       -2.917440    0.294924    2.014784
 ---------------------------------------------------------------------

 SCF Done:  E(UB3LYP) =  -5990.89065286     A.U. after    2 cycles

 Alpha  occ. eigenvalues -- -482.57816-482.57814 -62.23093 -62.23091 -56.05094
 Alpha  occ. eigenvalues --  -56.05092 -56.04774 -56.04772 -56.04736 -56.04734
 Alpha  occ. eigenvalues --  -18.79346 -18.79346  -9.97335  -9.97333  -9.97206
 Alpha  occ. eigenvalues --   -9.97204  -9.97002  -9.97001  -9.96788  -9.96787
 Alpha  occ. eigenvalues --   -9.96645  -9.96643  -9.96275  -9.96272  -9.96017
 Alpha  occ. eigenvalues --   -9.96015  -9.95474  -9.95473  -9.93550  -9.93547
 Alpha  occ. eigenvalues --   -8.44047  -8.44045  -6.27071  -6.27069  -6.26003
 Alpha  occ. eigenvalues --   -6.26001  -6.25888  -6.25886  -2.38184  -2.38182
 Alpha  occ. eigenvalues --   -2.37902  -2.37900  -2.37814  -2.37812  -2.36964
 Alpha  occ. eigenvalues --   -2.36962  -2.36962  -2.36960  -0.72232  -0.71802
 Alpha  occ. eigenvalues --   -0.64728  -0.64716  -0.59367  -0.57283  -0.54147
 Alpha  occ. eigenvalues --   -0.53893  -0.53695  -0.53651  -0.51487  -0.46882
 Alpha  occ. eigenvalues --   -0.42331  -0.41260  -0.39597  -0.39569  -0.37977
 Alpha  occ. eigenvalues --   -0.34365  -0.31145  -0.30341  -0.29383  -0.25709
 Alpha  occ. eigenvalues --   -0.25208  -0.24907  -0.23927  -0.22199  -0.21568
 Alpha  occ. eigenvalues --   -0.21409  -0.21006  -0.20806  -0.16799  -0.16409
 Alpha  occ. eigenvalues --   -0.16086  -0.15247  -0.14657  -0.13835  -0.13723
 Alpha  occ. eigenvalues --   -0.13333  -0.13108  -0.11973  -0.10621  -0.10291
 Alpha  occ. eigenvalues --   -0.07687  -0.06010  -0.05519  -0.05470  -0.04487
 Alpha  occ. eigenvalues --   -0.04203  -0.03501  -0.03013   0.00160   0.01711
 Alpha  occ. eigenvalues --    0.02667   0.03005   0.10102
 Alpha virt. eigenvalues --    0.13958   0.13985   0.15843   0.15855   0.17171
 Alpha virt. eigenvalues --    0.17315   0.17353   0.18923   0.19101   0.19561
 Alpha virt. eigenvalues --    0.19625   0.19778   0.20301   0.21042   0.21210

  Beta  occ. eigenvalues -- -482.57816-482.57814 -62.23093 -62.23091 -56.05094
  Beta  occ. eigenvalues --  -56.05092 -56.04774 -56.04772 -56.04736 -56.04734
  Beta  occ. eigenvalues --  -18.79346 -18.79346  -9.97335  -9.97333  -9.97206
  Beta  occ. eigenvalues --   -9.97204  -9.97002  -9.97001  -9.96788  -9.96787
  Beta  occ. eigenvalues --   -9.96645  -9.96643  -9.96275  -9.96272  -9.96017
  Beta  occ. eigenvalues --   -9.96015  -9.95474  -9.95473  -9.93550  -9.93547
  Beta  occ. eigenvalues --   -8.44047  -8.44045  -6.27071  -6.27069  -6.26003
  Beta  occ. eigenvalues --   -6.26001  -6.25888  -6.25886  -2.38184  -2.38182
  Beta  occ. eigenvalues --   -2.37902  -2.37900  -2.37814  -2.37812  -2.36964
  Beta  occ. eigenvalues --   -2.36962  -2.36962  -2.36960  -0.72232  -0.71802
  Beta  occ. eigenvalues --   -0.64728  -0.64716  -0.59367  -0.57283  -0.54147
  Beta  occ. eigenvalues --   -0.53893  -0.53695  -0.53651  -0.51487  -0.46882
  Beta  occ. eigenvalues --   -0.42331  -0.41260  -0.39597  -0.39569  -0.37977
  Beta  occ. eigenvalues --   -0.34365  -0.31145  -0.30341  -0.29383  -0.25709
  Beta  occ. eigenvalues --   -0.25208  -0.24907  -0.23927  -0.22199  -0.21568
  Beta  occ. eigenvalues --   -0.21409  -0.21006  -0.20806  -0.16799  -0.16409
  Beta  occ. eigenvalues --   -0.16086  -0.15247  -0.14657  -0.13835  -0.13723
  Beta  occ. eigenvalues --   -0.13333  -0.13108  -0.11973  -0.10621  -0.10291
  Beta  occ. eigenvalues --   -0.07687  -0.06010  -0.05519  -0.05470  -0.04487
  Beta  occ. eigenvalues --   -0.04203  -0.03501  -0.03013   0.00160   0.01711
  Beta  occ. eigenvalues --    0.02667   0.03005   0.10102
  Beta virt. eigenvalues --    0.13958   0.13985   0.15843   0.15855   0.17171
  Beta virt. eigenvalues --    0.17315   0.17353   0.18923   0.19101   0.19561
  Beta virt. eigenvalues --    0.19625   0.19778   0.20301   0.21042   0.21210

 Mulliken charges and spin densities:
               1          2
     1  Br  -0.335255  -0.000000
     2  C   -0.410109   0.000000
     3  C    1.446676  -0.000000
     4  C   -1.809952   0.000000
     5  O   -0.391844  -0.000000
     6  C   -0.410778   0.000000
     7  C    1.445491   0.000000
     8  C   -1.811711  -0.000000
     9  O   -0.391862   0.000000
    10  C    1.755855   0.000000
    11  C    0.071207  -0.000000
    12  C   -0.215651   0.000000
    13  C   -0.331727  -0.000000
    14  C   -0.532396   0.000000
    15  C   -0.958586  -0.000000
    16  Br  -0.335412   0.000000
    17  C    1.755924   0.000000
    18  C    0.071223  -0.000000
    19  C   -0.215855  -0.000000
    20  C   -0.331391  -0.000000
    21  C   -0.532441   0.000000
    22  C   -0.958605   0.000000
    23  H    0.224259   0.000000
    24  H    0.110719  -0.000000
    25  H    0.088515   0.000000
    26  H    0.108102  -0.000000
    27  H    0.182006  -0.000000
    28  H    0.224301   0.000000
    29  H    0.110724   0.000000
    30  H    0.088524   0.000000
    31  H    0.108119  -0.000000
    32  H    0.181928  -0.000000
 Sum of Mulliken charges =  -2.00000  -0.00000

 Dipole moment (field-independent basis, Debye):
    X=              0.0877    Y=             -1.4189    Z=              3.0869  Tot=              3.3985
 Quadrupole moment (field-independent basis, Debye-Ang):
   XX=           -243.3886   YY=           -204.7901   ZZ=           -180.5463
   XY=             -5.2968   XZ=             -0.2231   YZ=            -24.2511

  Exact polarizability: 600.666 -13.732 281.821 -24.185  51.655 232.024
 Approx polarizability: 852.755 -28.103 488.577 -37.477  94.080 397.814

                      1                      2                      3
                      A                      A                      A
 Frequencies --     21.6606                47.3537                52.7400
 Red. masses --      7.0239                 8.6536                 9.6194
 Frc consts  --      0.0019                 0.0114                 0.0158
 IR Inten    --      0.4985                 4.1498                10.9653

                      4                      5                      6
                      A                      A                      A
 Frequencies --     66.4020                67.5941                70.6268
 Red. masses --      5.8196                 4.5496                 5.6297
 Frc consts  --      0.0151                 0.0122                 0.0165
 IR Inten    --      0.6908                12.9691                 0.0926

                      7                      8                      9
                      A                      A                      A
 Frequencies --     86.0188               141.2697               141.8662
 Red. masses --      6.7694                12.1806                 9.2918
 Frc consts  --      0.0295                 0.1432                 0.1102
 IR Inten    --      2.4508                 1.1893                 2.1731

                     10                     11                     12
                      A                      A                      A
 Frequencies --    182.7773               187.1961               200.8530
 Red. masses --      6.3436                37.0617                 6.6899
 Frc consts  --      0.1249                 0.7652                 0.1590
 IR Inten    --      2.2979                 0.0007                 0.0349

                     13                     14                     15
                      A                      A                      A
 Frequencies --    216.5603               229.5927               276.8468
 Red. masses --      6.9259                 7.2003                 6.5046
 Frc consts  --      0.1914                 0.2236                 0.2937
 IR Inten    --      0.0102                11.1723                 0.2654

                     16                     17                     18
                      A                      A                      A
 Frequencies --    286.8062               330.3001               331.6319
 Red. masses --     11.0428                 8.1257                 7.6158
 Frc consts  --      0.5352                 0.5223                 0.4935
 IR Inten    --     85.8362                 1.4357                 0.0911

                     19                     20                     21
                      A                      A                      A
 Frequencies --    334.8109               420.7033               421.2921
 Red. masses --     10.8265                 4.0501                 2.9593
 Frc consts  --      0.7150                 0.4223                 0.3095
 IR Inten    --      1.6452                 0.3050                 0.0195

                     22                     23                     24
                      A                      A                      A
 Frequencies --    422.2199               478.6471               483.9832
 Red. masses --      4.3587                 5.7766                 7.1769
 Frc consts  --      0.4578                 0.7797                 0.9905
 IR Inten    --     24.6769                 2.8841                 0.3486

                     25                     26                     27
                      A                      A                      A
 Frequencies --    523.9584               545.4115               583.5615
 Red. masses --      3.9652                 6.4700                 5.4762
 Frc consts  --      0.6414                 1.1340                 1.0988
 IR Inten    --     13.2527                26.3297                15.1584

                     28                     29                     30
                      A                      A                      A
 Frequencies --    629.6398               630.7897               633.0011
 Red. masses --      6.8710                 6.2498                 6.6687
 Frc consts  --      1.6049                 1.4652                 1.5743
 IR Inten    --      3.0516                 0.1746                 0.5619

                     31                     32                     33
                      A                      A                      A
 Frequencies --    688.5506               688.9527               700.2040
 Red. masses --      1.4787                 1.5032                 5.9234
 Frc consts  --      0.4131                 0.4204                 1.7111
 IR Inten    --     51.8302                41.6490                 0.8265

                     34                     35                     36
                      A                      A                      A
 Frequencies --    705.0063               727.7696               731.1031
 Red. masses --      6.8423                 4.1925                 8.0009
 Frc consts  --      2.0037                 1.3083                 2.5197
 IR Inten    --     85.2328                 9.5271                 8.7135

                     37                     38                     39
                      A                      A                      A
 Frequencies --    763.0983               776.0524               779.3096
 Red. masses --      3.7077                 6.0151                 3.4418
 Frc consts  --      1.2721                 2.1344                 1.2315
 IR Inten    --     15.2106                12.8183                 3.3131

                     40                     41                     42
                      A                      A                      A
 Frequencies --    819.6161               820.1931               871.8287
 Red. masses --      1.2616                 1.2671                 3.9991
 Frc consts  --      0.4993                 0.5022                 1.7909
 IR Inten    --     10.9498                 0.8097               153.0177

                     43                     44                     45
                      A                      A                      A
 Frequencies --    883.9634               887.7387               934.2447
 Red. masses --      1.9479                 1.6220                 7.3756
 Frc consts  --      0.8968                 0.7532                 3.7929
 IR Inten    --     43.6965                 9.1853                 0.0012

                     46                     47                     48
                      A                      A                      A
 Frequencies --    947.4076               948.1267               954.8064
 Red. masses --      1.2972                 1.3097                 1.3036
 Frc consts  --      0.6860                 0.6937                 0.7002
 IR Inten    --      3.7301                 0.6007                 1.4859

                     49                     50                     51
                      A                      A                      A
 Frequencies --    956.0452              1006.4606              1009.2873
 Red. masses --      1.3143                 6.2967                 6.2898
 Frc consts  --      0.7078                 3.7580                 3.7750
 IR Inten    --      0.7068               227.0801                 0.9113

                     52                     53                     54
                      A                      A                      A
 Frequencies --   1036.4309              1045.7768              1052.3847
 Red. masses --      4.5770                 2.1113                 2.5538
 Frc consts  --      2.8967                 1.3605                 1.6664
 IR Inten    --    315.8334                 0.9458               100.3820

                     55                     56                     57
                      A                      A                      A
 Frequencies --   1086.8816              1089.0846              1120.4230
 Red. masses --      2.0464                 1.6319                 5.0367
 Frc consts  --      1.4243                 1.1405                 3.7253
 IR Inten    --    178.4683                 8.3950               268.8865

                     58                     59                     60
                      A                      A                      A
 Frequencies --   1163.6905              1163.7642              1193.5871
 Red. masses --      1.0874                 1.0837                 1.1849
 Frc consts  --      0.8676                 0.8647                 0.9945
 IR Inten    --      0.1079                 0.2005                16.5585

                     61                     62                     63
                      A                      A                      A
 Frequencies --   1194.0336              1209.1346              1240.0018
 Red. masses --      1.1589                 4.6771                 4.7876
 Frc consts  --      0.9735                 4.0288                 4.3372
 IR Inten    --      0.2382                40.2538                 1.1081

                     64                     65                     66
                      A                      A                      A
 Frequencies --   1300.1641              1319.1144              1333.0545
 Red. masses --      3.8757                 4.0910                 9.7975
 Frc consts  --      3.8601                 4.1941                10.2580
 IR Inten    --      0.0008                14.2088                 0.3390

                     67                     68                     69
                      A                      A                      A
 Frequencies --   1349.2480              1352.1403              1382.3807
 Red. masses --      1.6460                 1.6262                 8.6207
 Frc consts  --      1.7655                 1.7517                 9.7062
 IR Inten    --      7.4433                 0.3161               598.9606

                     70                     71                     72
                      A                      A                      A
 Frequencies --   1409.7840              1452.1166              1459.1459
 Red. masses --     10.6830                 2.9008                 2.3184
 Frc consts  --     12.5098                 3.6038                 2.9083
 IR Inten    --      3.7701               219.5328                 0.8679

                     73                     74                     75
                      A                      A                      A
 Frequencies --   1474.8546              1513.0452              1515.9790
 Red. masses --      4.3889                 2.1859                 2.3555
 Frc consts  --      5.6248                 2.9483                 3.1895
 IR Inten    --    339.7351                 1.7988               243.3626

                     76                     77                     78
                      A                      A                      A
 Frequencies --   1569.1622              1588.2123              1588.7310
 Red. masses --      9.5165                 5.1328                 5.2681
 Frc consts  --     13.8059                 7.6281                 7.8344
 IR Inten    --      0.3945                 0.0950                 0.3921

                     79                     80                     81
                      A                      A                      A
 Frequencies --   1612.1641              1620.2519              3109.9015
 Red. masses --      5.3529                 5.6161                 1.0823
 Frc consts  --      8.1971                 8.6866                 6.1671
 IR Inten    --    588.5492                 1.6611                11.1766

                     82                     83                     84
                      A                      A                      A
 Frequencies --   3110.0476              3122.6994              3122.7434
 Red. masses --      1.0823                 1.0888                 1.0888
 Frc consts  --      6.1680                 6.2556                 6.2558
 IR Inten    --      0.3230                74.4353                75.3840

                     85                     86                     87
                      A                      A                      A
 Frequencies --   3142.9182              3143.2420              3190.3993
 Red. masses --      1.0954                 1.0952                 1.0914
 Frc consts  --      6.3749                 6.3754                 6.5451
 IR Inten    --    286.1821                 3.4797                 9.0130

                     88                     89                     90
                      A                      A                      A
 Frequencies --   3190.4858              3214.8356              3214.9012
 Red. masses --      1.0914                 1.0919                 1.0919
 Frc consts  --      6.5455                 6.6487                 6.6490
 IR Inten    --      9.8920                 6.5859                 6.6935

 - Thermochemistry -
 -------------------
 Temperature   298.150 Kelvin.  Pressure   1.00000 Atm.
 Atom     1 has atomic number 35 and mass  78.91834

 Molecular mass:   415.90475 amu.
 Principal axes and moments of inertia in atomic units:
                           1         2         3
     Eigenvalues --  6029.22340********************
           X            0.97096   0.23693   0.03324
           Y           -0.18465   0.83046  -0.52559
           Z           -0.15213   0.50419   0.85009
 This molecule is an asymmetric top.
 Rotational symmetry number  1.
 Warning -- assumption of classical behavior for rotation
           may cause significant error
 Rotational temperatures (Kelvin)      0.01437     0.00628     0.00458
 Rotational constants (GHZ):           0.29933     0.13077     0.09548
 Zero-point vibrational energy     578052.3 (Joules/Mol)
                                  138.15781 (Kcal/Mol)
 Warning -- explicit consideration of  27 degrees of freedom as
           vibrations may cause significant error
 Vibrational temperatures:     31.16    68.13    75.88    95.54    97.25
          (Kelvin)            101.62   123.76   203.26   204.11   262.98
                              269.33   288.98   311.58   330.33   398.32
                              412.65   475.23   477.14   481.72   605.30
                              606.15   607.48   688.67   696.34   753.86
                              784.73   839.61   905.91   907.57   910.75
                              990.67   991.25  1007.44  1014.35  1047.10
                             1051.89  1097.93  1116.57  1121.25  1179.24
                             1180.07  1254.37  1271.83  1277.26  1344.17
                             1363.11  1364.14  1373.75  1375.54  1448.07
                             1452.14  1491.19  1504.64  1514.15  1563.78
                             1566.95  1612.04  1674.29  1674.40  1717.31
                             1717.95  1739.68  1784.09  1870.65  1897.91
                             1917.97  1941.27  1945.43  1988.94  2028.36
                             2089.27  2099.39  2121.99  2176.93  2181.16
                             2257.67  2285.08  2285.83  2319.54  2331.18
                             4474.45  4474.66  4492.87  4492.93  4521.96
                             4522.42  4590.27  4590.40  4625.43  4625.53

 Zero-point correction=                           0.220168 (Hartree/Particle)
 Thermal correction to Energy=                    0.239106
 Thermal correction to Enthalpy=                  0.240051
 Thermal correction to Gibbs Free Energy=         0.170216
 Sum of electronic and zero-point Energies=          -5990.670484
 Sum of electronic and thermal Energies=             -5990.651547
 Sum of electronic and thermal Enthalpies=           -5990.650602
 Sum of electronic and thermal Free Energies=        -5990.720437

                     E (Thermal)             CV                S
                      KCal/Mol        Cal/Mol-Kelvin    Cal/Mol-Kelvin
 Total                  150.041             71.552            146.979
 Electronic               0.000              0.000              0.000
 Translational            0.889              2.981             43.967
 Rotational               0.889              2.981             35.707
 Vibrational            148.264             65.591             67.305
 Vibration     1          0.593              1.985              6.476
 Vibration     2          0.595              1.979              4.925
 Vibration     3          0.596              1.977              4.712
 Vibration     4          0.598              1.970              4.257
 Vibration     5          0.598              1.970              4.222
 Vibration     6          0.598              1.968              4.136
 Vibration     7          0.601              1.959              3.749
 Vibration     8          0.615              1.912              2.787
 Vibration     9          0.615              1.911              2.779
 Vibration    10          0.630              1.863              2.300
 Vibration    11          0.632              1.857              2.255
 Vibration    12          0.638              1.839              2.125
 Vibration    13          0.645              1.816              1.988
 Vibration    14          0.652              1.796              1.882
 Vibration    15          0.678              1.716              1.553
 Vibration    16          0.684              1.698              1.493
 Vibration    17          0.713              1.615              1.259
 Vibration    18          0.714              1.612              1.252
 Vibration    19          0.716              1.606              1.237
 Vibration    20          0.783              1.425              0.890
 Vibration    21          0.784              1.424              0.888
 Vibration    22          0.785              1.422              0.884
 Vibration    23          0.835              1.297              0.714
 Vibration    24          0.840              1.286              0.699
 Vibration    25          0.879              1.197              0.601
 Vibration    26          0.901              1.150              0.554
 Vibration    27          0.940              1.067              0.479

 Optimization completed.
    -- Stationary point found.
 Normal termination of Gaussian 16 at Sat Jan  6 07:43:02 2024.
