 Gaussian 16, Revision A.03,
 Gaussian 16:  ES64L-G16RevA.03 25-Dec-2016

 ----------------------------------------------------------------
 #P UB3LYP/6-311++G(d,p) SCRF=(PCM,Solvent=n,n-DiMethylFormamide)
 ----------------------------------------------------------------

 -------
 Reduced
 -------
 Symbolic Z-matrix:
 Charge = -2 Multiplicity = 1

                         Standard orientation:
 ---------------------------------------------------------------------
 Center     Atomic      Atomic             Coordinates (Angstroms)
 Number     Number       Type             X           Y           Z
 ---------------------------------------------------------------------
      1         35           0       -2.087679    2.586384   -0.304931
      2          6           0       -0.883002    1.037528   -0.073980
      3          6           0       -1.403386   -0.265567   -0.040083
      4          6           0       -0.495922   -1.413510   -0.133399
      5          8           0       -0.910323   -2.615033   -0.233605
      6          6           0        0.882847   -1.037242   -0.073607
      7          6           0        1.403262    0.265909   -0.039860
      8          6           0        0.495915    1.413791   -0.133416
      9          8           0        0.910245    2.615343   -0.233382
     10          6           0        2.839278    0.570570    0.132929
     11          6           0        3.474432    1.573119   -0.629446
     12          6           0        4.820657    1.879898   -0.446841
     13          6           0        5.582706    1.218064    0.520238
     14          6           0        4.964326    0.240489    1.303493
     15          6           0        3.620882   -0.073459    1.112909
     16         35           0        2.087653   -2.585994   -0.305060
     17          6           0       -2.839398   -0.570481    0.132655
     18          6           0       -3.474239   -1.573213   -0.629727
     19          6           0       -4.820301   -1.880609   -0.446922
     20          6           0       -5.582452   -1.219161    0.520339
     21          6           0       -4.964377   -0.241370    1.303563
     22          6           0       -3.621100    0.073195    1.112773
     23          1           0        2.880209    2.119922   -1.347445
     24          1           0        5.278301    2.652484   -1.060660
     25          1           0        6.631114    1.465171    0.666613
     26          1           0        5.530222   -0.278681    2.073479
     27          1           0        3.156983   -0.827416    1.735854
     28          1           0       -2.879844   -2.119807   -1.347740
     29          1           0       -5.277715   -2.653382   -1.060677
     30          1           0       -6.630718   -1.466759    0.666919
     31          1           0       -5.530377    0.277470    2.073695
     32          1           0       -3.157394    0.827173    1.735836
 ---------------------------------------------------------------------

 SCF Done:  E(UB3LYP) =  -5991.13734989     A.U. after   17 cycles

 The electronic state is 1-A.
 Alpha  occ. eigenvalues -- -482.80055-482.80054 -62.45337 -62.45335 -56.27341
 Alpha  occ. eigenvalues --  -56.27340 -56.27013 -56.27012 -56.26979 -56.26978
 Alpha  occ. eigenvalues --  -19.02528 -19.02528 -10.19400 -10.19399 -10.18695
 Alpha  occ. eigenvalues --  -10.18692 -10.17265 -10.17265 -10.16532 -10.16532
 Alpha  occ. eigenvalues --  -10.16481 -10.16481 -10.16402 -10.16402 -10.16157
 Alpha  occ. eigenvalues --  -10.16156 -10.15784 -10.15784 -10.15734 -10.15731
 Alpha  occ. eigenvalues --   -8.66295  -8.66294  -6.49325  -6.49324  -6.48241
 Alpha  occ. eigenvalues --   -6.48240  -6.48139  -6.48138  -2.60437  -2.60435
 Alpha  occ. eigenvalues --   -2.60147  -2.60146  -2.60070  -2.60068  -2.59208
 Alpha  occ. eigenvalues --   -2.59206  -2.59206  -2.59204  -0.95421  -0.95049
 Alpha  occ. eigenvalues --   -0.84910  -0.84820  -0.81407  -0.78883  -0.75229
 Alpha  occ. eigenvalues --   -0.75018  -0.73533  -0.73523  -0.73018  -0.68117
 Alpha  occ. eigenvalues --   -0.64855  -0.61704  -0.59476  -0.59419  -0.58011
 Alpha  occ. eigenvalues --   -0.54901  -0.52544  -0.50776  -0.49358  -0.46948
 Alpha  occ. eigenvalues --   -0.45235  -0.44948  -0.44046  -0.42999  -0.42076
 Alpha  occ. eigenvalues --   -0.41249  -0.40928  -0.40915  -0.38591  -0.37787
 Alpha  occ. eigenvalues --   -0.37053  -0.36635  -0.35904  -0.35866  -0.34429
 Alpha  occ. eigenvalues --   -0.33884  -0.33319  -0.33213  -0.33082  -0.32710
 Alpha  occ. eigenvalues --   -0.29818  -0.28113  -0.27309  -0.26986  -0.25262
 Alpha  occ. eigenvalues --   -0.25114  -0.24566  -0.24364  -0.22352  -0.20541
 Alpha  occ. eigenvalues --   -0.20151  -0.20091  -0.12889
 Alpha virt. eigenvalues --   -0.03261  -0.01219  -0.00450  -0.00180  -0.00038
 Alpha virt. eigenvalues --    0.00108   0.00543   0.00578   0.01813   0.01899
 Alpha virt. eigenvalues --    0.02058   0.03329   0.03390   0.03501   0.03843

  Beta  occ. eigenvalues -- -482.80055-482.80054 -62.45337 -62.45335 -56.27341
  Beta  occ. eigenvalues --  -56.27340 -56.27013 -56.27012 -56.26979 -56.26978
  Beta  occ. eigenvalues --  -19.02528 -19.02528 -10.19400 -10.19399 -10.18695
  Beta  occ. eigenvalues --  -10.18692 -10.17265 -10.17265 -10.16532 -10.16532
  Beta  occ. eigenvalues --  -10.16481 -10.16481 -10.16402 -10.16402 -10.16157
  Beta  occ. eigenvalues --  -10.16156 -10.15784 -10.15784 -10.15734 -10.15731
  Beta  occ. eigenvalues --   -8.66295  -8.66294  -6.49325  -6.49324  -6.48241
  Beta  occ. eigenvalues --   -6.48240  -6.48139  -6.48138  -2.60437  -2.60435
  Beta  occ. eigenvalues --   -2.60147  -2.60146  -2.60070  -2.60068  -2.59208
  Beta  occ. eigenvalues --   -2.59206  -2.59206  -2.59204  -0.95421  -0.95049
  Beta  occ. eigenvalues --   -0.84910  -0.84820  -0.81407  -0.78883  -0.75229
  Beta  occ. eigenvalues --   -0.75018  -0.73533  -0.73523  -0.73018  -0.68117
  Beta  occ. eigenvalues --   -0.64855  -0.61704  -0.59476  -0.59419  -0.58011
  Beta  occ. eigenvalues --   -0.54901  -0.52544  -0.50776  -0.49358  -0.46948
  Beta  occ. eigenvalues --   -0.45235  -0.44948  -0.44046  -0.42999  -0.42076
  Beta  occ. eigenvalues --   -0.41249  -0.40928  -0.40915  -0.38591  -0.37787
  Beta  occ. eigenvalues --   -0.37053  -0.36635  -0.35904  -0.35866  -0.34429
  Beta  occ. eigenvalues --   -0.33884  -0.33319  -0.33213  -0.33082  -0.32710
  Beta  occ. eigenvalues --   -0.29818  -0.28113  -0.27309  -0.26986  -0.25262
  Beta  occ. eigenvalues --   -0.25114  -0.24566  -0.24364  -0.22352  -0.20541
  Beta  occ. eigenvalues --   -0.20151  -0.20091  -0.12889
  Beta virt. eigenvalues --   -0.03261  -0.01219  -0.00450  -0.00180  -0.00038
  Beta virt. eigenvalues --    0.00108   0.00543   0.00578   0.01813   0.01899
  Beta virt. eigenvalues --    0.02058   0.03329   0.03390   0.03501   0.03843

 Mulliken charges and spin densities:
               1          2
     1  Br  -0.233985  -0.000000
     2  C   -0.528492  -0.000000
     3  C    1.179711   0.000000
     4  C   -1.481736   0.000000
     5  O   -0.530022  -0.000000
     6  C   -0.529013   0.000000
     7  C    1.178419  -0.000000
     8  C   -1.483196   0.000000
     9  O   -0.530056  -0.000000
    10  C    1.513799   0.000000
    11  C    0.097835   0.000000
    12  C   -0.268348   0.000000
    13  C   -0.361065   0.000000
    14  C   -0.543883  -0.000000
    15  C   -0.783552  -0.000000
    16  Br  -0.234168  -0.000000
    17  C    1.513323  -0.000000
    18  C    0.098022  -0.000000
    19  C   -0.268502   0.000000
    20  C   -0.360785  -0.000000
    21  C   -0.544017   0.000000
    22  C   -0.783290   0.000000
    23  H    0.212624   0.000000
    24  H    0.182611  -0.000000
    25  H    0.170499   0.000000
    26  H    0.182094  -0.000000
    27  H    0.193668   0.000000
    28  H    0.212656  -0.000000
    29  H    0.182613   0.000000
    30  H    0.170507   0.000000
    31  H    0.182105  -0.000000
    32  H    0.193624   0.000000
 Sum of Mulliken charges =  -2.00000  -0.00000

 Dipole moment (field-independent basis, Debye):
    X=             -0.0017    Y=             -0.0011    Z=              1.7534  Tot=              1.7534
 Quadrupole moment (field-independent basis, Debye-Ang):
   XX=           -190.6475   YY=           -221.6606   ZZ=           -160.8108
   XY=             -4.0254   XZ=             -0.0047   YZ=             -0.0027

 Normal termination of Gaussian 16 at Sun Jan 21 07:43:16 2024.
