 Q-Chem 5.4, Q-Chem, Inc., Pleasanton, CA (2021)
 Q-Chem 5.4.0 for Intel X86 EM64T Linux

User input:
--------------------------------------------------------------
$molecule
0 1
C                  5.7783550000     -5.7449950000      0.4324750000
C                  5.8915460000     -5.9159770000     -0.9433700000
C                  5.1955730000     -5.0741980000     -1.8150200000
C                  4.9667200000     -4.7291320000      0.9431690000
C                  4.2694010000     -3.8846790000      0.0696640000
C                  4.3866830000     -4.0607550000     -1.3113430000
C                  4.8419270000     -4.5466070000      2.4156380000
C                  3.9604220000     -3.4562570000      2.9366320000
C                  3.3018370000     -2.6215980000      2.0932030000
C                  3.4057650000     -2.7967500000      0.6088090000
O                  5.4459840000     -5.2704850000      3.1931950000
O                  2.7906970000     -2.0574410000     -0.1453280000
H                  6.5211840000     -6.7044720000     -1.3397660000
C                  2.4003960000     -1.4992990000      2.5429810000
H                  5.2861090000     -5.2105600000     -2.8867100000
C                  3.8945740000     -3.3811420000      4.4362240000
C                  0.9301720000     -1.9405310000      2.7060350000
C                  0.0104290000     -0.7867590000      3.1192160000
C                 -1.4544440000     -1.2070390000      3.2843080000
H                  6.3083510000     -6.3856520000      1.1264010000
H                  3.8391670000     -3.3968460000     -1.9687740000
H                  2.4419670000     -0.7063470000      1.7934000000
H                  2.7625620000     -1.0784780000      3.4836170000
H                  3.6258640000     -4.3569530000      4.8482140000
H                  3.1782600000     -2.6415900000      4.7859810000
H                  4.8801190000     -3.1434770000      4.8481100000
H                  0.8711180000     -2.7435980000      3.4503750000
H                  0.5805810000     -2.3655550000      1.7593980000
H                  0.0767290000      0.0117220000      2.3697560000
H                  0.3712460000     -0.3526310000      4.0609490000
H                 -1.5197410000     -2.0087190000      4.0313910000
H                 -1.8137230000     -1.6398390000      2.3419650000
C                 -2.3790050000     -0.0558650000      3.6966590000
C                 -3.8447770000     -0.4739980000      3.8591000000
C                 -4.7703000000      0.6769200000      4.2697270000
C                 -6.2363180000      0.2592000000      4.4314530000
C                 -7.1622890000      1.4097590000      4.8413550000
H                 -2.3123320000      0.7459430000      2.9500060000
H                 -2.0197580000      0.3769470000      4.6394150000
H                 -3.9115520000     -1.2757750000      4.6060010000
H                 -4.2033330000     -0.9074310000      2.9164690000
H                 -4.7032210000      1.4786130000      3.5228400000
H                 -4.4118520000      1.1104600000      5.2124470000
H                 -6.3035220000     -0.5424260000      5.1785110000
H                 -6.5945550000     -0.1745470000      3.4887540000
H                 -7.0957960000      2.2119930000      4.0947040000
H                 -6.8052400000      1.8439180000      5.7845130000
C                 -8.6287260000      0.9932540000      5.0027230000
C                 -9.5458420000      2.1494120000      5.4122580000
H                 -8.6958490000      0.1922500000      5.7490980000
H                 -8.9860970000      0.5602340000      4.0604160000
H                 -9.2352390000      2.5808910000      6.3691850000
H                -10.5830500000      1.8193430000      5.5184800000
H                 -9.5274960000      2.9516820000      4.6677000000
$end
$rem
MAX_SCF_CYCLES=200
BASIS  =  6-311++G(d,p)
GUI  =  2
JOB_TYPE  =  SP
METHOD  =  B3LYP
SCF_ALGORITHM = RCA_DIIS
THRESH = 14
SCF_CONVERGENCE = 8
scf_guess = GWH
SOLVENT_METHOD = PCM
$end
$pcm
theory = CPCM
$end
$solvent
dielectric 37.219
opticaldielectric 1.43
$end

--------------------------------------------------------------

             Standard Nuclear Orientation (Angstroms)
    I     Atom           X                Y                Z
 ----------------------------------------------------------------
    1      C       5.7783550000    -5.7449950000     0.4324750000
    2      C       5.8915460000    -5.9159770000    -0.9433700000
    3      C       5.1955730000    -5.0741980000    -1.8150200000
    4      C       4.9667200000    -4.7291320000     0.9431690000
    5      C       4.2694010000    -3.8846790000     0.0696640000
    6      C       4.3866830000    -4.0607550000    -1.3113430000
    7      C       4.8419270000    -4.5466070000     2.4156380000
    8      C       3.9604220000    -3.4562570000     2.9366320000
    9      C       3.3018370000    -2.6215980000     2.0932030000
   10      C       3.4057650000    -2.7967500000     0.6088090000
   11      O       5.4459840000    -5.2704850000     3.1931950000
   12      O       2.7906970000    -2.0574410000    -0.1453280000
   13      H       6.5211840000    -6.7044720000    -1.3397660000
   14      C       2.4003960000    -1.4992990000     2.5429810000
   15      H       5.2861090000    -5.2105600000    -2.8867100000
   16      C       3.8945740000    -3.3811420000     4.4362240000
   17      C       0.9301720000    -1.9405310000     2.7060350000
   18      C       0.0104290000    -0.7867590000     3.1192160000
   19      C      -1.4544440000    -1.2070390000     3.2843080000
   20      H       6.3083510000    -6.3856520000     1.1264010000
   21      H       3.8391670000    -3.3968460000    -1.9687740000
   22      H       2.4419670000    -0.7063470000     1.7934000000
   23      H       2.7625620000    -1.0784780000     3.4836170000
   24      H       3.6258640000    -4.3569530000     4.8482140000
   25      H       3.1782600000    -2.6415900000     4.7859810000
   26      H       4.8801190000    -3.1434770000     4.8481100000
   27      H       0.8711180000    -2.7435980000     3.4503750000
   28      H       0.5805810000    -2.3655550000     1.7593980000
   29      H       0.0767290000     0.0117220000     2.3697560000
   30      H       0.3712460000    -0.3526310000     4.0609490000
   31      H      -1.5197410000    -2.0087190000     4.0313910000
   32      H      -1.8137230000    -1.6398390000     2.3419650000
   33      C      -2.3790050000    -0.0558650000     3.6966590000
   34      C      -3.8447770000    -0.4739980000     3.8591000000
   35      C      -4.7703000000     0.6769200000     4.2697270000
   36      C      -6.2363180000     0.2592000000     4.4314530000
   37      C      -7.1622890000     1.4097590000     4.8413550000
   38      H      -2.3123320000     0.7459430000     2.9500060000
   39      H      -2.0197580000     0.3769470000     4.6394150000
   40      H      -3.9115520000    -1.2757750000     4.6060010000
   41      H      -4.2033330000    -0.9074310000     2.9164690000
   42      H      -4.7032210000     1.4786130000     3.5228400000
   43      H      -4.4118520000     1.1104600000     5.2124470000
   44      H      -6.3035220000    -0.5424260000     5.1785110000
   45      H      -6.5945550000    -0.1745470000     3.4887540000
   46      H      -7.0957960000     2.2119930000     4.0947040000
   47      H      -6.8052400000     1.8439180000     5.7845130000
   48      C      -8.6287260000     0.9932540000     5.0027230000
   49      C      -9.5458420000     2.1494120000     5.4122580000
   50      H      -8.6958490000     0.1922500000     5.7490980000
   51      H      -8.9860970000     0.5602340000     4.0604160000
   52      H      -9.2352390000     2.5808910000     6.3691850000
   53      H     -10.5830500000     1.8193430000     5.5184800000
   54      H      -9.5274960000     2.9516820000     4.6677000000
 ----------------------------------------------------------------

   86   -1007.1740796614      7.13E-09 Convergence criterion met
 Total energy in the final basis set = -1007.17407966

                    Orbital Energies (a.u.)
 --------------------------------------------------------------

 Alpha MOs
 -- Occupied --
-19.1325 -19.1323 -10.2804 -10.2798 -10.2115 -10.2088 -10.2047 -10.2042
-10.1954 -10.1952 -10.1949 -10.1945 -10.1729 -10.1703 -10.1662 -10.1594
-10.1583 -10.1573 -10.1563 -10.1559 -10.1558 -10.1557 -10.1556 -10.1520
 -1.0668  -1.0650  -0.8882  -0.8504  -0.8107  -0.8000  -0.7868  -0.7758
 -0.7752  -0.7532  -0.7287  -0.7052  -0.6814  -0.6704  -0.6414  -0.6250
 -0.6081  -0.5904  -0.5804  -0.5764  -0.5705  -0.5683  -0.5490  -0.5170
 -0.4991  -0.4836  -0.4761  -0.4690  -0.4602  -0.4597  -0.4568  -0.4493
 -0.4477  -0.4334  -0.4285  -0.4261  -0.4237  -0.4197  -0.4101  -0.4088
 -0.4015  -0.3969  -0.3938  -0.3853  -0.3796  -0.3762  -0.3736  -0.3667
 -0.3656  -0.3535  -0.3463  -0.3391  -0.3342  -0.3305  -0.3250  -0.3213
 -0.3196  -0.3169  -0.3161  -0.2986  -0.2888  -0.2875  -0.2768  -0.2712
 -0.2680

          Ground-State Mulliken Net Atomic Charges

     Atom                 Charge (a.u.)
  ----------------------------------------
      1 C                     0.250218
      2 C                    -0.486195
      3 C                    -0.413966
      4 C                    -0.026419
      5 C                    -0.180111
      6 C                     0.197052
      7 C                    -0.271056
      8 C                     0.862622
      9 C                     0.983284
     10 C                    -0.852904
     11 O                    -0.293948
     12 O                    -0.277409
     13 H                     0.219943
     14 C                    -0.598542
     15 H                     0.219325
     16 C                    -0.494686
     17 C                    -0.986510
     18 C                    -0.344385
     19 C                    -0.064488
     20 H                     0.201078
     21 H                     0.199806
     22 H                     0.226215
     23 H                     0.229568
     24 H                     0.191500
     25 H                     0.153410
     26 H                     0.213047
     27 H                     0.154031
     28 H                     0.197492
     29 H                     0.127603
     30 H                     0.134280
     31 H                     0.136124
     32 H                     0.133118
     33 C                     0.021685
     34 C                     0.039727
     35 C                    -0.053907
     36 C                    -0.301578
     37 C                    -0.482863
     38 H                     0.137667
     39 H                     0.136954
     40 H                     0.134538
     41 H                     0.134376
     42 H                     0.133400
     43 H                     0.133889
     44 H                     0.131695
     45 H                     0.131983
     46 H                     0.128539
     47 H                     0.128474
     48 C                    -0.295523
     49 C                    -0.710118
     50 H                     0.135303
     51 H                     0.135288
     52 H                     0.144586
     53 H                     0.152147
     54 H                     0.144639
  ----------------------------------------
  Sum of atomic charges =     0.000000

                    Cartesian Multipole Moments
 -----------------------------------------------------------------
    Charge (ESU x 10^10)
                -0.0000
    Dipole Moment (Debye)
         X      -0.0572      Y      -0.3279      Z      -0.4246
       Tot       0.5395
    Quadrupole Moments (Debye-Ang)
        XX    -151.6664     XY      -0.6864     YY    -149.6585
        XZ     -13.5622     YZ      15.3423     ZZ    -141.4556

 Total job time:  3013.85s(wall), 17825.39s(cpu)
        *  Thank you very much for using Q-Chem.  Have a nice day.  *
