 Gaussian 16, Revision A.03,
 Gaussian 16:  ES64L-G16RevA.03 25-Dec-2016

 ----------------------------------------------------------------
 #P UB3LYP/6-311++G(d,p) SCRF=(PCM,Solvent=n,n-DiMethylFormamide)
 ----------------------------------------------------------------

 ------------------
 Radical PCM in DMF
 ------------------
 Symbolic Z-matrix:
 Charge = -1 Multiplicity = 2

                         Standard orientation:
 ---------------------------------------------------------------------
 Center     Atomic      Atomic             Coordinates (Angstroms)
 Number     Number       Type             X           Y           Z
 ---------------------------------------------------------------------
      1          6           0       -0.502004    1.017961   -0.439889
      2          6           0        0.925660    1.147292   -0.217144
      3          6           0        1.806952    0.106871   -0.058103
      4          6           0        1.285408   -1.265405   -0.095085
      5          6           0       -0.140134   -1.406858   -0.288167
      6          6           0       -1.001969   -0.350637   -0.460624
      7          8           0       -1.233986    2.034652   -0.592592
      8          8           0        2.015153   -2.291579    0.045230
      9         16           0       -2.719646   -0.691054   -0.837250
     10          6           0       -3.638688    0.345721    0.400567
     11          6           0       -5.117477    0.316522    0.013610
     12          6           0       -3.404923   -0.132494    1.832115
     13          6           0        3.313284    0.334554    0.159212
     14          6           0        3.687411    1.828873    0.170517
     15          6           0        4.112664   -0.344427   -0.979753
     16          6           0        3.742450   -0.270744    1.518068
     17          1           0        1.263951    2.176744   -0.197417
     18          1           0       -0.512997   -2.425803   -0.292505
     19          1           0       -3.236614    1.350962    0.270071
     20          1           0       -5.270518    0.708899   -0.994847
     21          1           0       -5.700341    0.929222    0.710629
     22          1           0       -5.518916   -0.702746    0.048811
     23          1           0       -2.340176   -0.138160    2.074009
     24          1           0       -3.791858   -1.146653    1.977481
     25          1           0       -3.909885    0.535491    2.542210
     26          1           0        3.180578    2.370091    0.974849
     27          1           0        3.439298    2.318584   -0.775666
     28          1           0        4.766837    1.930830    0.327167
     29          1           0        3.845929    0.093492   -1.947274
     30          1           0        3.899012   -1.412493   -1.009506
     31          1           0        5.189353   -0.198083   -0.826376
     32          1           0        3.210986    0.220361    2.339997
     33          1           0        4.818684   -0.124797    1.675002
     34          1           0        3.519874   -1.337038    1.546316
 ---------------------------------------------------------------------

 SCF Done:  E(UB3LYP) =  -1055.20804272     A.U. after   20 cycles

 The electronic state is 2-A.
 Alpha  occ. eigenvalues --  -88.83500 -19.07647 -19.07398 -10.22206 -10.21854
 Alpha  occ. eigenvalues --  -10.19536 -10.19113 -10.18189 -10.17138 -10.16288
 Alpha  occ. eigenvalues --  -10.16154 -10.15784 -10.15775 -10.15063 -10.14576
 Alpha  occ. eigenvalues --  -10.14569  -7.92125  -5.88499  -5.88142  -5.87534
 Alpha  occ. eigenvalues --   -0.99997  -0.99567  -0.83642  -0.81837  -0.79698
 Alpha  occ. eigenvalues --   -0.74687  -0.69706  -0.68715  -0.67911  -0.67514
 Alpha  occ. eigenvalues --   -0.66578  -0.59709  -0.57893  -0.55394  -0.52085
 Alpha  occ. eigenvalues --   -0.48031  -0.46804  -0.45997  -0.44351  -0.43281
 Alpha  occ. eigenvalues --   -0.43201  -0.42406  -0.42024  -0.41184  -0.40711
 Alpha  occ. eigenvalues --   -0.40202  -0.38739  -0.38521  -0.37349  -0.36663
 Alpha  occ. eigenvalues --   -0.36605  -0.35419  -0.35354  -0.34502  -0.34215
 Alpha  occ. eigenvalues --   -0.33115  -0.32610  -0.31925  -0.31674  -0.27736
 Alpha  occ. eigenvalues --   -0.25974  -0.24066  -0.23283  -0.21995  -0.16045
 Alpha virt. eigenvalues --   -0.01162  -0.00469   0.00106   0.01023   0.01379
 Alpha virt. eigenvalues --    0.01733   0.02272   0.02505   0.02775   0.03512
 Alpha virt. eigenvalues --    0.03781   0.04011   0.04183   0.04652   0.04981

  Beta  occ. eigenvalues --  -88.83499 -19.06990 -19.06690 -10.22059 -10.21715
  Beta  occ. eigenvalues --  -10.19530 -10.18988 -10.18195 -10.17030 -10.16159
  Beta  occ. eigenvalues --  -10.16154 -10.15774 -10.15709 -10.15064 -10.14569
  Beta  occ. eigenvalues --  -10.14563  -7.92124  -5.88503  -5.88143  -5.87524
  Beta  occ. eigenvalues --   -0.98841  -0.98319  -0.83219  -0.81754  -0.79485
  Beta  occ. eigenvalues --   -0.74499  -0.69243  -0.68712  -0.67865  -0.67491
  Beta  occ. eigenvalues --   -0.65876  -0.59392  -0.57632  -0.55265  -0.51817
  Beta  occ. eigenvalues --   -0.47843  -0.46559  -0.45910  -0.44256  -0.43083
  Beta  occ. eigenvalues --   -0.42984  -0.42195  -0.41920  -0.40894  -0.39691
  Beta  occ. eigenvalues --   -0.39645  -0.38730  -0.37382  -0.37261  -0.36379
  Beta  occ. eigenvalues --   -0.35913  -0.35319  -0.34559  -0.34190  -0.33702
  Beta  occ. eigenvalues --   -0.32955  -0.32426  -0.31871  -0.31228  -0.25962
  Beta  occ. eigenvalues --   -0.24351  -0.23439  -0.22692  -0.21537
  Beta virt. eigenvalues --   -0.08939  -0.00455   0.00034   0.00198   0.01224
  Beta virt. eigenvalues --    0.01635   0.01785   0.02502   0.02637   0.02887
  Beta virt. eigenvalues --    0.03581   0.03842   0.04224   0.04460   0.04895

 Mulliken charges and spin densities:
               1          2
     1  C   -0.744365   0.131024
     2  C   -0.480265   0.013448
     3  C    1.022250   0.119614
     4  C   -0.918121   0.082678
     5  C   -0.621775   0.080316
     6  C    1.704968   0.094720
     7  O   -0.455117   0.234608
     8  O   -0.439509   0.254657
     9  S   -0.541212   0.010869
    10  C    0.238169   0.007360
    11  C   -0.656143   0.001457
    12  C   -0.717538  -0.002621
    13  C    0.594131  -0.030236
    14  C   -0.528799  -0.000758
    15  C   -0.695823   0.011451
    16  C   -0.686217   0.010921
    17  H    0.202288  -0.007051
    18  H    0.203011  -0.010183
    19  H    0.254351  -0.001414
    20  H    0.159612   0.000216
    21  H    0.150123   0.000129
    22  H    0.147183   0.000118
    23  H    0.147491   0.000687
    24  H    0.165812  -0.000172
    25  H    0.142783   0.000263
    26  H    0.132918  -0.000217
    27  H    0.133294  -0.000224
    28  H    0.170531   0.000012
    29  H    0.131136   0.001085
    30  H    0.177405  -0.002153
    31  H    0.150472   0.000206
    32  H    0.132139   0.000866
    33  H    0.148785   0.000107
    34  H    0.176036  -0.001785
 Sum of Mulliken charges =  -1.00000   1.00000

 Dipole moment (field-independent basis, Debye):
    X=             -0.5941    Y=              2.0524    Z=              3.0702  Tot=              3.7405
 Quadrupole moment (field-independent basis, Debye-Ang):
   XX=           -122.5576   YY=           -135.5121   ZZ=           -114.1593
   XY=             13.9096   XZ=             -7.7178   YZ=              3.2992

 Normal termination of Gaussian 16 at Wed Jan 24 22:56:22 2024.
