 Gaussian 16, Revision A.03,
 Gaussian 16:  ES64L-G16RevA.03 25-Dec-2016

 ----------------------------------------------------------------
 #P UB3LYP/6-311++G(d,p) SCRF=(PCM,Solvent=n,n-DiMethylFormamide)
 ----------------------------------------------------------------

 ------------------
 Quinone PCM in DMF
 ------------------
 Symbolic Z-matrix:
 Charge =  0 Multiplicity = 1

                         Standard orientation:
 ---------------------------------------------------------------------
 Center     Atomic      Atomic             Coordinates (Angstroms)
 Number     Number       Type             X           Y           Z
 ---------------------------------------------------------------------
      1          6           0        4.191769    0.903723    0.572590
      2          6           0        4.347996    2.268754    0.353198
      3          6           0        3.311451    3.006124   -0.221941
      4          6           0        2.994411    0.277810    0.217256
      5          6           0        1.950763    1.016656   -0.361780
      6          6           0        2.117829    2.382952   -0.581274
      7          6           0        2.809539   -1.163886    0.455516
      8          6           0        1.497032   -1.778104    0.110349
      9          6           0        0.457560   -1.067249   -0.408439
     10          6           0        0.663971    0.358275   -0.778958
     11          8           0        3.662594   -1.893398    0.950818
     12          8           0       -0.165033    0.985431   -1.411576
     13          8           0        1.421644   -3.086063    0.377726
     14          1           0        4.981878    0.309885    1.015471
     15          1           0        5.275139    2.758210    0.627974
     16          1           0        3.435422    4.069294   -0.393849
     17          1           0        1.306921    2.938641   -1.035290
     18          1           0        2.285715   -3.330889    0.762552
     19         16           0       -1.047471   -1.905102   -0.826119
     20          6           0       -2.318523   -0.761870   -0.267487
     21          6           0       -3.282188   -0.318947   -1.172870
     22          6           0       -2.412740   -0.393571    1.075583
     23          6           0       -4.329198    0.486412   -0.733222
     24          6           0       -3.451364    0.431458    1.497914
     25          6           0       -4.431311    0.879649    0.605234
     26          6           0       -5.578986    1.738420    1.077578
     27          1           0       -3.200380   -0.585430   -2.219517
     28          1           0       -1.679175   -0.751295    1.788735
     29          1           0       -5.069401    0.828853   -1.449373
     30          1           0       -3.506657    0.720221    2.542828
     31          1           0       -5.294647    2.345035    1.940425
     32          1           0       -6.432796    1.120993    1.378037
     33          1           0       -5.924192    2.410731    0.288691
 ---------------------------------------------------------------------

 SCF Done:  E(UB3LYP) =  -1279.17345502     A.U. after   17 cycles

 The electronic state is 1-A.
 Alpha  occ. eigenvalues --  -88.87299 -19.18708 -19.15362 -19.13533 -10.29845
 Alpha  occ. eigenvalues --  -10.29150 -10.27938 -10.23451 -10.21558 -10.21535
 Alpha  occ. eigenvalues --  -10.21497 -10.20515 -10.20337 -10.20184 -10.20166
 Alpha  occ. eigenvalues --  -10.19387 -10.18786 -10.18708 -10.18226 -10.18174
 Alpha  occ. eigenvalues --  -10.16959  -7.95875  -5.92278  -5.91873  -5.91268
 Alpha  occ. eigenvalues --   -1.11757  -1.07266  -1.07211  -0.89793  -0.87989
 Alpha  occ. eigenvalues --   -0.85297  -0.81021  -0.78542  -0.78222  -0.75985
 Alpha  occ. eigenvalues --   -0.74209  -0.70271  -0.67967  -0.66014  -0.63439
 Alpha  occ. eigenvalues --   -0.62199  -0.61149  -0.58811  -0.57968  -0.55140
 Alpha  occ. eigenvalues --   -0.52623  -0.50821  -0.50043  -0.48414  -0.47873
 Alpha  occ. eigenvalues --   -0.47632  -0.47221  -0.46342  -0.45721  -0.45159
 Alpha  occ. eigenvalues --   -0.43412  -0.43307  -0.43174  -0.42528  -0.41705
 Alpha  occ. eigenvalues --   -0.41241  -0.39384  -0.39224  -0.38406  -0.37961
 Alpha  occ. eigenvalues --   -0.37609  -0.36583  -0.35361  -0.34598  -0.31038
 Alpha  occ. eigenvalues --   -0.30478  -0.29159  -0.28806  -0.28391  -0.26880
 Alpha  occ. eigenvalues --   -0.26185  -0.23259
 Alpha virt. eigenvalues --   -0.13118  -0.06157  -0.03695  -0.03241  -0.02370
 Alpha virt. eigenvalues --   -0.01021  -0.00293   0.00229   0.01058   0.01240
 Alpha virt. eigenvalues --    0.01510   0.01884   0.02486   0.02866   0.03299

  Beta  occ. eigenvalues --  -88.87299 -19.18708 -19.15362 -19.13533 -10.29845
  Beta  occ. eigenvalues --  -10.29150 -10.27938 -10.23451 -10.21558 -10.21535
  Beta  occ. eigenvalues --  -10.21497 -10.20515 -10.20337 -10.20184 -10.20166
  Beta  occ. eigenvalues --  -10.19387 -10.18786 -10.18708 -10.18226 -10.18174
  Beta  occ. eigenvalues --  -10.16959  -7.95875  -5.92278  -5.91873  -5.91268
  Beta  occ. eigenvalues --   -1.11757  -1.07266  -1.07211  -0.89793  -0.87989
  Beta  occ. eigenvalues --   -0.85297  -0.81021  -0.78542  -0.78222  -0.75985
  Beta  occ. eigenvalues --   -0.74209  -0.70271  -0.67967  -0.66014  -0.63439
  Beta  occ. eigenvalues --   -0.62199  -0.61149  -0.58811  -0.57968  -0.55140
  Beta  occ. eigenvalues --   -0.52623  -0.50821  -0.50043  -0.48414  -0.47873
  Beta  occ. eigenvalues --   -0.47632  -0.47221  -0.46342  -0.45721  -0.45159
  Beta  occ. eigenvalues --   -0.43412  -0.43307  -0.43174  -0.42528  -0.41705
  Beta  occ. eigenvalues --   -0.41241  -0.39384  -0.39224  -0.38406  -0.37961
  Beta  occ. eigenvalues --   -0.37609  -0.36583  -0.35361  -0.34598  -0.31038
  Beta  occ. eigenvalues --   -0.30478  -0.29159  -0.28806  -0.28391  -0.26880
  Beta  occ. eigenvalues --   -0.26185  -0.23259
  Beta virt. eigenvalues --   -0.13118  -0.06157  -0.03695  -0.03241  -0.02370
  Beta virt. eigenvalues --   -0.01021  -0.00293   0.00229   0.01058   0.01240
  Beta virt. eigenvalues --    0.01510   0.01884   0.02486   0.02866   0.03299

 Mulliken charges and spin densities:
               1          2
     1  C   -0.036257   0.000000
     2  C   -0.479725   0.000000
     3  C   -0.428949   0.000000
     4  C    0.644237  -0.000000
     5  C    0.383879  -0.000000
     6  C    0.086947   0.000000
     7  C   -0.610546  -0.000000
     8  C   -0.652648  -0.000000
     9  C    1.342656   0.000000
    10  C   -0.810683   0.000000
    11  O   -0.305095   0.000000
    12  O   -0.216798  -0.000000
    13  O   -0.169792   0.000000
    14  H    0.202128  -0.000000
    15  H    0.211604  -0.000000
    16  H    0.210734  -0.000000
    17  H    0.208466  -0.000000
    18  H    0.303057  -0.000000
    19  S   -0.184978   0.000000
    20  C    0.901299  -0.000000
    21  C   -0.416446   0.000000
    22  C   -0.388822   0.000000
    23  C   -0.416675  -0.000000
    24  C   -0.515259   0.000000
    25  C    0.467517  -0.000000
    26  C   -0.648997  -0.000000
    27  H    0.213056  -0.000000
    28  H    0.216321   0.000000
    29  H    0.197971  -0.000000
    30  H    0.202117   0.000000
    31  H    0.156997   0.000000
    32  H    0.177470  -0.000000
    33  H    0.155213   0.000000
 Sum of Mulliken charges =  -0.00000  -0.00000

 Dipole moment (field-independent basis, Debye):
    X=              1.6138    Y=              4.1369    Z=              2.1318  Tot=              4.9258
 Quadrupole moment (field-independent basis, Debye-Ang):
   XX=           -105.4642   YY=           -125.1223   ZZ=           -128.1352
   XY=              5.6666   XZ=             -2.3838   YZ=              2.2695

 Normal termination of Gaussian 16 at Thu Jan 25 05:52:06 2024.
