 Q-Chem 5.4, Q-Chem, Inc., Pleasanton, CA (2021)
 Q-Chem 5.4.0 for Intel X86 EM64T Linux

User input:
--------------------------------------------------------------
$molecule
0 1
C                  2.6971390000      2.9820330000      1.5178120000
C                  2.5077500000      1.5046820000      1.6951440000
O                  2.2052160000      0.9287640000      2.7000780000
O                  2.7523120000      0.8518450000      0.5018160000
C                  2.4634490000     -0.5002580000      0.4280360000
C                  3.5219590000     -1.3835400000      0.6046100000
C                  3.3221200000     -2.7541060000      0.4757530000
C                  2.0618140000     -3.2400510000      0.1539260000
C                  1.0016570000     -2.3551370000     -0.0454190000
C                 -0.3188110000     -2.9274610000     -0.4342340000
O                 -0.4979250000     -4.1334060000     -0.4658770000
C                 -1.3986800000     -1.9781120000     -0.8280040000
C                 -2.5737710000     -2.5119180000     -1.3580290000
C                 -3.5931350000     -1.6680120000     -1.7785440000
C                 -3.4411280000     -0.2901360000     -1.6631540000
C                 -2.2809310000      0.2446330000     -1.1155980000
O                 -2.1715000000      1.6247350000     -1.0971910000
C                 -2.4869100000      2.2861210000      0.0747250000
C                 -2.1213500000      3.7361220000     -0.0421850000
O                 -2.9902780000      1.7395260000      1.0132910000
C                 -1.2294980000     -0.5851310000     -0.6857890000
C                  0.0198800000     -0.0291020000     -0.0767470000
O                  0.0894590000      1.1374910000      0.2724910000
C                  1.1768860000     -0.9629810000      0.0974130000
H                  1.8861800000      3.3593380000      0.8908700000
H                  2.6719460000      3.4711080000      2.4892220000
H                  3.6390370000      3.1908700000      1.0074090000
H                  4.4965580000     -0.9774570000      0.8461860000
H                  4.1502270000     -3.4369340000      0.6251620000
H                  1.8742520000     -4.3002800000      0.0438460000
H                 -2.6602500000     -3.5879230000     -1.4362190000
H                 -4.5050040000     -2.0774990000     -2.1970570000
H                 -4.2169770000      0.3907980000     -1.9910240000
H                 -2.5265620000      4.2829060000      0.8065300000
H                 -1.0319980000      3.8158130000     -0.0492370000
H                 -2.4931380000      4.1526610000     -0.9800100000
$end

$rem
BASIS  =  6-311++G(d,p)
GUI  =  2
JOB_TYPE  =  SP
METHOD  =  B3LYP
SCF_CONVERGENCE  = 8
SOLVENT_METHOD = sm12
$end

$smx
solvent dimethylformamide
charges CM5
$end

--------------------------------------------------------------

             Standard Nuclear Orientation (Angstroms)
    I     Atom           X                Y                Z
 ----------------------------------------------------------------
    1      C       2.6971390000     2.9820330000     1.5178120000
    2      C       2.5077500000     1.5046820000     1.6951440000
    3      O       2.2052160000     0.9287640000     2.7000780000
    4      O       2.7523120000     0.8518450000     0.5018160000
    5      C       2.4634490000    -0.5002580000     0.4280360000
    6      C       3.5219590000    -1.3835400000     0.6046100000
    7      C       3.3221200000    -2.7541060000     0.4757530000
    8      C       2.0618140000    -3.2400510000     0.1539260000
    9      C       1.0016570000    -2.3551370000    -0.0454190000
   10      C      -0.3188110000    -2.9274610000    -0.4342340000
   11      O      -0.4979250000    -4.1334060000    -0.4658770000
   12      C      -1.3986800000    -1.9781120000    -0.8280040000
   13      C      -2.5737710000    -2.5119180000    -1.3580290000
   14      C      -3.5931350000    -1.6680120000    -1.7785440000
   15      C      -3.4411280000    -0.2901360000    -1.6631540000
   16      C      -2.2809310000     0.2446330000    -1.1155980000
   17      O      -2.1715000000     1.6247350000    -1.0971910000
   18      C      -2.4869100000     2.2861210000     0.0747250000
   19      C      -2.1213500000     3.7361220000    -0.0421850000
   20      O      -2.9902780000     1.7395260000     1.0132910000
   21      C      -1.2294980000    -0.5851310000    -0.6857890000
   22      C       0.0198800000    -0.0291020000    -0.0767470000
   23      O       0.0894590000     1.1374910000     0.2724910000
   24      C       1.1768860000    -0.9629810000     0.0974130000
   25      H       1.8861800000     3.3593380000     0.8908700000
   26      H       2.6719460000     3.4711080000     2.4892220000
   27      H       3.6390370000     3.1908700000     1.0074090000
   28      H       4.4965580000    -0.9774570000     0.8461860000
   29      H       4.1502270000    -3.4369340000     0.6251620000
   30      H       1.8742520000    -4.3002800000     0.0438460000
   31      H      -2.6602500000    -3.5879230000    -1.4362190000
   32      H      -4.5050040000    -2.0774990000    -2.1970570000
   33      H      -4.2169770000     0.3907980000    -1.9910240000
   34      H      -2.5265620000     4.2829060000     0.8065300000
   35      H      -1.0319980000     3.8158130000    -0.0492370000
   36      H      -2.4931380000     4.1526610000    -0.9800100000
 ----------------------------------------------------------------

   15   -1144.8275317658      8.45e-09  Convergence criterion met
 Total energy in the final basis set =    -1144.8582503852

                    Orbital Energies (a.u.)
 --------------------------------------------------------------

 Alpha MOs
 -- Occupied --
-19.1832 -19.1831 -19.1339 -19.1316 -19.1253 -19.1252 -10.3173 -10.3173
-10.2928 -10.2844 -10.2673 -10.2672 -10.2200 -10.2200 -10.2149 -10.2149
-10.2035 -10.2035 -10.2027 -10.2026 -10.1994 -10.1993 -10.1780 -10.1780
 -1.1271  -1.1262  -1.0704  -1.0670  -1.0450  -1.0441  -0.8999  -0.8879
 -0.8210  -0.7955  -0.7938  -0.7800  -0.7520  -0.7490  -0.6982  -0.6795
 -0.6621  -0.6491  -0.6341  -0.5832  -0.5807  -0.5520  -0.5482  -0.5132
 -0.5089  -0.5039  -0.5027  -0.5015  -0.4973  -0.4907  -0.4836  -0.4779
 -0.4645  -0.4582  -0.4564  -0.4563  -0.4387  -0.4246  -0.4237  -0.4150
 -0.4130  -0.4112  -0.4090  -0.3960  -0.3920  -0.3860  -0.3838  -0.3815
 -0.3814  -0.3684  -0.3377  -0.3314  -0.2981  -0.2980  -0.2949  -0.2896
 -0.2822  -0.2773  -0.2745  -0.2695

          Ground-State Mulliken Net Atomic Charges

     Atom                 Charge (a.u.)
  ----------------------------------------
      1 C                    -0.082093
      2 C                    -0.422482
      3 O                    -0.288225
      4 O                     0.067823
      5 C                    -0.689188
      6 C                     1.009336
      7 C                     0.756948
      8 C                     0.054254
      9 C                    -0.207178
     10 C                    -1.473632
     11 O                    -0.249084
     12 C                    -0.210513
     13 C                     0.057606
     14 C                     0.750860
     15 C                     1.008459
     16 C                    -0.695823
     17 O                     0.068771
     18 C                    -0.424124
     19 C                    -0.080469
     20 O                    -0.287460
     21 C                    -0.314145
     22 C                    -0.918868
     23 O                    -0.195514
     24 C                    -0.317580
     25 H                     0.259960
     26 H                     0.187280
     27 H                     0.236692
     28 H                     0.266125
     29 H                     0.383714
     30 H                     0.207685
     31 H                     0.207872
     32 H                     0.383332
     33 H                     0.266303
     34 H                     0.187068
     35 H                     0.259757
     36 H                     0.236531
  ----------------------------------------
  Sum of atomic charges =     0.000000

                    Cartesian Multipole Moments
 -----------------------------------------------------------------
    Charge (ESU x 10^10)
                 0.0000
    Dipole Moment (Debye)
         X       1.5651      Y       1.7865      Z      -3.9375
       Tot       4.5984
    Quadrupole Moments (Debye-Ang)
        XX    -111.5863     XY      -2.8278     YY    -125.3951
        XZ      12.9512     YZ      -0.2784     ZZ    -146.8870

 Total job time:  1320.89s(wall), 10307.44s(cpu)
        *  Thank you very much for using Q-Chem.  Have a nice day.  *
