 Q-Chem 5.4, Q-Chem, Inc., Pleasanton, CA (2021)
 Q-Chem 5.4.0 for Intel X86 EM64T Linux

User input:
--------------------------------------------------------------
$molecule
0 1
C                 -0.0612050000      1.0504870000     -1.0111950000
C                 -1.0230590000      0.3116710000     -0.3291830000
C                 -0.6746600000     -0.8970460000      0.2763480000
C                  1.2509590000      0.5770620000     -1.0859150000
C                  1.6045070000     -0.6387600000     -0.4778620000
C                  0.6336990000     -1.3715900000      0.2025720000
C                  2.2814360000      1.3476980000     -1.8049530000
C                  3.6682790000      0.8001920000     -1.8501370000
C                  4.0305330000     -0.3756820000     -1.2809600000
C                  3.0122320000     -1.1596580000     -0.5511260000
O                  2.0712420000      2.4146930000     -2.3707120000
O                  3.3025060000     -2.2198270000     -0.0143240000
O                  4.5380110000      1.5754530000     -2.5177520000
H                 -0.3074330000      1.9906650000     -1.4893210000
H                 -2.0422070000      0.6754390000     -0.2685170000
H                 -1.4255560000     -1.4710930000      0.8073060000
H                  0.9206070000     -2.3071570000      0.6663440000
H                  4.0259350000      2.3427770000     -2.8372200000
C                  5.4382530000     -0.8994290000     -1.3348060000
C                  6.2757330000     -0.4882520000     -0.1049220000
H                  5.9233140000     -0.5312040000     -2.2422840000
H                  5.3998710000     -1.9903500000     -1.3872290000
H                  5.7785740000     -0.8494200000      0.8015330000
H                  6.3045220000      0.6053500000     -0.0385790000
C                  7.7040500000     -1.0383390000     -0.1610390000
C                  8.5490750000     -0.6378420000      1.0636230000
C                  9.9607060000     -1.1784190000      1.0166660000
C                 10.9918850000     -0.4531520000      0.4080380000
C                 10.2728360000     -2.4325780000      1.5514950000
C                 11.5625210000     -2.9536610000      1.4748870000
C                 12.5671520000     -2.2134850000      0.8595000000
C                 12.2883620000     -0.9546230000      0.3296940000
O                 13.8518540000     -2.7305090000      0.8881180000
C                 14.6292860000     -2.7475570000     -0.2519020000
C                 14.0971550000     -2.8868990000     -1.5344040000
C                 16.0100580000     -2.6922480000     -0.0604230000
C                 16.8606610000     -2.7722920000     -1.1591440000
C                 14.9610670000     -2.9596900000     -2.6261420000
C                 16.3420720000     -2.9026560000     -2.4475950000
H                  8.2012720000     -0.6834430000     -1.0716600000
H                  7.6738900000     -2.1317650000     -0.2338000000
H                  8.0513820000     -0.9947850000      1.9718610000
H                  8.5789860000      0.4550740000      1.1349080000
H                 10.7831840000      0.5307560000     -0.0006530000
H                  9.4968350000     -3.0144050000      2.0389470000
H                 11.8038110000     -3.9228140000      1.8948090000
H                 13.0782560000     -0.3736380000     -0.1310120000
H                 13.0251720000     -2.9406380000     -1.6759420000
H                 16.3950350000     -2.5904440000      0.9470310000
H                 17.9332310000     -2.7283830000     -1.0064040000
H                 14.5465640000     -3.0694670000     -3.6221670000
H                 17.0064380000     -2.9611930000     -3.3016160000
$end
$rem
MAX_SCF_CYCLES=200
BASIS  =  6-311++G(d,p)
GUI  =  2
JOB_TYPE  =  SP
METHOD  =  B3LYP
SCF_ALGORITHM = DIIS_GDM
THRESH = 14
SOLVENT_METHOD = PCM
$end
$pcm
theory = CPCM
$end
$solvent
dielectric 37.219
opticaldielectric 1.43
$end

--------------------------------------------------------------

             Standard Nuclear Orientation (Angstroms)
    I     Atom           X                Y                Z
 ----------------------------------------------------------------
    1      C      -0.0612050000     1.0504870000    -1.0111950000
    2      C      -1.0230590000     0.3116710000    -0.3291830000
    3      C      -0.6746600000    -0.8970460000     0.2763480000
    4      C       1.2509590000     0.5770620000    -1.0859150000
    5      C       1.6045070000    -0.6387600000    -0.4778620000
    6      C       0.6336990000    -1.3715900000     0.2025720000
    7      C       2.2814360000     1.3476980000    -1.8049530000
    8      C       3.6682790000     0.8001920000    -1.8501370000
    9      C       4.0305330000    -0.3756820000    -1.2809600000
   10      C       3.0122320000    -1.1596580000    -0.5511260000
   11      O       2.0712420000     2.4146930000    -2.3707120000
   12      O       3.3025060000    -2.2198270000    -0.0143240000
   13      O       4.5380110000     1.5754530000    -2.5177520000
   14      H      -0.3074330000     1.9906650000    -1.4893210000
   15      H      -2.0422070000     0.6754390000    -0.2685170000
   16      H      -1.4255560000    -1.4710930000     0.8073060000
   17      H       0.9206070000    -2.3071570000     0.6663440000
   18      H       4.0259350000     2.3427770000    -2.8372200000
   19      C       5.4382530000    -0.8994290000    -1.3348060000
   20      C       6.2757330000    -0.4882520000    -0.1049220000
   21      H       5.9233140000    -0.5312040000    -2.2422840000
   22      H       5.3998710000    -1.9903500000    -1.3872290000
   23      H       5.7785740000    -0.8494200000     0.8015330000
   24      H       6.3045220000     0.6053500000    -0.0385790000
   25      C       7.7040500000    -1.0383390000    -0.1610390000
   26      C       8.5490750000    -0.6378420000     1.0636230000
   27      C       9.9607060000    -1.1784190000     1.0166660000
   28      C      10.9918850000    -0.4531520000     0.4080380000
   29      C      10.2728360000    -2.4325780000     1.5514950000
   30      C      11.5625210000    -2.9536610000     1.4748870000
   31      C      12.5671520000    -2.2134850000     0.8595000000
   32      C      12.2883620000    -0.9546230000     0.3296940000
   33      O      13.8518540000    -2.7305090000     0.8881180000
   34      C      14.6292860000    -2.7475570000    -0.2519020000
   35      C      14.0971550000    -2.8868990000    -1.5344040000
   36      C      16.0100580000    -2.6922480000    -0.0604230000
   37      C      16.8606610000    -2.7722920000    -1.1591440000
   38      C      14.9610670000    -2.9596900000    -2.6261420000
   39      C      16.3420720000    -2.9026560000    -2.4475950000
   40      H       8.2012720000    -0.6834430000    -1.0716600000
   41      H       7.6738900000    -2.1317650000    -0.2338000000
   42      H       8.0513820000    -0.9947850000     1.9718610000
   43      H       8.5789860000     0.4550740000     1.1349080000
   44      H      10.7831840000     0.5307560000    -0.0006530000
   45      H       9.4968350000    -3.0144050000     2.0389470000
   46      H      11.8038110000    -3.9228140000     1.8948090000
   47      H      13.0782560000    -0.3736380000    -0.1310120000
   48      H      13.0251720000    -2.9406380000    -1.6759420000
   49      H      16.3950350000    -2.5904440000     0.9470310000
   50      H      17.9332310000    -2.7283830000    -1.0064040000
   51      H      14.5465640000    -3.0694670000    -3.6221670000
   52      H      17.0064380000    -2.9611930000    -3.3016160000
 ----------------------------------------------------------------

   16   -1305.2909607331      4.85e-06  Convergence criterion met
 Total energy in the final basis set =    -1305.2909607331

                    Orbital Energies (a.u.)
 --------------------------------------------------------------

 Alpha MOs
 -- Occupied --
-19.1783 -19.1703 -19.1497 -19.1300 -10.2937 -10.2813 -10.2672 -10.2447
-10.2398 -10.2106 -10.2094 -10.2035 -10.2006 -10.1985 -10.1969 -10.1968
-10.1831 -10.1823 -10.1819 -10.1801 -10.1800 -10.1786 -10.1785 -10.1785
-10.1780 -10.1759 -10.1752 -10.1689 -10.1676 -10.1651  -1.1084  -1.0889
 -1.0674  -1.0637  -0.8925  -0.8727  -0.8594  -0.8439  -0.8076  -0.7892
 -0.7799  -0.7688  -0.7585  -0.7557  -0.7461  -0.7185  -0.6924  -0.6650
 -0.6519  -0.6342  -0.6257  -0.6173  -0.6097  -0.6040  -0.5867  -0.5776
 -0.5736  -0.5540  -0.5426  -0.5189  -0.5095  -0.4982  -0.4939  -0.4812
 -0.4788  -0.4785  -0.4713  -0.4681  -0.4648  -0.4523  -0.4511  -0.4469
 -0.4455  -0.4362  -0.4314  -0.4289  -0.4266  -0.4184  -0.4143  -0.4098
 -0.4061  -0.3991  -0.3929  -0.3903  -0.3792  -0.3772  -0.3715  -0.3700
 -0.3676  -0.3612  -0.3496  -0.3465  -0.3412  -0.3353  -0.3316  -0.3269
 -0.3036  -0.2899  -0.2802  -0.2801  -0.2685  -0.2628  -0.2585  -0.2542
 -0.2283

          Ground-State Mulliken Net Atomic Charges

     Atom                 Charge (a.u.)
  ----------------------------------------
      1 C                     0.198200
      2 C                    -0.394406
      3 C                    -0.410354
      4 C                     0.395825
      5 C                    -0.009719
      6 C                     0.189347
      7 C                    -0.748637
      8 C                    -0.457521
      9 C                     1.911179
     10 C                    -0.789414
     11 O                    -0.321055
     12 O                    -0.289922
     13 O                    -0.231981
     14 H                     0.203119
     15 H                     0.227208
     16 H                     0.223680
     17 H                     0.200382
     18 H                     0.321281
     19 C                    -0.403551
     20 C                    -0.777127
     21 H                     0.243951
     22 H                     0.227168
     23 H                     0.172986
     24 H                     0.177230
     25 C                    -0.274497
     26 C                    -1.093094
     27 C                     1.475565
     28 C                    -0.330332
     29 C                    -0.311805
     30 C                    -0.248502
     31 C                    -0.668639
     32 C                     0.120386
     33 O                    -0.038703
     34 C                    -0.349155
     35 C                     0.199179
     36 C                    -0.168628
     37 C                    -0.241255
     38 C                    -0.105392
     39 C                    -0.369944
     40 H                     0.137181
     41 H                     0.143191
     42 H                     0.179587
     43 H                     0.180693
     44 H                     0.214242
     45 H                     0.210330
     46 H                     0.224284
     47 H                     0.218152
     48 H                     0.207823
     49 H                     0.209162
     50 H                     0.212934
     51 H                     0.223395
     52 H                     0.185971
  ----------------------------------------
  Sum of atomic charges =     0.000000

                    Cartesian Multipole Moments
 -----------------------------------------------------------------
    Charge (ESU x 10^10)
                 0.0000
    Dipole Moment (Debye)
         X      -4.3926      Y       1.8440      Z      -0.8072
       Tot       4.8318
    Quadrupole Moments (Debye-Ang)
        XX    -198.1862     XY      19.1326     YY    -186.5813
        XZ     -20.8501     YZ       2.9618     ZZ    -174.8612

 Total job time:  556.03s(wall), 3949.58s(cpu)
        *  Thank you very much for using Q-Chem.  Have a nice day.  *
