 Q-Chem 5.4, Q-Chem, Inc., Pleasanton, CA (2021)
 Q-Chem 5.4.0 for Intel X86 EM64T Linux

User input:
--------------------------------------------------------------
$molecule
0 1
C                 -2.6091330000     -0.6735440000     -0.2176160000
C                 -1.2951220000      0.0205140000     -0.0269630000
C                 -1.1709940000      1.3244880000      0.2736600000
C                  0.1465720000      1.9715730000      0.4536400000
O                  0.2348980000      3.1601070000      0.7272410000
C                  1.3536450000      1.1326650000      0.2917050000
C                  1.2835840000     -0.1754270000     -0.0085120000
C                  2.4802660000     -1.0602450000     -0.1810590000
C                 -0.0606350000     -0.8152010000     -0.1877770000
O                 -0.1487740000     -2.0009980000     -0.4612520000
H                 -2.7128630000     -1.5026840000      0.4876790000
H                 -3.4402100000      0.0189190000     -0.0795890000
H                 -2.6713070000     -1.1127910000     -1.2170770000
H                 -2.0331080000      1.9713580000      0.4002520000
H                  2.3017080000      1.6419760000      0.4313120000
H                  3.4043010000     -0.5013650000     -0.0292150000
H                  2.4903670000     -1.5039740000     -1.1804250000
H                  2.4468060000     -1.8953710000      0.5239970000
$end

$rem
BASIS  =  6-311++G(d,p)
GUI  =  2
JOB_TYPE  =  SP
METHOD  =  B3LYP
SCF_CONVERGENCE  = 8
SOLVENT_METHOD = sm12
$end

$smx
solvent dimethylformamide
charges CM5
$end

--------------------------------------------------------------

             Standard Nuclear Orientation (Angstroms)
    I     Atom           X                Y                Z
 ----------------------------------------------------------------
    1      C      -2.6091330000    -0.6735440000    -0.2176160000
    2      C      -1.2951220000     0.0205140000    -0.0269630000
    3      C      -1.1709940000     1.3244880000     0.2736600000
    4      C       0.1465720000     1.9715730000     0.4536400000
    5      O       0.2348980000     3.1601070000     0.7272410000
    6      C       1.3536450000     1.1326650000     0.2917050000
    7      C       1.2835840000    -0.1754270000    -0.0085120000
    8      C       2.4802660000    -1.0602450000    -0.1810590000
    9      C      -0.0606350000    -0.8152010000    -0.1877770000
   10      O      -0.1487740000    -2.0009980000    -0.4612520000
   11      H      -2.7128630000    -1.5026840000     0.4876790000
   12      H      -3.4402100000     0.0189190000    -0.0795890000
   13      H      -2.6713070000    -1.1127910000    -1.2170770000
   14      H      -2.0331080000     1.9713580000     0.4002520000
   15      H       2.3017080000     1.6419760000     0.4313120000
   16      H       3.4043010000    -0.5013650000    -0.0292150000
   17      H       2.4903670000    -1.5039740000    -1.1804250000
   18      H       2.4468060000    -1.8953710000     0.5239970000
 ----------------------------------------------------------------

   14    -460.2254732991      2.61e-09  Convergence criterion met
 Total energy in the final basis set =     -460.2396167262

                    Orbital Energies (a.u.)
 --------------------------------------------------------------

 Alpha MOs
 -- Occupied --
-19.1392 -19.1316 -10.2821 -10.2773 -10.2168 -10.2167 -10.1998 -10.1998
-10.1733 -10.1733  -1.0706  -1.0610  -0.8645  -0.8164  -0.7406  -0.7078
 -0.6792  -0.6014  -0.5888  -0.5286  -0.5002  -0.4647  -0.4617  -0.4386
 -0.4374  -0.4243  -0.4232  -0.4202  -0.4018  -0.3943  -0.3884  -0.3829
 -0.3010  -0.2860  -0.2831  -0.2729

          Ground-State Mulliken Net Atomic Charges

     Atom                 Charge (a.u.)
  ----------------------------------------
      1 C                     0.091888
      2 C                     1.382548
      3 C                    -0.476688
      4 C                    -0.912324
      5 O                    -0.350528
      6 C                    -0.475335
      7 C                     1.385480
      8 C                     0.091083
      9 C                    -2.163759
     10 O                    -0.258213
     11 H                     0.188038
     12 H                     0.227161
     13 H                     0.187937
     14 H                     0.239646
     15 H                     0.239954
     16 H                     0.227191
     17 H                     0.188075
     18 H                     0.187846
  ----------------------------------------
  Sum of atomic charges =     0.000000

                    Cartesian Multipole Moments
 -----------------------------------------------------------------
    Charge (ESU x 10^10)
                -0.0000
    Dipole Moment (Debye)
         X      -0.1179      Y      -1.5949      Z      -0.3666
       Tot       1.6407
    Quadrupole Moments (Debye-Ang)
        XX     -47.3635     XY      -2.2825     YY     -77.6634
        XZ      -0.2480     YZ      -4.4355     ZZ     -59.5186

 Total job time:  185.82s(wall), 1174.11s(cpu)
        *  Thank you very much for using Q-Chem.  Have a nice day.  *
