 Q-Chem 5.4, Q-Chem, Inc., Pleasanton, CA (2021)
 Q-Chem 5.4.0 for Intel X86 EM64T Linux

User input:
--------------------------------------------------------------
$molecule
0 1
Cl                 5.1912270000     -1.4819030000     -0.0055320000
C                  3.6604360000     -0.6412590000     -0.1514640000
C                  3.6574480000      0.7164180000     -0.4795430000
C                  2.4451320000      1.3816700000     -0.5949870000
C                  1.2389270000      0.7052110000     -0.3863190000
C                 -0.0451430000      1.4510250000     -0.5185150000
O                 -0.0606470000      2.6371060000     -0.8046400000
C                 -1.3078600000      0.6904430000     -0.2874110000
C                 -2.5313630000      1.3572180000     -0.4028380000
C                 -3.7226070000      0.6727020000     -0.1929590000
C                 -3.7029140000     -0.6859510000      0.1346570000
C                 -2.4918480000     -1.3574390000      0.2517490000
C                 -1.2881070000     -0.6771160000      0.0423700000
C                 -0.0042730000     -1.4236020000      0.1748240000
O                  0.0188150000     -2.6086060000      0.4604730000
C                  1.2606390000     -0.6604290000     -0.0570350000
C                  2.4779570000     -1.3353400000      0.0605420000
H                  4.5934410000      1.2359670000     -0.6401710000
H                  2.4124990000      2.4340840000     -0.8482220000
H                 -2.5236770000      2.4097510000     -0.6574960000
H                 -4.6685140000      1.1943980000     -0.2837230000
H                 -4.6333820000     -1.2176180000      0.2978870000
H                 -2.4533930000     -2.4097060000      0.5046940000
H                  2.4772080000     -2.3870250000      0.3147950000
$end

$rem
BASIS  =  6-311++G(d,p)
GUI  =  2
JOB_TYPE  =  SP
METHOD  =  B3LYP
SCF_CONVERGENCE  = 8
SOLVENT_METHOD = sm12
$end

$smx
solvent dimethylformamide
charges CM5
$end

--------------------------------------------------------------

             Standard Nuclear Orientation (Angstroms)
    I     Atom           X                Y                Z
 ----------------------------------------------------------------
    1      Cl      5.1912270000    -1.4819030000    -0.0055320000
    2      C       3.6604360000    -0.6412590000    -0.1514640000
    3      C       3.6574480000     0.7164180000    -0.4795430000
    4      C       2.4451320000     1.3816700000    -0.5949870000
    5      C       1.2389270000     0.7052110000    -0.3863190000
    6      C      -0.0451430000     1.4510250000    -0.5185150000
    7      O      -0.0606470000     2.6371060000    -0.8046400000
    8      C      -1.3078600000     0.6904430000    -0.2874110000
    9      C      -2.5313630000     1.3572180000    -0.4028380000
   10      C      -3.7226070000     0.6727020000    -0.1929590000
   11      C      -3.7029140000    -0.6859510000     0.1346570000
   12      C      -2.4918480000    -1.3574390000     0.2517490000
   13      C      -1.2881070000    -0.6771160000     0.0423700000
   14      C      -0.0042730000    -1.4236020000     0.1748240000
   15      O       0.0188150000    -2.6086060000     0.4604730000
   16      C       1.2606390000    -0.6604290000    -0.0570350000
   17      C       2.4779570000    -1.3353400000     0.0605420000
   18      H       4.5934410000     1.2359670000    -0.6401710000
   19      H       2.4124990000     2.4340840000    -0.8482220000
   20      H      -2.5236770000     2.4097510000    -0.6574960000
   21      H      -4.6685140000     1.1943980000    -0.2837230000
   22      H      -4.6333820000    -1.2176180000     0.2978870000
   23      H      -2.4533930000    -2.4097060000     0.5046940000
   24      H       2.4772080000    -2.3870250000     0.3147950000
 ----------------------------------------------------------------

   15   -1148.5745593199      7.20e-09  Convergence criterion met
 Total energy in the final basis set =    -1148.5948396731

                    Orbital Energies (a.u.)
 --------------------------------------------------------------

 Alpha MOs
 -- Occupied --
******** -19.1344 -19.1322 -10.2869 -10.2849 -10.2642 -10.2198 -10.2154
-10.2118 -10.2115 -10.2112 -10.2108 -10.2081 -10.1998 -10.1994 -10.1990
-10.1988  -9.4841  -7.2487  -7.2391  -7.2384  -1.0696  -1.0666  -0.9189
 -0.8916  -0.8679  -0.8104  -0.7881  -0.7802  -0.7651  -0.6943  -0.6720
 -0.6450  -0.6255  -0.5922  -0.5669  -0.5574  -0.5122  -0.4980  -0.4931
 -0.4876  -0.4631  -0.4614  -0.4587  -0.4520  -0.4500  -0.4455  -0.4228
 -0.4146  -0.4111  -0.3891  -0.3820  -0.3814  -0.3694  -0.3495  -0.3326
 -0.2929  -0.2909  -0.2856  -0.2799  -0.2784  -0.2725

          Ground-State Mulliken Net Atomic Charges

     Atom                 Charge (a.u.)
  ----------------------------------------
      1 Cl                    0.557915
      2 C                     0.732715
      3 C                     0.219999
      4 C                     0.401498
      5 C                    -0.243657
      6 C                    -1.378587
      7 O                    -0.260364
      8 C                    -0.291053
      9 C                     0.242489
     10 C                     0.404584
     11 C                     0.386567
     12 C                     0.181266
     13 C                    -0.258806
     14 C                    -1.328543
     15 O                    -0.264648
     16 C                    -0.525589
     17 C                    -0.384376
     18 H                     0.323135
     19 H                     0.232556
     20 H                     0.194781
     21 H                     0.328007
     22 H                     0.326674
     23 H                     0.193461
     24 H                     0.209976
  ----------------------------------------
  Sum of atomic charges =     0.000000

                    Cartesian Multipole Moments
 -----------------------------------------------------------------
    Charge (ESU x 10^10)
                 0.0000
    Dipole Moment (Debye)
         X      -2.1582      Y       0.8865      Z      -0.1337
       Tot       2.3370
    Quadrupole Moments (Debye-Ang)
        XX     -83.7137     XY       5.2604     YY    -114.2719
        XZ      -1.7402     YZ       1.6162     ZZ    -106.4767

 Total job time:  452.27s(wall), 3506.19s(cpu)
        *  Thank you very much for using Q-Chem.  Have a nice day.  *
