 Q-Chem 5.4, Q-Chem, Inc., Pleasanton, CA (2021)
 Q-Chem 5.4.0 for Intel X86 EM64T Linux

User input:
--------------------------------------------------------------
$molecule
0 1
O                  2.7290710000     -2.7081710000     -1.3568140000
C                  2.2231930000     -1.7371550000     -0.8138060000
C                  0.7552560000     -1.5923460000     -0.7503020000
C                  0.1114840000     -0.5571600000     -0.1735920000
C                 -1.3997970000     -0.4894150000     -0.1552140000
C                 -1.9618410000      0.7183770000     -0.9440990000
C                 -3.4966100000      0.6873410000     -0.9749910000
C                 -4.0913110000      0.6278210000      0.4386710000
C                 -3.5267250000     -0.5585900000      1.2319810000
C                 -1.9920570000     -0.5342930000      1.2745560000
C                  0.9195320000      0.5410020000      0.4569420000
O                  0.3793500000      1.4960620000      0.9918400000
C                  2.4107660000      0.4350550000      0.4151820000
C                  3.1833580000      1.4452630000      0.9949400000
C                  4.5716450000      1.3640910000      0.9652280000
C                  5.1994300000      0.2741290000      0.3567910000
C                  4.4378450000     -0.7355290000     -0.2223540000
C                  3.0438920000     -0.6591010000     -0.1954000000
H                  0.2032110000     -2.4034450000     -1.2156020000
H                 -1.7451390000     -1.3950700000     -0.6712480000
H                 -1.6206430000      1.6446280000     -0.4749120000
H                 -1.5648280000      0.7061070000     -1.9647500000
H                 -3.8705330000      1.5677720000     -1.5075120000
H                 -3.8331040000     -0.1877280000     -1.5466650000
H                 -3.8571850000      1.5600260000      0.9681050000
H                 -5.1830170000      0.5626540000      0.3870260000
H                 -3.8647660000     -1.4961830000      0.7710540000
H                 -3.9219670000     -0.5552210000      2.2529290000
H                 -1.6163740000     -1.4192170000      1.7992010000
H                 -1.6519850000      0.3418050000      1.8324960000
H                  2.6789650000      2.2822030000      1.4617390000
H                  5.1676050000      2.1496060000      1.4158380000
H                  6.2816890000      0.2148430000      0.3358370000
H                  4.9015920000     -1.5901650000     -0.6996880000
$end
$rem
MAX_SCF_CYCLES=200
BASIS  =  6-311++G(d,p)
GUI  =  2
JOB_TYPE  =  SP
METHOD  =  B3LYP
SOLVENT_METHOD = COSMO
$end
$solvent
dielectric 37.219
opticaldielectric 1.43
$end

--------------------------------------------------------------

             Standard Nuclear Orientation (Angstroms)
    I     Atom           X                Y                Z
 ----------------------------------------------------------------
    1      O      -2.2758390687    -2.8939423120    -0.0001861380
    2      C      -1.7240769466    -1.8034377347    -0.0009853761
    3      C      -0.2507782691    -1.7073524276    -0.0012325868
    4      C       0.4417895262    -0.5502021759    -0.0013351152
    5      C       1.9546911428    -0.5451371683    -0.0006709604
    6      C       2.5579337373     0.0939362638     1.2739576274
    7      C       4.0896510740    -0.0121183210     1.2686795707
    8      C       4.6967069541     0.6066028656     0.0020622600
    9      C       4.0918634060    -0.0115932086    -1.2658758555
   10      C       2.5600934412     0.0943418335    -1.2740848204
   11      C      -0.3129080172     0.7486073143    -0.0013311931
   12      O       0.2723734637     1.8198186848    -0.0032945692
   13      C      -1.8076268264     0.6979840053    -0.0006464127
   14      C      -2.5311171837     1.8938516080    -0.0000807265
   15      C      -3.9218214138     1.8664165072     0.0011644615
   16      C      -4.6010437758     0.6453582119     0.0017751663
   17      C      -3.8885206354    -0.5492715189     0.0010675424
   18      C      -2.4923832644    -0.5275545125    -0.0001719177
   19      H       0.2619082279    -2.6645837987    -0.0010994562
   20      H       2.2563757966    -1.6009541640    -0.0005912703
   21      H       2.2607372301     1.1444542230     1.3247482245
   22      H       2.1496697326    -0.4021667981     2.1609190658
   23      H       4.4941023547     0.4761522311     2.1611854814
   24      H       4.3831643116    -1.0683296141     1.3323412754
   25      H       4.5073868577     1.6874726080     0.0021476942
   26      H       5.7841245905     0.4790958776     0.0029490153
   27      H       4.3855233343    -1.0677818473    -1.3294010989
   28      H       4.4979905528     0.4769882871    -2.1574538219
   29      H       2.1536109395    -0.4016364995    -2.1619237964
   30      H       2.2628989086     1.1448426179    -1.3252436519
   31      H      -1.9872524323     2.8303307395    -0.0004506772
   32      H      -4.4796076638     2.7960001218     0.0017228630
   33      H      -5.6849968251     0.6285294707     0.0027867658
   34      H      -4.3926287713    -1.5080136919     0.0014590610
 ----------------------------------------------------------------

    9    -770.0004777556      4.27e-06  Convergence criterion met
 Total energy in the final basis set =     -770.0004777556
    5    -770.0130700574      2.28e-06  Convergence criterion met
 Total energy in the final basis set =     -770.0130700574

                    Orbital Energies (a.u.)
 --------------------------------------------------------------

 Alpha MOs
 -- Occupied --
-19.1365 -19.1352 -10.2860 -10.2826 -10.2165 -10.2068 -10.2057 -10.2015
-10.1962 -10.1960 -10.1956 -10.1952 -10.1849 -10.1631 -10.1631 -10.1601
-10.1601 -10.1583  -1.0706  -1.0671  -0.8895  -0.8544  -0.8223  -0.7808
 -0.7769  -0.7403  -0.7401  -0.6929  -0.6516  -0.6403  -0.6087  -0.6034
 -0.5828  -0.5599  -0.5345  -0.5288  -0.5007  -0.4835  -0.4698  -0.4650
 -0.4534  -0.4511  -0.4497  -0.4380  -0.4380  -0.4319  -0.4212  -0.4203
 -0.3881  -0.3879  -0.3788  -0.3777  -0.3747  -0.3676  -0.3450  -0.3429
 -0.3213  -0.3110  -0.3092  -0.2910  -0.2852  -0.2779  -0.2754  -0.2733

          Ground-State Mulliken Net Atomic Charges

     Atom                 Charge (a.u.)
  ----------------------------------------
      1 O                    -0.320200
      2 C                    -0.519282
      3 C                    -0.218834
      4 C                     0.535214
      5 C                     0.666735
      6 C                    -0.563280
      7 C                    -0.383947
      8 C                    -0.433074
      9 C                    -0.382355
     10 C                    -0.564362
     11 C                    -0.663292
     12 O                    -0.251197
     13 C                    -0.215593
     14 C                     0.176393
     15 C                    -0.461368
     16 C                    -0.347443
     17 C                     0.120847
     18 C                     0.817095
     19 H                     0.256341
     20 H                     0.206774
     21 H                     0.185281
     22 H                     0.183717
     23 H                     0.183588
     24 H                     0.139354
     25 H                     0.123414
     26 H                     0.185263
     27 H                     0.139301
     28 H                     0.183662
     29 H                     0.183570
     30 H                     0.185388
     31 H                     0.202396
     32 H                     0.226900
     33 H                     0.229064
     34 H                     0.193930
  ----------------------------------------
  Sum of atomic charges =     0.000000

                    Cartesian Multipole Moments
 -----------------------------------------------------------------
    Charge (ESU x 10^10)
                 0.0000
    Dipole Moment (Debye)
         X      -0.2514      Y       1.6728      Z       0.0063
       Tot       1.6916
    Quadrupole Moments (Debye-Ang)
        XX     -89.3595     XY     -16.8660     YY    -117.8486
        XZ      -0.0077     YZ       0.0143     ZZ    -108.1752

 Total job time:  72.01s(wall), 547.73s(cpu)
        *  Thank you very much for using Q-Chem.  Have a nice day.  *
