 Gaussian 16, Revision A.03,
 Gaussian 16:  ES64L-G16RevA.03 25-Dec-2016

 ----------------------------------------------------------------
 #P UB3LYP/6-311++G(d,p) SCRF=(PCM,Solvent=n,n-DiMethylFormamide)
 ----------------------------------------------------------------

 -------
 Reduced
 -------
 Symbolic Z-matrix:
 Charge = -2 Multiplicity = 1

                         Standard orientation:
 ---------------------------------------------------------------------
 Center     Atomic      Atomic             Coordinates (Angstroms)
 Number     Number       Type             X           Y           Z
 ---------------------------------------------------------------------
      1          6           0       -0.146182    1.409544    0.000001
      2          6           0        1.285054    1.669988   -0.000157
      3          6           0        2.252956    0.693866   -0.000140
      4          6           0        1.961909   -0.726409    0.000062
      5          6           0        0.580800   -1.000317    0.000129
      6          6           0       -0.482071   -0.016630    0.000072
      7          8           0       -0.964112    2.384197   -0.000006
      8          8           0        2.915254   -1.615600    0.000156
      9          6           0       -1.858691   -0.465479    0.000043
     10          6           0       -2.116499   -1.997787   -0.000354
     11          8           0       -2.887724    0.240325    0.000292
     12          1           0        1.562062    2.725081   -0.000332
     13          1           0        3.309672    0.971409   -0.000286
     14          1           0        0.323525   -2.054848    0.000332
     15          1           0       -1.683880   -2.486152    0.880990
     16          1           0       -1.682384   -2.486122   -0.880954
     17          1           0       -3.199990   -2.141400   -0.001226
 ---------------------------------------------------------------------

 SCF Done:  E(UB3LYP) =  -534.529576273     A.U. after   17 cycles

 The electronic state is 1-A.
 Alpha  occ. eigenvalues --  -19.06715 -19.03099 -19.01490 -10.22109 -10.19020
 Alpha  occ. eigenvalues --  -10.17121 -10.14602 -10.13958 -10.13418 -10.13253
 Alpha  occ. eigenvalues --  -10.12071  -0.99129  -0.94957  -0.92363  -0.78424
 Alpha  occ. eigenvalues --   -0.73255  -0.68693  -0.65318  -0.59082  -0.54361
 Alpha  occ. eigenvalues --   -0.48778  -0.44122  -0.43589  -0.42321  -0.41248
 Alpha  occ. eigenvalues --   -0.39990  -0.38267  -0.36231  -0.36116  -0.35370
 Alpha  occ. eigenvalues --   -0.33598  -0.32932  -0.31847  -0.31462  -0.23407
 Alpha  occ. eigenvalues --   -0.23168  -0.22321  -0.19628  -0.18817  -0.12751
 Alpha virt. eigenvalues --   -0.02552   0.00314   0.01375   0.02208   0.03615
 Alpha virt. eigenvalues --    0.03722   0.04398   0.04781   0.05758   0.06868
 Alpha virt. eigenvalues --    0.07233   0.07328   0.08097   0.08965   0.09472

  Beta  occ. eigenvalues --  -19.06715 -19.03099 -19.01490 -10.22109 -10.19020
  Beta  occ. eigenvalues --  -10.17121 -10.14602 -10.13958 -10.13418 -10.13253
  Beta  occ. eigenvalues --  -10.12071  -0.99129  -0.94957  -0.92363  -0.78424
  Beta  occ. eigenvalues --   -0.73255  -0.68693  -0.65318  -0.59082  -0.54361
  Beta  occ. eigenvalues --   -0.48778  -0.44122  -0.43589  -0.42321  -0.41248
  Beta  occ. eigenvalues --   -0.39990  -0.38267  -0.36231  -0.36116  -0.35370
  Beta  occ. eigenvalues --   -0.33598  -0.32932  -0.31847  -0.31462  -0.23407
  Beta  occ. eigenvalues --   -0.23168  -0.22321  -0.19628  -0.18817  -0.12751
  Beta virt. eigenvalues --   -0.02552   0.00314   0.01375   0.02208   0.03615
  Beta virt. eigenvalues --    0.03722   0.04398   0.04781   0.05758   0.06868
  Beta virt. eigenvalues --    0.07233   0.07328   0.08097   0.08965   0.09472

 Mulliken charges and spin densities:
               1          2
     1  C   -0.654806   0.000000
     2  C    0.012753  -0.000000
     3  C    0.048506  -0.000000
     4  C   -0.504005  -0.000000
     5  C   -1.020782   0.000000
     6  C    1.640705  -0.000000
     7  O   -0.605835  -0.000000
     8  O   -0.742952  -0.000000
     9  C   -0.123011   0.000000
    10  C   -0.471590  -0.000000
    11  O   -0.466858  -0.000000
    12  H    0.145589   0.000000
    13  H    0.152130  -0.000000
    14  H    0.120005   0.000000
    15  H    0.152950  -0.000000
    16  H    0.152878  -0.000000
    17  H    0.164324  -0.000000
 Sum of Mulliken charges =  -2.00000  -0.00000

 Dipole moment (field-independent basis, Debye):
    X=             -2.5247    Y=             -2.7503    Z=             -0.0014  Tot=              3.7334
 Quadrupole moment (field-independent basis, Debye-Ang):
   XX=           -129.2522   YY=           -101.3363   ZZ=            -71.9850
   XY=             31.1806   XZ=              0.0003   YZ=              0.0001

 Normal termination of Gaussian 16 at Sun Jan 21 07:46:41 2024.
