 Q-Chem 5.4, Q-Chem, Inc., Pleasanton, CA (2021)
 Q-Chem 5.4.0 for Intel X86 EM64T Linux

User input:
--------------------------------------------------------------
$molecule
-1 2
C                 16.1749680000      2.8925640000      0.7186210000
C                 15.5501730000      1.8118970000      1.4447750000
C                 15.9595940000      1.4028840000      2.6867300000
C                 17.0812690000      2.0549730000      3.3489950000
C                 17.7239260000      3.1496700000      2.6297380000
C                 17.2969090000      3.5509170000      1.3801430000
O                 15.7637640000      3.2418110000     -0.4284850000
O                 17.4742210000      1.6804670000      4.4954760000
C                 17.9669080000      4.6840420000      0.6432950000
C                 18.8841430000      3.8302250000      3.3150820000
H                 14.7178940000      1.3242210000      0.9452240000
H                 17.9133590000      5.6245930000      1.2067820000
H                 17.4752780000      4.8258130000     -0.3199440000
H                 19.0318650000      4.4834240000      0.4689400000
H                 19.0491100000      3.3698870000      4.2896750000
H                 18.6985830000      4.9024240000      3.4582640000
H                 19.8076020000      3.7479350000      2.7273960000
C                 15.3072240000      0.2485980000      3.4301880000
C                 13.8592510000      0.0363260000      3.0997830000
C                 13.2545650000     -1.0349390000      2.5660550000
C                 11.7613850000     -1.0145580000      2.3042990000
C                 11.3865590000     -0.9339410000      0.8017740000
C                  9.9002270000     -0.9442580000      0.5815100000
C                  9.1187880000      0.0141540000      0.0626280000
C                  7.6215860000     -0.2006440000     -0.0414310000
C                  6.7873340000      0.6829430000      0.9199200000
C                  5.3081190000      0.4825880000      0.7444230000
C                  4.4116940000      0.0110190000      1.6229020000
C                  2.9525180000     -0.1083900000      1.2315220000
C                 13.9649400000     -2.3095400000      2.1776020000
C                  9.6227830000      1.3393060000     -0.4555440000
C                  4.7466790000     -0.4312540000      3.0272030000
C                  2.0121880000      0.8661820000      1.9846960000
C                  0.5713950000      0.6817490000      1.5973660000
C                 -0.2544680000      1.5436030000      0.9868140000
C                 -1.6803580000      1.1370670000      0.6720850000
C                 -1.9720010000      0.9608300000     -0.8396350000
C                 -3.4111400000      0.6160270000     -1.1049230000
C                 -3.9259510000     -0.5030130000     -1.6343280000
C                 -5.4261710000     -0.6458900000     -1.7966530000
C                 -6.0693490000     -1.6987630000     -0.8589950000
C                 -7.5480420000     -1.8400980000     -1.0916030000
C                 -8.5616290000     -1.5693680000     -0.2568260000
C                 -9.9938440000     -1.7720570000     -0.7096130000
C                -10.7933790000     -0.4577270000     -0.8961710000
C                -12.2221080000     -0.7117130000     -1.2898550000
C                -12.8528630000     -0.3863550000     -2.4272950000
C                  0.1249030000      2.9465740000      0.5788820000
C                 -3.1066980000     -1.6766470000     -2.1136480000
C                 -8.3933700000     -1.0713050000      1.1580970000
C                -12.2158210000      0.3600610000     -3.5741630000
C                -14.3092980000     -0.7582870000     -2.6215420000
C                -14.5480120000     -1.8569130000     -3.6880880000
C                -16.0096390000     -2.1494810000     -3.8855400000
C                -16.6822630000     -3.2831020000     -3.6407160000
C                -16.0550070000     -4.5529020000     -3.1187110000
C                -18.1739190000     -3.3528450000     -3.9001720000
C                -19.0380970000     -3.4525100000     -2.6179830000
C                -20.5043350000     -3.5754840000     -2.9275180000
C                -21.4975720000     -2.7273430000     -2.6289930000
C                -21.3281600000     -1.4301440000     -1.8785220000
C                -22.9197830000     -3.0273490000     -3.0372640000
H                 15.4127130000      0.4650840000      4.4998490000
H                 15.8939010000     -0.6631420000      3.2701080000
H                 13.2261350000      0.8956530000      3.3222160000
H                 11.3136370000     -0.1577660000      2.8167380000
H                 11.2951610000     -1.9150240000      2.7310470000
H                 11.8238140000     -1.7939200000      0.2794900000
H                 11.8536700000     -0.0446030000      0.3750000000
H                  9.4031470000     -1.8578260000      0.9121080000
H                  7.3860720000     -1.2500070000      0.1605330000
H                  7.2934340000      0.0022140000     -1.0706190000
H                  7.0204000000      1.7370850000      0.7269340000
H                  7.1042340000      0.4833200000      1.9458540000
H                  4.9343440000      0.7504100000     -0.2446440000
H                  2.6079810000     -1.1351850000      1.4179730000
H                  2.8457470000      0.0669060000      0.1569720000
H                 15.0337300000     -2.2692460000      2.3851520000
H                 13.8454180000     -2.5256270000      1.1095400000
H                 13.5467760000     -3.1676730000      2.7205800000
H                 10.7064740000      1.4323200000     -0.4058870000
H                  9.1968950000      2.1765980000      0.1082650000
H                  9.3211970000      1.4804710000     -1.5007340000
H                  5.8189660000     -0.4561820000      3.2176660000
H                  4.3484700000     -1.4352400000      3.2159790000
H                  4.2948230000      0.2304710000      3.7747780000
H                  2.3515670000      1.8887130000      1.8051960000
H                  2.1089990000      0.6921640000      3.0633170000
H                  0.1640800000     -0.2994000000      1.8441380000
H                 -2.3707810000      1.8921340000      1.0727340000
H                 -1.9150940000      0.1980390000      1.1817920000
H                 -1.2941390000      0.2043700000     -1.2409330000
H                 -1.7356090000      1.8965980000     -1.3605410000
H                 -4.1186340000      1.3910000000     -0.8079480000
H                 -5.6550290000     -0.9205060000     -2.8355520000
H                 -5.9079800000      0.3193650000     -1.6158610000
H                 -5.8471120000     -1.4283390000      0.1755910000
H                 -5.5937660000     -2.6713920000     -1.0342840000
H                 -7.8118580000     -2.2032420000     -2.0854460000
H                -10.5214100000     -2.3981760000      0.0229560000
H                -10.0052960000     -2.3217040000     -1.6552470000
H                -10.2767130000      0.1651160000     -1.6296600000
H                -10.7854960000      0.1024230000      0.0467620000
H                -12.8052930000     -1.2445980000     -0.5381410000
H                  1.1415470000      3.2125640000      0.8657290000
H                 -0.5553380000      3.6743070000      1.0374830000
H                  0.0424520000      3.0821410000     -0.5049000000
H                 -2.0336650000     -1.5131910000     -2.0209260000
H                 -3.3245750000     -1.8887650000     -3.1671830000
H                 -3.3509370000     -2.5866900000     -1.5552170000
H                 -7.3496020000     -0.9780700000      1.4558330000
H                 -8.8844570000     -1.7528920000      1.8628410000
H                 -8.8636400000     -0.0914070000      1.2929310000
H                -11.1816110000      0.6408830000     -3.3781770000
H                -12.7776940000      1.2763010000     -3.7912980000
H                -12.2271580000     -0.2374030000     -4.4919930000
H                -14.8770450000      0.1363550000     -2.9117110000
H                -14.7303970000     -1.1002670000     -1.6716980000
H                -13.9920580000     -2.7516340000     -3.3994100000
H                -14.1260300000     -1.5246900000     -4.6444080000
H                -16.5861290000     -1.3078800000     -4.2708490000
H                -14.9768170000     -4.4723100000     -2.9848640000
H                -16.2470510000     -5.3837610000     -3.8079710000
H                -16.4866300000     -4.8417180000     -2.1544490000
H                -18.3919980000     -4.2231020000     -4.5341990000
H                -18.4901470000     -2.4701180000     -4.4633790000
H                -18.8309680000     -2.5855680000     -1.9865810000
H                -18.7270650000     -4.3340230000     -2.0441770000
H                -20.7727960000     -4.4762100000     -3.4800050000
H                -20.2938130000     -1.2183470000     -1.6096950000
H                -21.9210880000     -1.4396990000     -0.9561070000
H                -21.6996920000     -0.5902380000     -2.4773500000
H                -22.9964640000     -3.9738590000     -3.5762470000
H                -23.3194360000     -2.2342370000     -3.6806580000
H                -23.5773830000     -3.0792680000     -2.1610690000
$end

$rem
BASIS  =  6-311++G(d,p)
GUI  =  2
JOB_TYPE  =  SP
METHOD  =  B3LYP
SCF_CONVERGENCE  = 8
SOLVENT_METHOD = sm12
$end

$smx
solvent dimethylformamide
charges CM5
$end

--------------------------------------------------------------

             Standard Nuclear Orientation (Angstroms)
    I     Atom           X                Y                Z
 ----------------------------------------------------------------
    1      C      16.1749680000     2.8925640000     0.7186210000
    2      C      15.5501730000     1.8118970000     1.4447750000
    3      C      15.9595940000     1.4028840000     2.6867300000
    4      C      17.0812690000     2.0549730000     3.3489950000
    5      C      17.7239260000     3.1496700000     2.6297380000
    6      C      17.2969090000     3.5509170000     1.3801430000
    7      O      15.7637640000     3.2418110000    -0.4284850000
    8      O      17.4742210000     1.6804670000     4.4954760000
    9      C      17.9669080000     4.6840420000     0.6432950000
   10      C      18.8841430000     3.8302250000     3.3150820000
   11      H      14.7178940000     1.3242210000     0.9452240000
   12      H      17.9133590000     5.6245930000     1.2067820000
   13      H      17.4752780000     4.8258130000    -0.3199440000
   14      H      19.0318650000     4.4834240000     0.4689400000
   15      H      19.0491100000     3.3698870000     4.2896750000
   16      H      18.6985830000     4.9024240000     3.4582640000
   17      H      19.8076020000     3.7479350000     2.7273960000
   18      C      15.3072240000     0.2485980000     3.4301880000
   19      C      13.8592510000     0.0363260000     3.0997830000
   20      C      13.2545650000    -1.0349390000     2.5660550000
   21      C      11.7613850000    -1.0145580000     2.3042990000
   22      C      11.3865590000    -0.9339410000     0.8017740000
   23      C       9.9002270000    -0.9442580000     0.5815100000
   24      C       9.1187880000     0.0141540000     0.0626280000
   25      C       7.6215860000    -0.2006440000    -0.0414310000
   26      C       6.7873340000     0.6829430000     0.9199200000
   27      C       5.3081190000     0.4825880000     0.7444230000
   28      C       4.4116940000     0.0110190000     1.6229020000
   29      C       2.9525180000    -0.1083900000     1.2315220000
   30      C      13.9649400000    -2.3095400000     2.1776020000
   31      C       9.6227830000     1.3393060000    -0.4555440000
   32      C       4.7466790000    -0.4312540000     3.0272030000
   33      C       2.0121880000     0.8661820000     1.9846960000
   34      C       0.5713950000     0.6817490000     1.5973660000
   35      C      -0.2544680000     1.5436030000     0.9868140000
   36      C      -1.6803580000     1.1370670000     0.6720850000
   37      C      -1.9720010000     0.9608300000    -0.8396350000
   38      C      -3.4111400000     0.6160270000    -1.1049230000
   39      C      -3.9259510000    -0.5030130000    -1.6343280000
   40      C      -5.4261710000    -0.6458900000    -1.7966530000
   41      C      -6.0693490000    -1.6987630000    -0.8589950000
   42      C      -7.5480420000    -1.8400980000    -1.0916030000
   43      C      -8.5616290000    -1.5693680000    -0.2568260000
   44      C      -9.9938440000    -1.7720570000    -0.7096130000
   45      C     -10.7933790000    -0.4577270000    -0.8961710000
   46      C     -12.2221080000    -0.7117130000    -1.2898550000
   47      C     -12.8528630000    -0.3863550000    -2.4272950000
   48      C       0.1249030000     2.9465740000     0.5788820000
   49      C      -3.1066980000    -1.6766470000    -2.1136480000
   50      C      -8.3933700000    -1.0713050000     1.1580970000
   51      C     -12.2158210000     0.3600610000    -3.5741630000
   52      C     -14.3092980000    -0.7582870000    -2.6215420000
   53      C     -14.5480120000    -1.8569130000    -3.6880880000
   54      C     -16.0096390000    -2.1494810000    -3.8855400000
   55      C     -16.6822630000    -3.2831020000    -3.6407160000
   56      C     -16.0550070000    -4.5529020000    -3.1187110000
   57      C     -18.1739190000    -3.3528450000    -3.9001720000
   58      C     -19.0380970000    -3.4525100000    -2.6179830000
   59      C     -20.5043350000    -3.5754840000    -2.9275180000
   60      C     -21.4975720000    -2.7273430000    -2.6289930000
   61      C     -21.3281600000    -1.4301440000    -1.8785220000
   62      C     -22.9197830000    -3.0273490000    -3.0372640000
   63      H      15.4127130000     0.4650840000     4.4998490000
   64      H      15.8939010000    -0.6631420000     3.2701080000
   65      H      13.2261350000     0.8956530000     3.3222160000
   66      H      11.3136370000    -0.1577660000     2.8167380000
   67      H      11.2951610000    -1.9150240000     2.7310470000
   68      H      11.8238140000    -1.7939200000     0.2794900000
   69      H      11.8536700000    -0.0446030000     0.3750000000
   70      H       9.4031470000    -1.8578260000     0.9121080000
   71      H       7.3860720000    -1.2500070000     0.1605330000
   72      H       7.2934340000     0.0022140000    -1.0706190000
   73      H       7.0204000000     1.7370850000     0.7269340000
   74      H       7.1042340000     0.4833200000     1.9458540000
   75      H       4.9343440000     0.7504100000    -0.2446440000
   76      H       2.6079810000    -1.1351850000     1.4179730000
   77      H       2.8457470000     0.0669060000     0.1569720000
   78      H      15.0337300000    -2.2692460000     2.3851520000
   79      H      13.8454180000    -2.5256270000     1.1095400000
   80      H      13.5467760000    -3.1676730000     2.7205800000
   81      H      10.7064740000     1.4323200000    -0.4058870000
   82      H       9.1968950000     2.1765980000     0.1082650000
   83      H       9.3211970000     1.4804710000    -1.5007340000
   84      H       5.8189660000    -0.4561820000     3.2176660000
   85      H       4.3484700000    -1.4352400000     3.2159790000
   86      H       4.2948230000     0.2304710000     3.7747780000
   87      H       2.3515670000     1.8887130000     1.8051960000
   88      H       2.1089990000     0.6921640000     3.0633170000
   89      H       0.1640800000    -0.2994000000     1.8441380000
   90      H      -2.3707810000     1.8921340000     1.0727340000
   91      H      -1.9150940000     0.1980390000     1.1817920000
   92      H      -1.2941390000     0.2043700000    -1.2409330000
   93      H      -1.7356090000     1.8965980000    -1.3605410000
   94      H      -4.1186340000     1.3910000000    -0.8079480000
   95      H      -5.6550290000    -0.9205060000    -2.8355520000
   96      H      -5.9079800000     0.3193650000    -1.6158610000
   97      H      -5.8471120000    -1.4283390000     0.1755910000
   98      H      -5.5937660000    -2.6713920000    -1.0342840000
   99      H      -7.8118580000    -2.2032420000    -2.0854460000
  100      H     -10.5214100000    -2.3981760000     0.0229560000
  101      H     -10.0052960000    -2.3217040000    -1.6552470000
  102      H     -10.2767130000     0.1651160000    -1.6296600000
  103      H     -10.7854960000     0.1024230000     0.0467620000
  104      H     -12.8052930000    -1.2445980000    -0.5381410000
  105      H       1.1415470000     3.2125640000     0.8657290000
  106      H      -0.5553380000     3.6743070000     1.0374830000
  107      H       0.0424520000     3.0821410000    -0.5049000000
  108      H      -2.0336650000    -1.5131910000    -2.0209260000
  109      H      -3.3245750000    -1.8887650000    -3.1671830000
  110      H      -3.3509370000    -2.5866900000    -1.5552170000
  111      H      -7.3496020000    -0.9780700000     1.4558330000
  112      H      -8.8844570000    -1.7528920000     1.8628410000
  113      H      -8.8636400000    -0.0914070000     1.2929310000
  114      H     -11.1816110000     0.6408830000    -3.3781770000
  115      H     -12.7776940000     1.2763010000    -3.7912980000
  116      H     -12.2271580000    -0.2374030000    -4.4919930000
  117      H     -14.8770450000     0.1363550000    -2.9117110000
  118      H     -14.7303970000    -1.1002670000    -1.6716980000
  119      H     -13.9920580000    -2.7516340000    -3.3994100000
  120      H     -14.1260300000    -1.5246900000    -4.6444080000
  121      H     -16.5861290000    -1.3078800000    -4.2708490000
  122      H     -14.9768170000    -4.4723100000    -2.9848640000
  123      H     -16.2470510000    -5.3837610000    -3.8079710000
  124      H     -16.4866300000    -4.8417180000    -2.1544490000
  125      H     -18.3919980000    -4.2231020000    -4.5341990000
  126      H     -18.4901470000    -2.4701180000    -4.4633790000
  127      H     -18.8309680000    -2.5855680000    -1.9865810000
  128      H     -18.7270650000    -4.3340230000    -2.0441770000
  129      H     -20.7727960000    -4.4762100000    -3.4800050000
  130      H     -20.2938130000    -1.2183470000    -1.6096950000
  131      H     -21.9210880000    -1.4396990000    -0.9561070000
  132      H     -21.6996920000    -0.5902380000    -2.4773500000
  133      H     -22.9964640000    -3.9738590000    -3.5762470000
  134      H     -23.3194360000    -2.2342370000    -3.6806580000
  135      H     -23.5773830000    -3.0792680000    -2.1610690000
 ----------------------------------------------------------------

   15   -2218.8187116325      7.12e-09  Convergence criterion met
 Total energy in the final basis set =    -2218.9291487093

                    Orbital Energies (a.u.)
 --------------------------------------------------------------

 Alpha MOs
 -- Occupied --
-19.0725 -19.0712 -10.2149 -10.2148 -10.1783 -10.1773 -10.1762 -10.1761
-10.1760 -10.1760 -10.1760 -10.1759 -10.1758 -10.1722 -10.1719 -10.1710
-10.1707 -10.1705 -10.1705 -10.1702 -10.1701 -10.1700 -10.1700 -10.1699
-10.1697 -10.1695 -10.1695 -10.1695 -10.1695 -10.1694 -10.1694 -10.1694
-10.1693 -10.1656 -10.1655 -10.1646 -10.1637 -10.1636 -10.1634 -10.1627
-10.1627 -10.1627 -10.1627 -10.1626 -10.1626 -10.1626 -10.1626 -10.1626
-10.1626 -10.1626 -10.1624 -10.1624 -10.1620 -10.1618 -10.1587  -0.9938
 -0.9906  -0.8355  -0.8337  -0.8322  -0.8299  -0.8271  -0.8236  -0.8194
 -0.8146  -0.8096  -0.8056  -0.7919  -0.7794  -0.7725  -0.7642  -0.7553
 -0.7462  -0.7375  -0.7303  -0.7296  -0.7245  -0.7213  -0.6935  -0.6903
 -0.6900  -0.6894  -0.6882  -0.6863  -0.6832  -0.6786  -0.6728  -0.6685
 -0.6660  -0.6489  -0.6409  -0.6317  -0.6218  -0.6118  -0.6027  -0.5950
 -0.5890  -0.5855  -0.5644  -0.5454  -0.5257  -0.5251  -0.5241  -0.5227
 -0.5209  -0.5187  -0.5165  -0.5148  -0.5137  -0.4948  -0.4819  -0.4816
 -0.4806  -0.4804  -0.4793  -0.4786  -0.4752  -0.4704  -0.4662  -0.4564
 -0.4495  -0.4483  -0.4460  -0.4427  -0.4405  -0.4398  -0.4377  -0.4359
 -0.4345  -0.4325  -0.4317  -0.4235  -0.4224  -0.4206  -0.4188  -0.4177
 -0.4151  -0.4139  -0.4120  -0.4110  -0.4092  -0.4075  -0.4054  -0.4044
 -0.4042  -0.4023  -0.4013  -0.3980  -0.3970  -0.3948  -0.3933  -0.3918
 -0.3889  -0.3881  -0.3851  -0.3767  -0.3756  -0.3752  -0.3751  -0.3744
 -0.3742  -0.3731  -0.3724  -0.3718  -0.3715  -0.3701  -0.3690  -0.3675
 -0.3672  -0.3652  -0.3637  -0.3619  -0.3609  -0.3589  -0.3577  -0.3562
 -0.3519  -0.3499  -0.3468  -0.3435  -0.3404  -0.3398  -0.3385  -0.3374
 -0.3365  -0.3319  -0.3318  -0.3307  -0.3307  -0.3282  -0.3230  -0.3179
 -0.3137  -0.3111  -0.2731  -0.2550  -0.2534  -0.2511  -0.2480  -0.2439
 -0.2425  -0.2396  -0.2366  -0.2329  -0.2294  -0.2263  -0.2250  -0.1573

 Beta MOs
 -- Occupied --
-19.0653 -19.0640 -10.2137 -10.2133 -10.1783 -10.1773 -10.1762 -10.1761
-10.1760 -10.1760 -10.1760 -10.1759 -10.1758 -10.1719 -10.1712 -10.1709
-10.1707 -10.1705 -10.1702 -10.1701 -10.1700 -10.1700 -10.1699 -10.1697
-10.1696 -10.1695 -10.1695 -10.1695 -10.1694 -10.1694 -10.1694 -10.1693
-10.1684 -10.1656 -10.1655 -10.1647 -10.1638 -10.1636 -10.1634 -10.1627
-10.1627 -10.1627 -10.1627 -10.1626 -10.1626 -10.1626 -10.1626 -10.1626
-10.1626 -10.1626 -10.1624 -10.1624 -10.1620 -10.1618 -10.1577  -0.9814
 -0.9779  -0.8343  -0.8334  -0.8316  -0.8290  -0.8261  -0.8228  -0.8190
 -0.8144  -0.8095  -0.8056  -0.7906  -0.7793  -0.7723  -0.7640  -0.7551
 -0.7460  -0.7373  -0.7297  -0.7272  -0.7243  -0.7207  -0.6935  -0.6903
 -0.6899  -0.6893  -0.6882  -0.6862  -0.6831  -0.6783  -0.6723  -0.6675
 -0.6618  -0.6482  -0.6395  -0.6305  -0.6210  -0.6114  -0.6025  -0.5949
 -0.5889  -0.5855  -0.5612  -0.5416  -0.5257  -0.5251  -0.5240  -0.5226
 -0.5208  -0.5186  -0.5165  -0.5148  -0.5137  -0.4932  -0.4819  -0.4816
 -0.4806  -0.4804  -0.4793  -0.4784  -0.4750  -0.4702  -0.4662  -0.4535
 -0.4494  -0.4480  -0.4458  -0.4426  -0.4398  -0.4380  -0.4358  -0.4349
 -0.4342  -0.4325  -0.4316  -0.4229  -0.4208  -0.4195  -0.4185  -0.4176
 -0.4148  -0.4137  -0.4119  -0.4104  -0.4091  -0.4065  -0.4054  -0.4043
 -0.4038  -0.4015  -0.3990  -0.3978  -0.3954  -0.3940  -0.3929  -0.3908
 -0.3856  -0.3851  -0.3832  -0.3756  -0.3753  -0.3751  -0.3744  -0.3743
 -0.3731  -0.3724  -0.3718  -0.3716  -0.3708  -0.3692  -0.3679  -0.3673
 -0.3655  -0.3639  -0.3620  -0.3612  -0.3588  -0.3577  -0.3563  -0.3520
 -0.3477  -0.3463  -0.3430  -0.3405  -0.3397  -0.3383  -0.3375  -0.3365
 -0.3333  -0.3319  -0.3308  -0.3307  -0.3305  -0.3279  -0.3228  -0.3178
 -0.3137  -0.3111  -0.2550  -0.2535  -0.2511  -0.2479  -0.2437  -0.2405
 -0.2374  -0.2338  -0.2335  -0.2309  -0.2284  -0.2254  -0.2216

          Ground-State Mulliken Net Atomic Charges

     Atom                 Charge (a.u.)    Spin (a.u.)
  --------------------------------------------------------
      1 C                    -1.771391       0.072042
      2 C                    -1.219067       0.040054
      3 C                     0.047903       0.076826
      4 C                    -1.834697       0.090045
      5 C                    -0.669372       0.042682
      6 C                     0.455806       0.122616
      7 O                    -0.347561       0.259405
      8 O                    -0.294350       0.265529
      9 C                     0.321650       0.008909
     10 C                     0.452340      -0.003616
     11 H                    -0.060672      -0.009607
     12 H                     0.205764       0.003837
     13 H                     0.181682      -0.002249
     14 H                     0.209354       0.003744
     15 H                     0.194721      -0.002295
     16 H                     0.205439       0.002984
     17 H                     0.204277       0.003001
     18 C                    -0.298346       0.018328
     19 C                    -1.430835      -0.000655
     20 C                     1.483975      -0.002566
     21 C                     0.839500       0.001089
     22 C                    -0.641366      -0.000187
     23 C                    -0.745569       0.000448
     24 C                     0.746612      -0.000203
     25 C                     0.179094      -0.000013
     26 C                    -0.495492       0.000069
     27 C                    -0.880128      -0.000050
     28 C                     0.700147      -0.000009
     29 C                     0.081273      -0.000003
     30 C                     0.264493      -0.000412
     31 C                    -0.671146       0.000041
     32 C                    -0.412987      -0.000001
     33 C                    -0.431282       0.000007
     34 C                    -0.684146      -0.000010
     35 C                     0.364634       0.000001
     36 C                     0.005350       0.000002
     37 C                    -0.300813      -0.000000
     38 C                    -0.641086      -0.000000
     39 C                     0.303956      -0.000000
     40 C                    -0.062876       0.000001
     41 C                    -0.270150      -0.000000
     42 C                    -0.575294       0.000000
     43 C                     0.298796       0.000000
     44 C                    -0.166376      -0.000000
     45 C                    -0.211780       0.000000
     46 C                    -0.646843      -0.000000
     47 C                     0.287847      -0.000000
     48 C                    -0.469863      -0.000000
     49 C                    -0.493151      -0.000000
     50 C                    -0.486812      -0.000000
     51 C                    -0.487392      -0.000000
     52 C                    -0.130367       0.000000
     53 C                    -0.115556      -0.000000
     54 C                    -0.422264       0.000000
     55 C                     0.186140      -0.000000
     56 C                    -0.513329       0.000000
     57 C                    -0.380111      -0.000000
     58 C                    -0.210848      -0.000000
     59 C                    -0.139503       0.000000
     60 C                    -0.096172       0.000000
     61 C                    -0.490314      -0.000000
     62 C                    -0.410324      -0.000000
     63 H                     0.208640       0.000208
     64 H                     0.025512       0.009851
     65 H                     0.039252       0.000481
     66 H                     0.327727      -0.000194
     67 H                     0.220573      -0.000110
     68 H                     0.173973       0.000081
     69 H                    -0.020158       0.000546
     70 H                     0.174153       0.000004
     71 H                     0.234276      -0.000001
     72 H                     0.156373      -0.000001
     73 H                     0.139808      -0.000005
     74 H                     0.040566       0.000002
     75 H                     0.174666       0.000000
     76 H                     0.170251       0.000000
     77 H                     0.198715      -0.000000
     78 H                     0.236335      -0.000315
     79 H                     0.172109      -0.000151
     80 H                     0.235752       0.000023
     81 H                     0.102125      -0.000218
     82 H                     0.171712       0.000023
     83 H                     0.203243      -0.000006
     84 H                     0.161045      -0.000001
     85 H                     0.186002       0.000000
     86 H                     0.190457      -0.000000
     87 H                     0.067763       0.000001
     88 H                     0.142160      -0.000000
     89 H                     0.160631      -0.000000
     90 H                     0.143376       0.000000
     91 H                     0.195049      -0.000000
     92 H                     0.064395      -0.000000
     93 H                     0.129712       0.000000
     94 H                     0.172079      -0.000000
     95 H                     0.141658       0.000000
     96 H                     0.182286      -0.000000
     97 H                     0.069784       0.000000
     98 H                     0.129452      -0.000000
     99 H                     0.176786      -0.000000
    100 H                     0.141242       0.000000
    101 H                     0.168204       0.000000
    102 H                     0.071677       0.000000
    103 H                     0.127477      -0.000000
    104 H                     0.173521       0.000000
    105 H                     0.156066      -0.000000
    106 H                     0.183020       0.000000
    107 H                     0.179258       0.000000
    108 H                     0.159362       0.000000
    109 H                     0.179577      -0.000000
    110 H                     0.181934       0.000000
    111 H                     0.160028       0.000000
    112 H                     0.178002       0.000000
    113 H                     0.182906      -0.000000
    114 H                     0.159577       0.000000
    115 H                     0.177870       0.000000
    116 H                     0.183403      -0.000000
    117 H                     0.133222      -0.000000
    118 H                     0.173898       0.000000
    119 H                     0.084556       0.000000
    120 H                     0.121702      -0.000000
    121 H                     0.199352       0.000000
    122 H                     0.158754       0.000000
    123 H                     0.178495       0.000000
    124 H                     0.186484      -0.000000
    125 H                     0.138103      -0.000000
    126 H                     0.154193       0.000000
    127 H                     0.082439       0.000000
    128 H                     0.123876       0.000000
    129 H                     0.176561      -0.000000
    130 H                     0.168676       0.000000
    131 H                     0.164283      -0.000000
    132 H                     0.164973      -0.000000
    133 H                     0.179427      -0.000000
    134 H                     0.172177      -0.000000
    135 H                     0.166340       0.000000
  --------------------------------------------------------
  Sum of atomic charges =    -1.000001

                    Cartesian Multipole Moments
 -----------------------------------------------------------------
    Charge (ESU x 10^10)
                -4.8032
    Dipole Moment (Debye)
         X     -78.9259      Y     -11.4474      Z      -9.2914
       Tot      80.2911
    Quadrupole Moments (Debye-Ang)
        XX   -1660.5721     XY    -196.0672     YY    -383.2363
        XZ    -168.5964     YZ     -15.2244     ZZ    -404.4355

 Total job time:  29547.37s(wall), 85519.37s(cpu)
        *  Thank you very much for using Q-Chem.  Have a nice day.  *
