 Q-Chem 5.4, Q-Chem, Inc., Pleasanton, CA (2021)
 Q-Chem 5.4.0 for Intel X86 EM64T Linux

User input:
--------------------------------------------------------------
$molecule
-1 2
C                 -4.0127750000     -1.0154600000      0.2448240000
C                 -2.6318800000     -0.4069570000      0.2506500000
C                 -2.4618100000      0.9859470000      0.4234900000
C                 -3.6584280000      1.8873140000      0.6047720000
C                 -1.1773990000      1.5382140000      0.4275190000
O                 -1.0342710000      2.8775240000      0.5951240000
C                 -0.0284420000      0.7174700000      0.2590200000
C                  1.2894280000      1.3160820000      0.2670590000
O                  1.4524520000      2.5758220000      0.4231420000
C                  2.4314280000      0.4349040000      0.0907060000
C                  3.7387720000      0.9699190000      0.0910310000
C                  4.8407130000      0.1555970000     -0.0745060000
C                  4.6707000000     -1.2364980000     -0.2478710000
C                  3.4027380000     -1.7815220000     -0.2515590000
C                  2.2600870000     -0.9681030000     -0.0839280000
C                  0.9370610000     -1.5691450000     -0.0918320000
O                  0.7921080000     -2.8309470000     -0.2490920000
C                 -0.2004920000     -0.6914870000      0.0838870000
C                 -1.5157060000     -1.2321420000      0.0834250000
O                 -1.6992140000     -2.5669240000     -0.0810000000
H                 -3.9529930000     -2.0930780000      0.1011750000
H                 -4.6339420000     -0.5959590000     -0.5559170000
H                 -4.5412140000     -0.8229380000      1.1864650000
H                 -4.2435550000      1.6062810000      1.4889090000
H                 -3.3410130000      2.9223420000      0.7206540000
H                 -4.3386910000      1.8303430000     -0.2536970000
H                 -0.0388230000      3.0355640000      0.5625180000
H                  3.8418330000      2.0401170000      0.2257980000
H                  5.8388220000      0.5830470000     -0.0717630000
H                  5.5385050000     -1.8759670000     -0.3780110000
H                  3.2451280000     -2.8455300000     -0.3825530000
H                 -0.7691260000     -2.9438320000     -0.1799910000
$end
$rem
MAX_SCF_CYCLES=200
BASIS  =  6-311++G(d,p)
GUI  =  2
JOB_TYPE  =  SP
METHOD  =  B3LYP
SOLVENT_METHOD = PCM
$end
$pcm
theory = CPCM
$end
$solvent
dielectric 37.219
opticaldielectric 1.43
$end

--------------------------------------------------------------

             Standard Nuclear Orientation (Angstroms)
    I     Atom           X                Y                Z
 ----------------------------------------------------------------
    1      C      -4.0127750000    -1.0154600000     0.2448240000
    2      C      -2.6318800000    -0.4069570000     0.2506500000
    3      C      -2.4618100000     0.9859470000     0.4234900000
    4      C      -3.6584280000     1.8873140000     0.6047720000
    5      C      -1.1773990000     1.5382140000     0.4275190000
    6      O      -1.0342710000     2.8775240000     0.5951240000
    7      C      -0.0284420000     0.7174700000     0.2590200000
    8      C       1.2894280000     1.3160820000     0.2670590000
    9      O       1.4524520000     2.5758220000     0.4231420000
   10      C       2.4314280000     0.4349040000     0.0907060000
   11      C       3.7387720000     0.9699190000     0.0910310000
   12      C       4.8407130000     0.1555970000    -0.0745060000
   13      C       4.6707000000    -1.2364980000    -0.2478710000
   14      C       3.4027380000    -1.7815220000    -0.2515590000
   15      C       2.2600870000    -0.9681030000    -0.0839280000
   16      C       0.9370610000    -1.5691450000    -0.0918320000
   17      O       0.7921080000    -2.8309470000    -0.2490920000
   18      C      -0.2004920000    -0.6914870000     0.0838870000
   19      C      -1.5157060000    -1.2321420000     0.0834250000
   20      O      -1.6992140000    -2.5669240000    -0.0810000000
   21      H      -3.9529930000    -2.0930780000     0.1011750000
   22      H      -4.6339420000    -0.5959590000    -0.5559170000
   23      H      -4.5412140000    -0.8229380000     1.1864650000
   24      H      -4.2435550000     1.6062810000     1.4889090000
   25      H      -3.3410130000     2.9223420000     0.7206540000
   26      H      -4.3386910000     1.8303430000    -0.2536970000
   27      H      -0.0388230000     3.0355640000     0.5625180000
   28      H       3.8418330000     2.0401170000     0.2257980000
   29      H       5.8388220000     0.5830470000    -0.0717630000
   30      H       5.5385050000    -1.8759670000    -0.3780110000
   31      H       3.2451280000    -2.8455300000    -0.3825530000
   32      H      -0.7691260000    -2.9438320000    -0.1799910000
 ----------------------------------------------------------------

    8    -918.2731671137      6.30e-06  Convergence criterion met
 Total energy in the final basis set =     -918.2731671137

                    Orbital Energies (a.u.)
 --------------------------------------------------------------

 Alpha MOs
 -- Occupied --
-19.1275 -19.1275 -19.0908 -19.0908 -10.2346 -10.2346 -10.2275 -10.2275
-10.1777 -10.1773 -10.1764 -10.1759 -10.1755 -10.1751 -10.1747 -10.1743
-10.1730 -10.1729 -10.1574 -10.1574  -1.0524  -1.0508  -1.0071  -1.0053
 -0.8655  -0.8497  -0.8027  -0.7571  -0.7570  -0.7481  -0.7090  -0.6874
 -0.6567  -0.6230  -0.6198  -0.5952  -0.5717  -0.5398  -0.5217  -0.5077
 -0.5063  -0.4737  -0.4643  -0.4527  -0.4473  -0.4345  -0.4278  -0.4251
 -0.4222  -0.4183  -0.4086  -0.4073  -0.3963  -0.3897  -0.3859  -0.3726
 -0.3671  -0.3666  -0.3600  -0.3506  -0.3502  -0.3487  -0.3389  -0.3027
 -0.2665  -0.2639  -0.2615  -0.2492  -0.2422  -0.2126  -0.1445

 Beta MOs
 -- Occupied --
-19.1268 -19.1268 -19.0866 -19.0866 -10.2324 -10.2324 -10.2267 -10.2267
-10.1770 -10.1765 -10.1756 -10.1754 -10.1752 -10.1750 -10.1742 -10.1738
-10.1728 -10.1728 -10.1575 -10.1575  -1.0503  -1.0486  -1.0002  -0.9982
 -0.8630  -0.8480  -0.7999  -0.7552  -0.7544  -0.7458  -0.7063  -0.6858
 -0.6515  -0.6216  -0.6178  -0.5942  -0.5699  -0.5377  -0.5203  -0.5065
 -0.5045  -0.4717  -0.4629  -0.4507  -0.4415  -0.4334  -0.4272  -0.4210
 -0.4164  -0.4145  -0.4064  -0.4024  -0.3954  -0.3822  -0.3815  -0.3720
 -0.3662  -0.3591  -0.3536  -0.3499  -0.3473  -0.3412  -0.3377  -0.2948
 -0.2604  -0.2545  -0.2531  -0.2458  -0.2368  -0.2010

          Ground-State Mulliken Net Atomic Charges

     Atom                 Charge (a.u.)    Spin (a.u.)
  --------------------------------------------------------
      1 C                    -0.550417      -0.006059
      2 C                     0.501784       0.069820
      3 C                     0.502294       0.069860
      4 C                    -0.547882      -0.006052
      5 C                    -0.574097       0.059201
      6 O                    -0.451265       0.020986
      7 C                     0.454588      -0.027650
      8 C                    -0.347390       0.125497
      9 O                    -0.508811       0.156054
     10 C                     0.084781       0.029901
     11 C                     0.001958       0.033486
     12 C                    -0.416205       0.039436
     13 C                    -0.415406       0.039507
     14 C                     0.001108       0.033452
     15 C                     0.083511       0.029933
     16 C                    -0.345894       0.125515
     17 O                    -0.509008       0.156040
     18 C                     0.456650      -0.027605
     19 C                    -0.575300       0.059271
     20 O                    -0.451514       0.020979
     21 H                     0.187380       0.000236
     22 H                     0.166893       0.003370
     23 H                     0.167190       0.003373
     24 H                     0.167132       0.003391
     25 H                     0.187621       0.000235
     26 H                     0.166701       0.003360
     27 H                     0.401118      -0.003727
     28 H                     0.180250      -0.000792
     29 H                     0.200289      -0.003250
     30 H                     0.200311      -0.003254
     31 H                     0.180246      -0.000792
     32 H                     0.401382      -0.003721
  --------------------------------------------------------
  Sum of atomic charges =    -1.000000

                    Cartesian Multipole Moments
 -----------------------------------------------------------------
    Charge (ESU x 10^10)
                -4.8032
    Dipole Moment (Debye)
         X      -2.0002      Y       0.2274      Z      -0.6480
       Tot       2.1148
    Quadrupole Moments (Debye-Ang)
        XX    -118.0760     XY      -4.8741     YY    -157.7750
        XZ      -1.2044     YZ      -4.2864     ZZ    -123.3065

 Total job time:  85.23s(wall), 522.52s(cpu)
        *  Thank you very much for using Q-Chem.  Have a nice day.  *
