 Gaussian 16, Revision A.03,
 Gaussian 16:  ES64L-G16RevA.03 25-Dec-2016

 ----------------------------------------------------------------
 #P UB3LYP/6-311++G(d,p) SCRF=(PCM,Solvent=n,n-DiMethylFormamide)
 ----------------------------------------------------------------

 ------------------
 Radical PCM in DMF
 ------------------
 Symbolic Z-matrix:
 Charge = -1 Multiplicity = 2

                         Standard orientation:
 ---------------------------------------------------------------------
 Center     Atomic      Atomic             Coordinates (Angstroms)
 Number     Number       Type             X           Y           Z
 ---------------------------------------------------------------------
      1          6           0       -4.128451   -1.473224    0.000045
      2          6           0       -2.828480   -0.706897   -0.000026
      3          6           0       -2.828504    0.706956   -0.000274
      4          6           0       -4.128557    1.473168   -0.000719
      5          6           0       -1.617723    1.406052    0.000061
      6          8           0       -1.638063    2.763224    0.000146
      7          6           0       -0.374865    0.715097    0.000205
      8          6           0        0.863592    1.464368    0.000277
      9          8           0        0.872720    2.744134    0.000308
     10          6           0        2.106894    0.712077    0.000103
     11          6           0        3.342603    1.396484    0.000216
     12          6           0        4.537929    0.706561   -0.000023
     13          6           0        4.537953   -0.706551   -0.000396
     14          6           0        3.342640   -1.396492   -0.000462
     15          6           0        2.106917   -0.712101   -0.000184
     16          6           0        0.863613   -1.464369   -0.000080
     17          8           0        0.872712   -2.744136   -0.000055
     18          6           0       -0.374840   -0.715089    0.000157
     19          6           0       -1.617706   -1.406015    0.000223
     20          8           0       -1.638122   -2.763195    0.000567
     21          1           0       -3.938064   -2.545241    0.000513
     22          1           0       -4.737340   -1.232710   -0.879969
     23          1           0       -4.737682   -1.231862    0.879580
     24          1           0       -4.736743    1.234143    0.880205
     25          1           0       -3.938342    2.545210   -0.003237
     26          1           0       -4.738444    1.230103   -0.879315
     27          1           0       -0.666846    3.034693   -0.000011
     28          1           0        3.315083    2.479697    0.000517
     29          1           0        5.479039    1.248090    0.000075
     30          1           0        5.479080   -1.248052   -0.000599
     31          1           0        3.315130   -2.479708   -0.000712
     32          1           0       -0.666940   -3.034725    0.000498
 ---------------------------------------------------------------------

 SCF Done:  E(UB3LYP) =  -918.269590983     A.U. after   18 cycles

 The electronic state is 2-A.
 Alpha  occ. eigenvalues --  -19.12593 -19.12592 -19.08979 -19.08978 -10.23348
 Alpha  occ. eigenvalues --  -10.23346 -10.22656 -10.22655 -10.17761 -10.17717
 Alpha  occ. eigenvalues --  -10.17623 -10.17585 -10.17575 -10.17539 -10.17497
 Alpha  occ. eigenvalues --  -10.17454 -10.17358 -10.17358 -10.15974 -10.15973
 Alpha  occ. eigenvalues --   -1.05104  -1.04937  -1.00577  -1.00397  -0.86540
 Alpha  occ. eigenvalues --   -0.84958  -0.80287  -0.75730  -0.75721  -0.74828
 Alpha  occ. eigenvalues --   -0.70914  -0.68826  -0.65678  -0.62357  -0.61990
 Alpha  occ. eigenvalues --   -0.59451  -0.57183  -0.53973  -0.52140  -0.50736
 Alpha  occ. eigenvalues --   -0.50576  -0.47352  -0.46425  -0.45300  -0.44719
 Alpha  occ. eigenvalues --   -0.43512  -0.42815  -0.42366  -0.42287  -0.41786
 Alpha  occ. eigenvalues --   -0.40823  -0.40686  -0.39716  -0.39070  -0.38575
 Alpha  occ. eigenvalues --   -0.37406  -0.36754  -0.36561  -0.36053  -0.35029
 Alpha  occ. eigenvalues --   -0.35009  -0.34903  -0.33883  -0.30158  -0.26629
 Alpha  occ. eigenvalues --   -0.26253  -0.26148  -0.24793  -0.24226  -0.21149
 Alpha  occ. eigenvalues --   -0.14376
 Alpha virt. eigenvalues --   -0.05074  -0.02254  -0.00617   0.00148   0.01075
 Alpha virt. eigenvalues --    0.01099   0.01871   0.02153   0.03265   0.03759
 Alpha virt. eigenvalues --    0.03891   0.04132   0.05043   0.05083   0.05523

  Beta  occ. eigenvalues --  -19.12529 -19.12528 -19.08534 -19.08533 -10.23132
  Beta  occ. eigenvalues --  -10.23131 -10.22582 -10.22581 -10.17687 -10.17643
  Beta  occ. eigenvalues --  -10.17536 -10.17531 -10.17513 -10.17490 -10.17483
  Beta  occ. eigenvalues --  -10.17471 -10.17350 -10.17349 -10.15981 -10.15980
  Beta  occ. eigenvalues --   -1.04887  -1.04724  -0.99858  -0.99661  -0.86292
  Beta  occ. eigenvalues --   -0.84797  -0.80005  -0.75558  -0.75456  -0.74613
  Beta  occ. eigenvalues --   -0.70637  -0.68664  -0.65151  -0.62215  -0.61786
  Beta  occ. eigenvalues --   -0.59360  -0.57007  -0.53766  -0.52002  -0.50616
  Beta  occ. eigenvalues --   -0.50399  -0.47155  -0.46283  -0.45110  -0.44191
  Beta  occ. eigenvalues --   -0.43409  -0.42765  -0.41935  -0.41588  -0.41505
  Beta  occ. eigenvalues --   -0.40599  -0.40286  -0.39625  -0.38269  -0.38134
  Beta  occ. eigenvalues --   -0.37339  -0.36671  -0.35957  -0.35207  -0.34973
  Beta  occ. eigenvalues --   -0.34756  -0.34065  -0.33758  -0.29357  -0.25879
  Beta  occ. eigenvalues --   -0.25449  -0.25250  -0.24439  -0.23684  -0.20000
  Beta virt. eigenvalues --   -0.09060  -0.03986  -0.01301  -0.00599   0.00155
  Beta virt. eigenvalues --    0.01091   0.01794   0.01889   0.02155   0.03304
  Beta virt. eigenvalues --    0.03777   0.03904   0.04142   0.05097   0.05519

 Mulliken charges and spin densities:
               1          2
     1  C   -0.525402  -0.006008
     2  C    0.518114   0.070355
     3  C    0.517864   0.070348
     4  C   -0.525455  -0.006008
     5  C   -0.598312   0.057587
     6  O   -0.439282   0.020475
     7  C    0.447592  -0.027499
     8  C   -0.373245   0.120711
     9  O   -0.491763   0.161393
    10  C    0.105584   0.031612
    11  C    0.015169   0.032527
    12  C   -0.407873   0.039765
    13  C   -0.407868   0.039755
    14  C    0.015141   0.032536
    15  C    0.105498   0.031600
    16  C   -0.373236   0.120708
    17  O   -0.491761   0.161403
    18  C    0.447554  -0.027492
    19  C   -0.598313   0.057587
    20  O   -0.439254   0.020473
    21  H    0.186137   0.000252
    22  H    0.157015   0.003370
    23  H    0.156993   0.003369
    24  H    0.157186   0.003380
    25  H    0.186140   0.000252
    26  H    0.156829   0.003358
    27  H    0.393767  -0.003904
    28  H    0.171309  -0.000714
    29  H    0.184402  -0.003286
    30  H    0.184404  -0.003285
    31  H    0.171310  -0.000715
    32  H    0.393759  -0.003904
 Sum of Mulliken charges =  -1.00000   1.00000

 Dipole moment (field-independent basis, Debye):
    X=             -0.7317    Y=             -0.0002    Z=             -0.0013  Tot=              0.7317
 Quadrupole moment (field-independent basis, Debye-Ang):
   XX=           -119.4944   YY=           -158.3498   ZZ=           -122.7585
   XY=              0.0004   XZ=              0.0017   YZ=             -0.0010

 Normal termination of Gaussian 16 at Tue Jan 16 05:44:43 2024.
