 Q-Chem 5.4, Q-Chem, Inc., Pleasanton, CA (2021)
 Q-Chem 5.4.0 for Intel X86 EM64T Linux

User input:
--------------------------------------------------------------
$molecule
-1 2
C                  2.2551760000     -0.0702820000      0.0791920000
C                  0.7539460000      0.0378050000      0.0302610000
C                  0.1123750000      1.2465190000      0.0817290000
C                 -1.3283420000      1.3864980000      0.0370420000
O                 -1.9067340000      2.5077590000      0.0853420000
C                 -2.0693380000      0.1444040000     -0.0676770000
C                 -1.4247160000     -1.0591100000     -0.1186830000
Br                -2.4795050000     -2.6827510000     -0.2586340000
C                  0.0171110000     -1.2239400000     -0.0755980000
O                  0.6063460000     -2.3324100000     -0.1228310000
H                  2.5757020000     -0.6818900000      0.9290540000
H                  2.7155680000      0.9184130000      0.1584420000
H                  2.6405100000     -0.5722880000     -0.8144490000
H                  0.6816810000      2.1694380000      0.1603000000
H                 -3.1497820000      0.2118360000     -0.1034920000
$end
$rem
MAX_SCF_CYCLES=200
BASIS  =  6-311++G(d,p)
GUI  =  2
JOB_TYPE  =  SP
METHOD  =  B3LYP
SOLVENT_METHOD = PCM
$end
$pcm
theory = CPCM
$end
$solvent
dielectric 37.219
opticaldielectric 1.43
$end

--------------------------------------------------------------

             Standard Nuclear Orientation (Angstroms)
    I     Atom           X                Y                Z
 ----------------------------------------------------------------
    1      C       2.2551760000    -0.0702820000     0.0791920000
    2      C       0.7539460000     0.0378050000     0.0302610000
    3      C       0.1123750000     1.2465190000     0.0817290000
    4      C      -1.3283420000     1.3864980000     0.0370420000
    5      O      -1.9067340000     2.5077590000     0.0853420000
    6      C      -2.0693380000     0.1444040000    -0.0676770000
    7      C      -1.4247160000    -1.0591100000    -0.1186830000
    8      Br     -2.4795050000    -2.6827510000    -0.2586340000
    9      C       0.0171110000    -1.2239400000    -0.0755980000
   10      O       0.6063460000    -2.3324100000    -0.1228310000
   11      H       2.5757020000    -0.6818900000     0.9290540000
   12      H       2.7155680000     0.9184130000     0.1584420000
   13      H       2.6405100000    -0.5722880000    -0.8144490000
   14      H       0.6816810000     2.1694380000     0.1603000000
   15      H      -3.1497820000     0.2118360000    -0.1034920000
 ----------------------------------------------------------------

    9   -2994.6009097395      6.91e-06  Convergence criterion met
 Total energy in the final basis set =    -2994.6009097395

                    Orbital Energies (a.u.)
 --------------------------------------------------------------

 Alpha MOs
 -- Occupied --
******** -62.4775 -56.2978 -56.2943 -56.2940 -19.0875 -19.0851 -10.2333
-10.2285 -10.2221 -10.1813 -10.1737 -10.1632 -10.1585  -8.6861  -6.5170
 -6.5052  -6.5045  -2.6281  -2.6247  -2.6242  -2.6148  -2.6148  -1.0131
 -1.0059  -0.8449  -0.8011  -0.7488  -0.6960  -0.6741  -0.5820  -0.5643
 -0.4929  -0.4745  -0.4341  -0.4325  -0.4130  -0.4079  -0.3958  -0.3939
 -0.3807  -0.3709  -0.3577  -0.3233  -0.2893  -0.2797  -0.2542  -0.2494
 -0.2466  -0.1701

 Beta MOs
 -- Occupied --
******** -62.4775 -56.2978 -56.2942 -56.2940 -19.0808 -19.0783 -10.2316
-10.2272 -10.2208 -10.1804 -10.1722 -10.1624 -10.1586  -8.6861  -6.5170
 -6.5051  -6.5045  -2.6281  -2.6247  -2.6242  -2.6148  -2.6147  -1.0014
 -0.9938  -0.8395  -0.7993  -0.7460  -0.6919  -0.6661  -0.5782  -0.5600
 -0.4906  -0.4700  -0.4291  -0.4213  -0.4104  -0.4044  -0.3917  -0.3840
 -0.3687  -0.3557  -0.3549  -0.3123  -0.2890  -0.2528  -0.2479  -0.2425
 -0.2406

          Ground-State Mulliken Net Atomic Charges

     Atom                 Charge (a.u.)    Spin (a.u.)
  --------------------------------------------------------
      1 C                    -0.425110       0.002043
      2 C                     1.484223       0.084172
      3 C                    -0.761669       0.036023
      4 C                    -0.319465       0.136546
      5 O                    -0.513777       0.239143
      6 C                    -0.060653       0.101019
      7 C                     1.031483       0.103958
      8 Br                   -0.221317       0.005511
      9 C                    -1.701346       0.052207
     10 O                    -0.435499       0.247288
     11 H                     0.173745       0.003779
     12 H                     0.159425      -0.000405
     13 H                     0.173634       0.003761
     14 H                     0.179267      -0.005580
     15 H                     0.237060      -0.009465
  --------------------------------------------------------
  Sum of atomic charges =    -1.000000

                    Cartesian Multipole Moments
 -----------------------------------------------------------------
    Charge (ESU x 10^10)
                -4.8032
    Dipole Moment (Debye)
         X       5.4482      Y       1.5986      Z       0.3029
       Tot       5.6860
    Quadrupole Moments (Debye-Ang)
        XX     -85.1012     XY      12.5698     YY    -110.8247
        XZ       0.3965     YZ      -1.7881     ZZ     -74.7491

 Total job time:  27.13s(wall), 117.41s(cpu)
        *  Thank you very much for using Q-Chem.  Have a nice day.  *
