 Gaussian 16, Revision A.03,
 Gaussian 16:  ES64L-G16RevA.03 25-Dec-2016

 -----------------------------------------
 #P UB3LYP/6-311++G(d,p) nosym opt SCF=YQC
 -----------------------------------------

 -------
 Reduced
 -------
 Symbolic Z-matrix:
 Charge = -2 Multiplicity = 1

 SCF Done:  E(UB3LYP) =  -1194.32183245     a.u. after    8 cycles
 SCF Done:  E(UB3LYP) =  -1194.34716916     A.U. after   33 cycles
 SCF Done:  E(UB3LYP) =  -1194.34716960     a.u. after    2 cycles
 SCF Done:  E(UB3LYP) =  -1194.34847465     a.u. after   82 cycles
 SCF Done:  E(UB3LYP) =  -1194.34871365     A.U. after   23 cycles
 SCF Done:  E(UB3LYP) =  -1194.34873615     a.u. after   20 cycles
 SCF Done:  E(UB3LYP) =  -1194.34884557     A.U. after   21 cycles
 SCF Done:  E(UB3LYP) =  -1194.34873052     a.u. after   28 cycles
 SCF Done:  E(UB3LYP) =  -1194.34882748     A.U. after   20 cycles
 SCF Done:  E(UB3LYP) =  -1194.34880795     a.u. after   34 cycles
 SCF Done:  E(UB3LYP) =  -1194.34888910     A.U. after   20 cycles
 SCF Done:  E(UB3LYP) =  -1194.34886805     a.u. after    3 cycles
 SCF Done:  E(UB3LYP) =  -1194.34889127     A.U. after   20 cycles
 SCF Done:  E(UB3LYP) =  -1194.34887931     a.u. after    1 cycles
 SCF Done:  E(UB3LYP) =  -1194.34889148     A.U. after   18 cycles
 Optimization completed.
    -- Stationary point found.

                          Input orientation:
 ---------------------------------------------------------------------
 Center     Atomic      Atomic             Coordinates (Angstroms)
 Number     Number       Type             X           Y           Z
 ---------------------------------------------------------------------
      1          6           0       -6.559650    0.820351   -1.860192
      2          6           0       -6.690686    1.052171   -3.215568
      3          6           0       -5.692912    0.597107   -4.111704
      4          6           0       -5.439572    0.130056   -1.332792
      5          6           0       -4.422857   -0.331646   -2.243650
      6          6           0       -4.587823   -0.079050   -3.617800
      7          6           0       -5.316204   -0.107744    0.076952
      8          6           0       -4.143114   -0.814728    0.492509
      9          6           0       -3.143526   -1.281050   -0.353779
     10          6           0       -3.233244   -1.054934   -1.774230
     11          8           0       -6.163778    0.252788    0.987754
     12          8           0       -2.337686   -1.464663   -2.581302
     13          8           0       -4.089188   -1.012518    1.852019
     14          6           0       -1.960126   -2.044844    0.178697
     15          1           0       -7.311547    1.160293   -1.155314
     16          1           0       -7.559661    1.585371   -3.595341
     17          1           0       -5.793162    0.779014   -5.178915
     18          1           0       -3.805160   -0.438289   -4.278327
     19          1           0       -4.932057   -0.574562    2.123756
     20          6           0       -0.710559   -1.175866    0.431320
     21          6           0        0.487510   -2.022443    0.910699
     22          6           0        1.747076   -1.239808    1.200866
     23          6           0        2.646935   -0.899228    0.181272
     24          6           0        2.063810   -0.817487    2.496317
     25          6           0        3.226776   -0.094163    2.761669
     26          6           0        4.128004    0.239257    1.745521
     27          6           0        3.809271   -0.178971    0.446065
     28          6           0        5.402231    1.006347    2.057735
     29          6           0        6.678315    0.178391    1.780587
     30          6           0        5.481473    2.366611    1.329536
     31          6           0        6.758972    3.138276    1.691806
     32          6           0        7.956672    0.949489    2.138198
     33          6           0        8.021802    2.308746    1.433075
     34          1           0       -1.692751   -2.809867   -0.559906
     35          1           0       -2.234611   -2.546193    1.114141
     36          1           0       -0.940588   -0.409610    1.179744
     37          1           0       -0.449250   -0.657584   -0.496069
     38          1           0        0.701471   -2.778855    0.145907
     39          1           0        0.191477   -2.569505    1.814269
     40          1           0        2.429015   -1.205720   -0.837532
     41          1           0        1.387963   -1.060209    3.311400
     42          1           0        3.441390    0.214119    3.781670
     43          1           0        4.478751    0.056780   -0.375642
     44          1           0        5.389448    1.221289    3.135041
     45          1           0        6.703705   -0.099162    0.719370
     46          1           0        6.632211   -0.761307    2.343781
     47          1           0        4.593932    2.962022    1.572131
     48          1           0        5.452825    2.198180    0.245880
     49          1           0        6.723336    3.418522    2.753398
     50          1           0        6.803589    4.079718    1.129951
     51          1           0        8.843787    0.351538    1.891512
     52          1           0        7.991525    1.106361    3.224947
     53          1           0        8.130692    2.147685    0.351848
     54          1           0        8.915904    2.860620    1.750817
 ---------------------------------------------------------------------

 Alpha  occ. eigenvalues --  -18.92613 -18.84789 -18.83841 -10.03887 -10.03339
 Alpha  occ. eigenvalues --  -10.02885 -10.02838 -10.02836 -10.02816 -10.02787
 Alpha  occ. eigenvalues --  -10.02733 -10.02663 -10.02561 -10.02417 -10.02346
 Alpha  occ. eigenvalues --  -10.00588  -9.99859  -9.99589  -9.98852  -9.98106
 Alpha  occ. eigenvalues --   -9.97342  -9.96941  -9.96592  -9.96548  -9.96418
 Alpha  occ. eigenvalues --   -9.95659  -9.95355  -9.94509  -0.84068  -0.75787
 Alpha  occ. eigenvalues --   -0.75038  -0.71913  -0.69335  -0.64435  -0.64283
 Alpha  occ. eigenvalues --   -0.61160  -0.60564  -0.59954  -0.59004  -0.56737
 Alpha  occ. eigenvalues --   -0.54101  -0.53457  -0.49810  -0.47422  -0.47236
 Alpha  occ. eigenvalues --   -0.46341  -0.45034  -0.43181  -0.41582  -0.41270
 Alpha  occ. eigenvalues --   -0.40090  -0.37806  -0.35830  -0.35317  -0.33457
 Alpha  occ. eigenvalues --   -0.32327  -0.32266  -0.30921  -0.30322  -0.29805
 Alpha  occ. eigenvalues --   -0.29172  -0.28571  -0.27576  -0.26991  -0.26026
 Alpha  occ. eigenvalues --   -0.25591  -0.25150  -0.24315  -0.24277  -0.24206
 Alpha  occ. eigenvalues --   -0.23351  -0.21869  -0.21542  -0.21045  -0.20920
 Alpha  occ. eigenvalues --   -0.20745  -0.19792  -0.19652  -0.18807  -0.18727
 Alpha  occ. eigenvalues --   -0.17959  -0.17164  -0.16984  -0.16719  -0.16556
 Alpha  occ. eigenvalues --   -0.16396  -0.16076  -0.15920  -0.14355  -0.13052
 Alpha  occ. eigenvalues --   -0.12658  -0.11853  -0.11277  -0.10869  -0.08888
 Alpha  occ. eigenvalues --   -0.04527  -0.03806  -0.02870  -0.00991  -0.00722
 Alpha  occ. eigenvalues --    0.08825
 Alpha virt. eigenvalues --    0.09570   0.11356   0.11401   0.12154   0.13022
 Alpha virt. eigenvalues --    0.13318   0.13675   0.13870   0.14004   0.14547
 Alpha virt. eigenvalues --    0.14739   0.15224   0.15672   0.15712   0.16312

  Beta  occ. eigenvalues --  -18.92613 -18.84789 -18.83841 -10.03887 -10.03339
  Beta  occ. eigenvalues --  -10.02885 -10.02838 -10.02836 -10.02816 -10.02787
  Beta  occ. eigenvalues --  -10.02733 -10.02663 -10.02561 -10.02417 -10.02346
  Beta  occ. eigenvalues --  -10.00588  -9.99859  -9.99589  -9.98852  -9.98106
  Beta  occ. eigenvalues --   -9.97342  -9.96941  -9.96592  -9.96548  -9.96418
  Beta  occ. eigenvalues --   -9.95659  -9.95355  -9.94509  -0.84068  -0.75787
  Beta  occ. eigenvalues --   -0.75038  -0.71913  -0.69335  -0.64435  -0.64283
  Beta  occ. eigenvalues --   -0.61160  -0.60564  -0.59954  -0.59004  -0.56737
  Beta  occ. eigenvalues --   -0.54101  -0.53457  -0.49810  -0.47422  -0.47236
  Beta  occ. eigenvalues --   -0.46341  -0.45034  -0.43181  -0.41582  -0.41270
  Beta  occ. eigenvalues --   -0.40090  -0.37806  -0.35830  -0.35317  -0.33457
  Beta  occ. eigenvalues --   -0.32327  -0.32266  -0.30921  -0.30322  -0.29805
  Beta  occ. eigenvalues --   -0.29172  -0.28571  -0.27576  -0.26991  -0.26026
  Beta  occ. eigenvalues --   -0.25591  -0.25150  -0.24315  -0.24277  -0.24206
  Beta  occ. eigenvalues --   -0.23351  -0.21869  -0.21542  -0.21045  -0.20920
  Beta  occ. eigenvalues --   -0.20745  -0.19792  -0.19652  -0.18807  -0.18727
  Beta  occ. eigenvalues --   -0.17959  -0.17164  -0.16984  -0.16719  -0.16556
  Beta  occ. eigenvalues --   -0.16396  -0.16076  -0.15920  -0.14355  -0.13052
  Beta  occ. eigenvalues --   -0.12658  -0.11853  -0.11277  -0.10869  -0.08888
  Beta  occ. eigenvalues --   -0.04527  -0.03806  -0.02870  -0.00991  -0.00722
  Beta  occ. eigenvalues --    0.08825
  Beta virt. eigenvalues --    0.09570   0.11356   0.11401   0.12154   0.13022
  Beta virt. eigenvalues --    0.13318   0.13675   0.13870   0.14004   0.14547
  Beta virt. eigenvalues --    0.14739   0.15224   0.15672   0.15712   0.16312

 Mulliken charges and spin densities:
               1          2
     1  C    0.015684  -0.000000
     2  C   -0.332418  -0.000000
     3  C   -0.398955   0.000000
     4  C    0.362716  -0.000000
     5  C    0.384856  -0.000000
     6  C    0.083523  -0.000000
     7  C   -1.185410   0.000000
     8  C   -0.635752   0.000000
     9  C    2.102779  -0.000000
    10  C   -1.128274  -0.000000
    11  O   -0.531115  -0.000000
    12  O   -0.426353   0.000000
    13  O   -0.280184   0.000000
    14  C   -0.515494   0.000000
    15  H    0.144019  -0.000000
    16  H    0.090309   0.000000
    17  H    0.092775  -0.000000
    18  H    0.144414  -0.000000
    19  H    0.255642  -0.000000
    20  C   -0.413045  -0.000000
    21  C   -0.685173  -0.000000
    22  C    1.233943  -0.000000
    23  C   -0.293752   0.000000
    24  C   -0.741193  -0.000000
    25  C   -0.462338   0.000000
    26  C    0.843553   0.000000
    27  C   -0.568395   0.000000
    28  C    0.356716  -0.000000
    29  C   -0.487954   0.000000
    30  C   -0.375772  -0.000000
    31  C    0.002832   0.000000
    32  C    0.342801  -0.000000
    33  C    0.568794  -0.000000
    34  H    0.181217   0.000000
    35  H    0.202659   0.000000
    36  H    0.154353   0.000000
    37  H    0.197829  -0.000000
    38  H    0.124362  -0.000000
    39  H    0.108406  -0.000000
    40  H    0.173720   0.000000
    41  H    0.147085   0.000000
    42  H    0.039778  -0.000000
    43  H    0.068701  -0.000000
    44  H    0.125768   0.000000
    45  H    0.075159   0.000000
    46  H    0.134364   0.000000
    47  H    0.216847   0.000000
    48  H    0.064889  -0.000000
    49  H   -0.036809  -0.000000
    50  H   -0.208073  -0.000000
    51  H   -0.601155  -0.000000
    52  H   -0.013949   0.000000
    53  H    0.198279   0.000000
    54  H   -0.917213   0.000000
 Sum of Mulliken charges =  -2.00000   0.00000

 Dipole moment (field-independent basis, Debye):
    X=              5.3569    Y=             -2.2187    Z=              0.7439  Tot=              5.8457
 Quadrupole moment (field-independent basis, Debye-Ang):
   XX=           -558.4339   YY=           -220.1660   ZZ=           -234.8983
   XY=            -51.6117   XZ=            -74.0097   YZ=            -15.1516

 Normal termination of Gaussian 16 at Fri Jan  5 03:42:09 2024.
