 Gaussian 16, Revision A.03,
 Gaussian 16:  ES64L-G16RevA.03 25-Dec-2016

 --------------------------------------
 #P UB3LYP/6-311++G(d,p) nosym opt freq
 --------------------------------------

 -------
 Reduced
 -------
 Symbolic Z-matrix:
 Charge = -2 Multiplicity = 1

 SCF Done:  E(UB3LYP) =  -627.509012097     A.U. after   28 cycles
 SCF Done:  E(UB3LYP) =  -627.532949007     A.U. after   17 cycles
 SCF Done:  E(UB3LYP) =  -627.535060995     A.U. after   16 cycles
 SCF Done:  E(UB3LYP) =  -627.535214148     A.U. after   16 cycles
 SCF Done:  E(UB3LYP) =  -627.535235517     A.U. after   13 cycles
 SCF Done:  E(UB3LYP) =  -627.535249608     A.U. after   13 cycles
 SCF Done:  E(UB3LYP) =  -627.535250108     A.U. after   12 cycles
 Optimization completed.
    -- Stationary point found.
 Normal termination of Gaussian 16 at Tue Dec 26 20:28:05 2023.

 ----------------------------------------------------------------------
 #P Geom=AllCheck Guess=TCheck SCRF=Check GenChk UB3LYP/6-311++G(d,p) F
 req
 ----------------------------------------------------------------------

 Structure from the checkpoint file:  "227-an.chk"
 -------
 Reduced
 -------
 Charge = -2 Multiplicity = 1

                          Input orientation:
 ---------------------------------------------------------------------
 Center     Atomic      Atomic             Coordinates (Angstroms)
 Number     Number       Type             X           Y           Z
 ---------------------------------------------------------------------
      1          6           0        5.670558   -5.102702    1.284119
      2          6           0        6.681199   -5.026957    0.357282
      3          6           0        6.594765   -4.057821   -0.707499
      4          6           0        4.523790   -4.263771    1.251172
      5          6           0        4.436223   -3.281101    0.171564
      6          6           0        5.473097   -3.217489   -0.762794
      7          6           0        3.500540   -4.399392    2.258391
      8          6           0        2.414998   -3.484033    2.083456
      9          6           0        2.316647   -2.539885    1.058107
     10          6           0        3.299557   -2.364337    0.038980
     11          8           0        3.550709   -5.259896    3.223947
     12          8           0        3.203657   -1.495072   -0.901601
     13          6           0        7.624692   -3.964515   -1.671012
     14          7           0        8.493514   -3.913148   -2.451753
     15          1           0        5.711256   -5.823600    2.095719
     16          1           0        7.544958   -5.683741    0.411267
     17          1           0        5.376592   -2.477012   -1.551035
     18          1           0        1.614746   -3.549372    2.822252
     19          1           0        1.446231   -1.885045    1.010728
 ---------------------------------------------------------------------

 SCF Done:  E(UB3LYP) =  -627.535250108     A.U. after    1 cycles

 Alpha  occ. eigenvalues --  -18.77856 -18.76485 -14.07080  -9.97608  -9.94777
 Alpha  occ. eigenvalues --   -9.93941  -9.93022  -9.92848  -9.92841  -9.91680
 Alpha  occ. eigenvalues --   -9.90502  -9.89760  -9.89383  -9.88988  -0.69389
 Alpha  occ. eigenvalues --   -0.67788  -0.67061  -0.59959  -0.53432  -0.50223
 Alpha  occ. eigenvalues --   -0.48210  -0.41226  -0.37847  -0.35410  -0.30346
 Alpha  occ. eigenvalues --   -0.27814  -0.24488  -0.20673  -0.18883  -0.17366
 Alpha  occ. eigenvalues --   -0.16600  -0.15154  -0.14766  -0.14008  -0.12018
 Alpha  occ. eigenvalues --   -0.11804  -0.11012  -0.09819  -0.08272  -0.07568
 Alpha  occ. eigenvalues --   -0.06871  -0.06700  -0.00069   0.01657   0.02128
 Alpha  occ. eigenvalues --    0.04623   0.05649   0.12957
 Alpha virt. eigenvalues --    0.18015   0.18742   0.20118   0.20230   0.20825
 Alpha virt. eigenvalues --    0.21563   0.22993   0.23468   0.25136   0.25150
 Alpha virt. eigenvalues --    0.26697   0.26897   0.27697   0.28039   0.28753

  Beta  occ. eigenvalues --  -18.77856 -18.76485 -14.07080  -9.97608  -9.94777
  Beta  occ. eigenvalues --   -9.93941  -9.93022  -9.92848  -9.92841  -9.91680
  Beta  occ. eigenvalues --   -9.90502  -9.89760  -9.89383  -9.88988  -0.69389
  Beta  occ. eigenvalues --   -0.67788  -0.67061  -0.59959  -0.53432  -0.50223
  Beta  occ. eigenvalues --   -0.48210  -0.41226  -0.37847  -0.35410  -0.30346
  Beta  occ. eigenvalues --   -0.27814  -0.24488  -0.20673  -0.18883  -0.17366
  Beta  occ. eigenvalues --   -0.16600  -0.15154  -0.14766  -0.14008  -0.12018
  Beta  occ. eigenvalues --   -0.11804  -0.11012  -0.09819  -0.08272  -0.07568
  Beta  occ. eigenvalues --   -0.06871  -0.06700  -0.00069   0.01657   0.02128
  Beta  occ. eigenvalues --    0.04623   0.05649   0.12957
  Beta virt. eigenvalues --    0.18015   0.18742   0.20118   0.20230   0.20825
  Beta virt. eigenvalues --    0.21563   0.22993   0.23468   0.25136   0.25150
  Beta virt. eigenvalues --    0.26697   0.26897   0.27697   0.28039   0.28753

 Mulliken charges and spin densities:
               1          2
     1  C    0.301853   0.000000
     2  C   -0.899380   0.000000
     3  C    1.996815  -0.000000
     4  C    0.372033  -0.000000
     5  C   -0.014223   0.000000
     6  C    0.123247  -0.000000
     7  C   -0.925921  -0.000000
     8  C    0.213898  -0.000000
     9  C    0.218132   0.000000
    10  C   -0.794076   0.000000
    11  O   -0.569816  -0.000000
    12  O   -0.531506  -0.000000
    13  C   -1.648633   0.000000
    14  N   -0.346787  -0.000000
    15  H    0.123222   0.000000
    16  H    0.096584   0.000000
    17  H    0.140268   0.000000
    18  H    0.069103   0.000000
    19  H    0.075187  -0.000000
 Sum of Mulliken charges =  -2.00000  -0.00000

 Dipole moment (field-independent basis, Debye):
    X=            -44.5700    Y=             34.8953    Z=             -3.9773  Tot=             56.7449
 Quadrupole moment (field-independent basis, Debye-Ang):
   XX=           -347.0163   YY=           -241.2505   ZZ=           -143.2679
   XY=            170.0587   XZ=             13.0756   YZ=             35.6277

  Exact polarizability: 288.486 -59.369 158.179 -89.609 -23.173 197.870
 Approx polarizability: 573.769-144.339 271.328-189.516 -33.223 336.985

                      1                      2                      3
                      A                      A                      A
 Frequencies --     70.6434               114.6953               132.3057
 Red. masses --      7.1873                 6.7517                11.5554
 Frc consts  --      0.0211                 0.0523                 0.1192
 IR Inten    --      1.4005                12.7746                 3.6458

                      4                      5                      6
                      A                      A                      A
 Frequencies --    157.5792               222.5005               269.4752
 Red. masses --      5.2799                 7.3179                 8.0706
 Frc consts  --      0.0772                 0.2135                 0.3453
 IR Inten    --      3.6962                 0.2018                10.2469

                      7                      8                      9
                      A                      A                      A
 Frequencies --    318.2471               349.5742               416.9572
 Red. masses --     12.1931                 6.2576                 8.8569
 Frc consts  --      0.7276                 0.4505                 0.9072
 IR Inten    --      3.8670                 0.1243                 1.5955

                     10                     11                     12
                      A                      A                      A
 Frequencies --    418.3495               452.3656               462.1744
 Red. masses --      3.3610                 4.5602                11.2703
 Frc consts  --      0.3466                 0.5498                 1.4184
 IR Inten    --      2.3601                 2.7131                23.8243

                     13                     14                     15
                      A                      A                      A
 Frequencies --    520.2481               558.2646               578.9348
 Red. masses --      8.6620                 6.0285                 6.8648
 Frc consts  --      1.3813                 1.1070                 1.3556
 IR Inten    --      0.8337                 5.5568                 4.9720

                     16                     17                     18
                      A                      A                      A
 Frequencies --    613.6919               616.7141               655.2206
 Red. masses --      2.3702                 5.5894                 4.4644
 Frc consts  --      0.5259                 1.2525                 1.1293
 IR Inten    --      0.0024                 2.6629                 3.9108

                     19                     20                     21
                      A                      A                      A
 Frequencies --    661.4406               713.4960               737.3004
 Red. masses --      5.6595                 6.8849                 1.5416
 Frc consts  --      1.4589                 2.0650                 0.4938
 IR Inten    --     21.3938                 0.9264                33.0512

                     22                     23                     24
                      A                      A                      A
 Frequencies --    781.6323               791.1850               817.3978
 Red. masses --      7.3932                 3.6583                 2.0868
 Frc consts  --      2.6612                 1.3492                 0.8215
 IR Inten    --     83.9211                10.3176                36.2521

                     25                     26                     27
                      A                      A                      A
 Frequencies --    890.7055               892.7078               949.4034
 Red. masses --      4.7370                 1.3717                 1.3599
 Frc consts  --      2.2142                 0.6441                 0.7222
 IR Inten    --     10.5346                 0.3087                 7.3274

                     28                     29                     30
                      A                      A                      A
 Frequencies --    964.2351              1040.0033              1061.3752
 Red. masses --      1.2951                 2.2342                 2.9923
 Frc consts  --      0.7095                 1.4238                 1.9861
 IR Inten    --      2.5459                 3.9564                80.3542

                     31                     32                     33
                      A                      A                      A
 Frequencies --   1120.7377              1152.6913              1198.1302
 Red. masses --      1.4732                 1.5754                 2.3618
 Frc consts  --      1.0902                 1.2333                 1.9975
 IR Inten    --     36.5981               109.2324               100.6009

                     34                     35                     36
                      A                      A                      A
 Frequencies --   1200.4394              1234.3181              1291.3942
 Red. masses --      4.9827                 2.2790                 1.7885
 Frc consts  --      4.2305                 2.0458                 1.7574
 IR Inten    --    421.5445               141.4250               134.4339

                     37                     38                     39
                      A                      A                      A
 Frequencies --   1331.5350              1377.7202              1397.2034
 Red. masses --      3.7799                 5.7748                 5.4488
 Frc consts  --      3.9485                 6.4582                 6.2671
 IR Inten    --    201.3776               106.8986               237.9722

                     40                     41                     42
                      A                      A                      A
 Frequencies --   1419.6987              1458.8167              1474.7477
 Red. masses --      4.8885                 4.6111                 3.7165
 Frc consts  --      5.8052                 5.7817                 4.7623
 IR Inten    --    574.3944                90.1860                39.2114

                     43                     44                     45
                      A                      A                      A
 Frequencies --   1516.3922              1543.6048              1606.7361
 Red. masses --      4.9242                 5.6408                 7.0248
 Frc consts  --      6.6713                 7.9188                10.6850
 IR Inten    --    314.9823               603.9661                16.3307

                     46                     47                     48
                      A                      A                      A
 Frequencies --   2206.9957              3073.8092              3103.1474
 Red. masses --     12.6505                 1.0832                 1.0913
 Frc consts  --     36.3045                 6.0301                 6.1913
 IR Inten    --   1365.9228                69.8760               180.1207

                     49                     50                     51
                      A                      A                      A
 Frequencies --   3129.7790              3155.4926              3159.7134
 Red. masses --      1.0852                 1.0924                 1.0893
 Frc consts  --      6.2632                 6.4086                 6.4075
 IR Inten    --     19.3075                41.4778                 5.7822

 - Thermochemistry -
 -------------------
 Temperature   298.150 Kelvin.  Pressure   1.00000 Atm.
 Atom     1 has atomic number  6 and mass  12.00000

 Molecular mass:   183.03203 amu.
 Principal axes and moments of inertia in atomic units:
                           1         2         3
     Eigenvalues --  1476.616203400.544194877.16022
           X            0.80579  -0.35540   0.47370
           Y           -0.06788   0.73920   0.67006
           Z           -0.58830  -0.57209   0.57151
 This molecule is an asymmetric top.
 Rotational symmetry number  1.
 Warning -- assumption of classical behavior for rotation
           may cause significant error
 Rotational temperatures (Kelvin)      0.05866     0.02547     0.01776
 Rotational constants (GHZ):           1.22221     0.53072     0.37004
 Zero-point vibrational energy     331257.5 (Joules/Mol)
                                   79.17244 (Kcal/Mol)
 Warning -- explicit consideration of  17 degrees of freedom as
           vibrations may cause significant error
 Vibrational temperatures:    101.64   165.02   190.36   226.72   320.13
          (Kelvin)            387.71   457.89   502.96   599.91   601.91
                              650.85   664.97   748.52   803.22   832.96
                              882.97   887.31   942.72   951.67  1026.56
                             1060.81  1124.59  1138.34  1176.05  1281.53
                             1284.41  1365.98  1387.32  1496.33  1527.08
                             1612.49  1658.47  1723.84  1727.16  1775.91
                             1858.03  1915.78  1982.23  2010.26  2042.63
                             2098.91  2121.83  2181.75  2220.90  2311.73
                             3175.37  4422.53  4464.74  4503.05  4540.05
                             4546.12

 Zero-point correction=                           0.126169 (Hartree/Particle)
 Thermal correction to Energy=                    0.136645
 Thermal correction to Enthalpy=                  0.137589
 Thermal correction to Gibbs Free Energy=         0.089739
 Sum of electronic and zero-point Energies=           -627.409081
 Sum of electronic and thermal Energies=              -627.398605
 Sum of electronic and thermal Enthalpies=            -627.397661
 Sum of electronic and thermal Free Energies=         -627.445512

                     E (Thermal)             CV                S
                      KCal/Mol        Cal/Mol-Kelvin    Cal/Mol-Kelvin
 Total                   85.746             41.332            100.710
 Electronic               0.000              0.000              0.000
 Translational            0.889              2.981             41.520
 Rotational               0.889              2.981             31.571
 Vibrational             83.969             35.371             27.619
 Vibration     1          0.598              1.968              4.135
 Vibration     2          0.608              1.937              3.188
 Vibration     3          0.612              1.921              2.912
 Vibration     4          0.621              1.894              2.579
 Vibration     5          0.648              1.807              1.939
 Vibration     6          0.674              1.729              1.600
 Vibration     7          0.705              1.639              1.319
 Vibration     8          0.727              1.576              1.168
 Vibration     9          0.780              1.433              0.902
 Vibration    10          0.781              1.430              0.898
 Vibration    11          0.811              1.356              0.789
 Vibration    12          0.820              1.334              0.760
 Vibration    13          0.875              1.205              0.609
 Vibration    14          0.914              1.122              0.527
 Vibration    15          0.936              1.077              0.487
 Vibration    16          0.973              1.003              0.427
 Vibration    17          0.976              0.997              0.422

 Optimization completed.
    -- Stationary point found.
 Normal termination of Gaussian 16 at Tue Dec 26 20:46:27 2023.
