 Q-Chem 5.4, Q-Chem, Inc., Pleasanton, CA (2021)
 Q-Chem 5.4.0 for Intel X86 EM64T Linux

User input:
--------------------------------------------------------------
$molecule
-2 1
C                 -3.0878040000      3.7659780000      0.6413130000
C                 -4.3458220000      3.2229730000      0.8012070000
C                 -4.5171150000      1.8227690000      0.6489790000
C                 -1.9561540000      2.9747490000      0.3264030000
C                 -2.1401000000      1.5480430000      0.1907020000
C                 -3.4432880000      1.0150390000      0.3571090000
C                 -0.6647660000      3.6183630000      0.1660140000
C                  0.4314880000      2.7154890000     -0.1379520000
C                  0.2475430000      1.2887830000     -0.2736530000
C                 -1.0438470000      0.6451700000     -0.1132680000
C                  1.7346730000      3.2484950000     -0.3043620000
C                  2.8085040000      2.4407620000     -0.5962210000
C                  2.6372140000      1.0405610000     -0.7484410000
C                  1.3791940000      0.4975540000     -0.5885540000
O                 -0.5021120000      4.8788690000      0.2911860000
O                 -1.2064970000     -0.6153360000     -0.2384390000
H                 -3.5632820000     -0.0582410000      0.2545920000
H                  1.2097980000     -0.5683400000     -0.7026300000
H                 -2.9184060000      4.8318710000      0.7553970000
H                  1.8546540000      4.3217780000     -0.2018540000
O                  4.0838210000      2.9932820000     -0.7950240000
O                 -5.7924160000      1.2702210000      0.8477940000
C                 -6.5942180000      1.2320370000     -0.3237070000
C                  4.8853480000      3.0321020000      0.3766440000
H                 -5.2034960000      3.8410930000      1.0527060000
H                  3.4948980000      0.4224470000     -0.9999210000
H                 -7.5646070000      0.8071790000     -0.0432110000
H                 -6.1373950000      0.6032920000     -1.0997080000
H                 -6.7544160000      2.2378220000     -0.7383330000
H                  5.8557750000      3.4568830000      0.0961620000
H                  5.0455100000      2.0265280000      0.7918000000
H                  4.4283090000      3.6611970000      1.1522300000
$end
$rem
MAX_SCF_CYCLES=200
BASIS  =  6-311++G(d,p)
GUI  =  2
JOB_TYPE  =  SP
METHOD  =  B3LYP
SOLVENT_METHOD = PCM
$end
$pcm
theory = CPCM
$end
$solvent
dielectric 37.219
opticaldielectric 1.43
$end

--------------------------------------------------------------

             Standard Nuclear Orientation (Angstroms)
    I     Atom           X                Y                Z
 ----------------------------------------------------------------
    1      C      -3.0878040000     3.7659780000     0.6413130000
    2      C      -4.3458220000     3.2229730000     0.8012070000
    3      C      -4.5171150000     1.8227690000     0.6489790000
    4      C      -1.9561540000     2.9747490000     0.3264030000
    5      C      -2.1401000000     1.5480430000     0.1907020000
    6      C      -3.4432880000     1.0150390000     0.3571090000
    7      C      -0.6647660000     3.6183630000     0.1660140000
    8      C       0.4314880000     2.7154890000    -0.1379520000
    9      C       0.2475430000     1.2887830000    -0.2736530000
   10      C      -1.0438470000     0.6451700000    -0.1132680000
   11      C       1.7346730000     3.2484950000    -0.3043620000
   12      C       2.8085040000     2.4407620000    -0.5962210000
   13      C       2.6372140000     1.0405610000    -0.7484410000
   14      C       1.3791940000     0.4975540000    -0.5885540000
   15      O      -0.5021120000     4.8788690000     0.2911860000
   16      O      -1.2064970000    -0.6153360000    -0.2384390000
   17      H      -3.5632820000    -0.0582410000     0.2545920000
   18      H       1.2097980000    -0.5683400000    -0.7026300000
   19      H      -2.9184060000     4.8318710000     0.7553970000
   20      H       1.8546540000     4.3217780000    -0.2018540000
   21      O       4.0838210000     2.9932820000    -0.7950240000
   22      O      -5.7924160000     1.2702210000     0.8477940000
   23      C      -6.5942180000     1.2320370000    -0.3237070000
   24      C       4.8853480000     3.0321020000     0.3766440000
   25      H      -5.2034960000     3.8410930000     1.0527060000
   26      H       3.4948980000     0.4224470000    -0.9999210000
   27      H      -7.5646070000     0.8071790000    -0.0432110000
   28      H      -6.1373950000     0.6032920000    -1.0997080000
   29      H      -6.7544160000     2.2378220000    -0.7383330000
   30      H       5.8557750000     3.4568830000     0.0961620000
   31      H       5.0455100000     2.0265280000     0.7918000000
   32      H       4.4283090000     3.6611970000     1.1522300000
 ----------------------------------------------------------------

    9    -918.3045502845      5.08e-06  Convergence criterion met
 Total energy in the final basis set =     -918.3045502845

                    Orbital Energies (a.u.)
 --------------------------------------------------------------

 Alpha MOs
 -- Occupied --
-19.1281 -19.1281 -19.0241 -19.0241 -10.2052 -10.2052 -10.2030 -10.2030
-10.1762 -10.1762 -10.1515 -10.1515 -10.1508 -10.1508 -10.1466 -10.1466
-10.1392 -10.1392 -10.1378 -10.1377  -1.0373  -1.0373  -0.9477  -0.9446
 -0.8306  -0.8238  -0.7551  -0.7307  -0.7297  -0.7177  -0.6797  -0.6705
 -0.6290  -0.6130  -0.5792  -0.5694  -0.5316  -0.5193  -0.5067  -0.4855
 -0.4616  -0.4528  -0.4483  -0.4481  -0.4422  -0.4308  -0.4212  -0.4070
 -0.4067  -0.3983  -0.3840  -0.3827  -0.3766  -0.3663  -0.3550  -0.3447
 -0.3353  -0.3312  -0.3304  -0.3216  -0.3088  -0.2979  -0.2670  -0.2665
 -0.2374  -0.2289  -0.2258  -0.2137  -0.2079  -0.1998  -0.1058

          Ground-State Mulliken Net Atomic Charges

     Atom                 Charge (a.u.)
  ----------------------------------------
      1 C                    -0.050570
      2 C                     0.044459
      3 C                    -0.743867
      4 C                     0.200003
      5 C                     0.397981
      6 C                    -0.099873
      7 C                    -0.515174
      8 C                     0.397985
      9 C                     0.199889
     10 C                    -0.515182
     11 C                    -0.099919
     12 C                    -0.744019
     13 C                     0.044678
     14 C                    -0.050643
     15 O                    -0.673311
     16 O                    -0.673311
     17 H                     0.164582
     18 H                     0.152406
     19 H                     0.152405
     20 H                     0.164577
     21 O                    -0.229235
     22 O                    -0.229225
     23 C                    -0.310569
     24 C                    -0.310571
     25 H                     0.205124
     26 H                     0.205137
     27 H                     0.171463
     28 H                     0.145069
     29 H                     0.141587
     30 H                     0.171464
     31 H                     0.141584
     32 H                     0.145077
  ----------------------------------------
  Sum of atomic charges =    -2.000000

                    Cartesian Multipole Moments
 -----------------------------------------------------------------
    Charge (ESU x 10^10)
                -9.6064
    Dipole Moment (Debye)
         X       8.2064      Y     -20.4777      Z      -0.2531
       Tot      22.0623
    Quadrupole Moments (Debye-Ang)
        XX    -149.6466     XY       6.5295     YY    -221.2689
        XZ      21.1618     YZ      -0.9704     ZZ    -132.6415

 Total job time:  67.49s(wall), 448.18s(cpu)
        *  Thank you very much for using Q-Chem.  Have a nice day.  *
