 Gaussian 16, Revision A.03,
 Gaussian 16:  ES64L-G16RevA.03 25-Dec-2016

 ----------------------------------------------------------------------
 #P UB3LYP/6-311++G(d,p) nosym opt freq SCRF=(PCM,Solvent=n,n-DiMethylF
 ormamide)
 ----------------------------------------------------------------------

 -------
 Reduced
 -------
 Symbolic Z-matrix:
 Charge = -2 Multiplicity = 1

 SCF Done:  E(UB3LYP) =  -1204.18411279     A.U. after   19 cycles
 SCF Done:  E(UB3LYP) =  -1204.18476766     A.U. after   15 cycles
 SCF Done:  E(UB3LYP) =  -1204.18510083     A.U. after   14 cycles
 SCF Done:  E(UB3LYP) =  -1204.18526009     A.U. after   14 cycles
 SCF Done:  E(UB3LYP) =  -1204.18526426     A.U. after   13 cycles
 SCF Done:  E(UB3LYP) =  -1204.18532045     A.U. after   12 cycles
 SCF Done:  E(UB3LYP) =  -1204.18532718     A.U. after   12 cycles
 SCF Done:  E(UB3LYP) =  -1204.18533050     A.U. after   12 cycles
 SCF Done:  E(UB3LYP) =  -1204.18533371     A.U. after   12 cycles
 SCF Done:  E(UB3LYP) =  -1204.12491063     A.U. after   16 cycles
 SCF Done:  E(UB3LYP) =  -1204.18538031     A.U. after   12 cycles
 SCF Done:  E(UB3LYP) =  -1204.18538280     A.U. after   12 cycles
 SCF Done:  E(UB3LYP) =  -1204.18481994     A.U. after   14 cycles
 SCF Done:  E(UB3LYP) =  -1204.18531387     A.U. after   14 cycles
 SCF Done:  E(UB3LYP) =  -1204.18538570     A.U. after    9 cycles
 SCF Done:  E(UB3LYP) =  -1204.18536586     A.U. after   13 cycles
 SCF Done:  E(UB3LYP) =  -1204.18538752     A.U. after   13 cycles
 SCF Done:  E(UB3LYP) =  -1204.18538814     A.U. after   10 cycles
 SCF Done:  E(UB3LYP) =  -1204.18538823     A.U. after   10 cycles
 Optimization completed.
    -- Stationary point found.
 Normal termination of Gaussian 16 at Sat Feb 10 20:40:40 2024.

 ----------------------------------------------------------------------
 #P Geom=AllCheck Guess=TCheck SCRF=Check GenChk UB3LYP/6-311++G(d,p) F
 req
 ----------------------------------------------------------------------

 Structure from the checkpoint file:  "153-an.chk"
 -------
 Reduced
 -------
 Charge = -2 Multiplicity = 1

                          Input orientation:
 ---------------------------------------------------------------------
 Center     Atomic      Atomic             Coordinates (Angstroms)
 Number     Number       Type             X           Y           Z
 ---------------------------------------------------------------------
      1          7           0       -2.776404   -2.064727    0.370232
      2          6           0       -2.483455   -0.712798    0.203064
      3          6           0       -3.521306    0.201676    0.058836
      4          6           0       -3.255797    1.560983   -0.220597
      5          6           0       -1.961394    2.001086   -0.353787
      6          6           0       -0.857854    1.110515   -0.194188
      7          6           0        0.472264    1.638960   -0.319881
      8          8           0        0.690305    2.904583   -0.548670
      9          6           0        1.546065    0.698779   -0.185602
     10          6           0        2.877583    1.182894   -0.326171
     11          6           0        3.971036    0.364163   -0.224525
     12          6           0        3.778522   -1.025277   -0.003638
     13          6           0        2.505844   -1.521379    0.146205
     14         17           0        2.457757   -3.310097    0.291837
     15          6           0        1.317544   -0.718884    0.108646
     16          6           0       -0.014828   -1.209803    0.359579
     17          8           0       -0.230630   -2.411597    0.819515
     18          6           0       -1.100976   -0.283983    0.111054
     19          1           0       -3.674293   -2.264600    0.788255
     20          1           0       -1.961280   -2.575423    0.730279
     21          1           0       -4.546072   -0.151392    0.134996
     22          1           0       -4.086233    2.251734   -0.338008
     23          1           0       -1.739857    3.036702   -0.578961
     24          1           0        2.990232    2.242558   -0.519788
     25          1           0        4.977715    0.754593   -0.331585
     26          1           0        4.625513   -1.699266    0.022903
 ---------------------------------------------------------------------

 SCF Done:  E(UB3LYP) =  -1204.18538823     A.U. after    2 cycles

 Alpha  occ. eigenvalues -- -101.52943 -19.02394 -19.01578 -14.28197 -10.21540
 Alpha  occ. eigenvalues --  -10.19178 -10.18662 -10.17149 -10.15554 -10.15367
 Alpha  occ. eigenvalues --  -10.15272 -10.14775 -10.14743 -10.14440 -10.14182
 Alpha  occ. eigenvalues --  -10.13804 -10.13611 -10.13306  -9.44420  -7.20847
 Alpha  occ. eigenvalues --   -7.19953  -7.19855  -0.94487  -0.92755  -0.88627
 Alpha  occ. eigenvalues --   -0.85834  -0.81206  -0.80340  -0.75615  -0.71234
 Alpha  occ. eigenvalues --   -0.71103  -0.70035  -0.64041  -0.60944  -0.59869
 Alpha  occ. eigenvalues --   -0.55343  -0.53143  -0.51751  -0.49629  -0.47482
 Alpha  occ. eigenvalues --   -0.45045  -0.44297  -0.44236  -0.41811  -0.41360
 Alpha  occ. eigenvalues --   -0.40500  -0.39114  -0.38469  -0.36665  -0.36404
 Alpha  occ. eigenvalues --   -0.36164  -0.35562  -0.33731  -0.33308  -0.31996
 Alpha  occ. eigenvalues --   -0.31952  -0.30838  -0.30327  -0.29496  -0.27936
 Alpha  occ. eigenvalues --   -0.22995  -0.22328  -0.21915  -0.20141  -0.19436
 Alpha  occ. eigenvalues --   -0.18618  -0.10876
 Alpha virt. eigenvalues --   -0.02617  -0.00165   0.00157   0.00745   0.01211
 Alpha virt. eigenvalues --    0.01916   0.02351   0.02449   0.03462   0.04450
 Alpha virt. eigenvalues --    0.04604   0.04834   0.05630   0.06505   0.06644

  Beta  occ. eigenvalues -- -101.52943 -19.02394 -19.01578 -14.28197 -10.21540
  Beta  occ. eigenvalues --  -10.19178 -10.18662 -10.17149 -10.15554 -10.15367
  Beta  occ. eigenvalues --  -10.15272 -10.14775 -10.14743 -10.14440 -10.14182
  Beta  occ. eigenvalues --  -10.13804 -10.13611 -10.13306  -9.44420  -7.20847
  Beta  occ. eigenvalues --   -7.19953  -7.19855  -0.94487  -0.92755  -0.88627
  Beta  occ. eigenvalues --   -0.85834  -0.81206  -0.80340  -0.75615  -0.71234
  Beta  occ. eigenvalues --   -0.71103  -0.70035  -0.64041  -0.60944  -0.59869
  Beta  occ. eigenvalues --   -0.55343  -0.53143  -0.51751  -0.49629  -0.47482
  Beta  occ. eigenvalues --   -0.45045  -0.44297  -0.44236  -0.41811  -0.41360
  Beta  occ. eigenvalues --   -0.40500  -0.39114  -0.38469  -0.36665  -0.36404
  Beta  occ. eigenvalues --   -0.36164  -0.35562  -0.33731  -0.33308  -0.31996
  Beta  occ. eigenvalues --   -0.31952  -0.30838  -0.30327  -0.29496  -0.27936
  Beta  occ. eigenvalues --   -0.22995  -0.22328  -0.21915  -0.20141  -0.19436
  Beta  occ. eigenvalues --   -0.18618  -0.10876
  Beta virt. eigenvalues --   -0.02617  -0.00165   0.00157   0.00745   0.01211
  Beta virt. eigenvalues --    0.01916   0.02351   0.02449   0.03462   0.04450
  Beta virt. eigenvalues --    0.04604   0.04834   0.05630   0.06505   0.06644

 Mulliken charges and spin densities:
               1          2
     1  N   -0.428524   0.000000
     2  C    0.039533  -0.000000
     3  C   -0.269176  -0.000000
     4  C   -0.483550   0.000000
     5  C   -0.162612   0.000000
     6  C    0.438452  -0.000000
     7  C   -0.600007  -0.000000
     8  O   -0.664893   0.000000
     9  C    0.332470  -0.000000
    10  C    0.137126   0.000000
    11  C   -0.767326   0.000000
    12  C   -0.404216   0.000000
    13  C    0.839956   0.000000
    14  Cl   0.290568  -0.000000
    15  C    0.314785   0.000000
    16  C   -1.766163  -0.000000
    17  O   -0.525557   0.000000
    18  C    0.199828   0.000000
    19  H    0.252336  -0.000000
    20  H    0.309181   0.000000
    21  H    0.133670   0.000000
    22  H    0.157544  -0.000000
    23  H    0.138293   0.000000
    24  H    0.155107   0.000000
    25  H    0.158758   0.000000
    26  H    0.174418   0.000000
 Sum of Mulliken charges =  -2.00000  -0.00000

 Dipole moment (field-independent basis, Debye):
    X=             -3.2368    Y=             -1.3337    Z=              0.6068  Tot=              3.5530
 Quadrupole moment (field-independent basis, Debye-Ang):
   XX=           -136.3048   YY=           -177.9672   ZZ=           -126.8545
   XY=              3.2803   XZ=             -2.9546   YZ=              8.9100

  Exact polarizability: 571.356 -29.155 422.797 -10.150 -47.002 177.960
 Approx polarizability: 630.842 -22.505 497.049 -13.153 -60.851 199.373

                      1                      2                      3
                      A                      A                      A
 Frequencies --     51.6963                65.6672                97.7715
 Red. masses --      6.7797                 7.6699                 7.6744
 Frc consts  --      0.0107                 0.0195                 0.0432
 IR Inten    --      7.8540                11.2627                 0.5670

                      4                      5                      6
                      A                      A                      A
 Frequencies --    166.7021               177.2043               190.2902
 Red. masses --      7.6923                 9.9363                 4.3795
 Frc consts  --      0.1259                 0.1838                 0.0934
 IR Inten    --      3.5241                16.3712                 0.3537

                      7                      8                      9
                      A                      A                      A
 Frequencies --    223.1049               259.9621               285.4077
 Red. masses --      4.6683                 6.2334                 5.3342
 Frc consts  --      0.1369                 0.2482                 0.2560
 IR Inten    --      4.7781                 9.0976                 7.8839

                     10                     11                     12
                      A                      A                      A
 Frequencies --    327.5805               345.6427               387.9531
 Red. masses --     10.9446                 5.4108                 7.3629
 Frc consts  --      0.6920                 0.3809                 0.6529
 IR Inten    --      2.5273                16.6669                 1.5872

                     13                     14                     15
                      A                      A                      A
 Frequencies --    399.0515               409.2719               414.5053
 Red. masses --      6.3475                 6.4119                 7.8654
 Frc consts  --      0.5955                 0.6328                 0.7962
 IR Inten    --     27.0775                11.9872                13.4596

                     16                     17                     18
                      A                      A                      A
 Frequencies --    449.2186               465.7898               495.5642
 Red. masses --      1.3195                 5.1851                 4.1707
 Frc consts  --      0.1569                 0.6628                 0.6035
 IR Inten    --    341.0219                 5.3585                 8.3152

                     19                     20                     21
                      A                      A                      A
 Frequencies --    505.4349               517.1386               558.0813
 Red. masses --      8.0901                 5.0017                 5.3741
 Frc consts  --      1.2177                 0.7881                 0.9862
 IR Inten    --      3.4669                16.7360                 4.3062

                     22                     23                     24
                      A                      A                      A
 Frequencies --    587.5643               603.6768               628.9856
 Red. masses --      4.6542                 5.9921                 3.8497
 Frc consts  --      0.9467                 1.2866                 0.8973
 IR Inten    --     10.8095               103.4062                32.7694

                     25                     26                     27
                      A                      A                      A
 Frequencies --    685.7676               711.5970               715.3506
 Red. masses --      6.4922                 2.3221                 2.3130
 Frc consts  --      1.7988                 0.6928                 0.6974
 IR Inten    --     29.4434                69.5954                43.0003

                     28                     29                     30
                      A                      A                      A
 Frequencies --    726.6124               754.7795               769.2505
 Red. masses --      5.2835                 1.9754                 1.6209
 Frc consts  --      1.6435                 0.6631                 0.5651
 IR Inten    --    129.2575               223.4076                42.5993

                     31                     32                     33
                      A                      A                      A
 Frequencies --    777.8708               800.0961               820.9449
 Red. masses --      2.2698                 3.0801                 5.3676
 Frc consts  --      0.8092                 1.1617                 2.1313
 IR Inten    --     59.0839                44.3153                72.9050

                     34                     35                     36
                      A                      A                      A
 Frequencies --    833.8574               860.8634               892.2169
 Red. masses --      1.6512                 1.4257                 7.8746
 Frc consts  --      0.6764                 0.6225                 3.6934
 IR Inten    --      5.0913                 4.4465               199.7420

                     37                     38                     39
                      A                      A                      A
 Frequencies --    924.0135               954.8021               974.6887
 Red. masses --      6.1005                 1.2580                 1.2997
 Frc consts  --      3.0688                 0.6757                 0.7275
 IR Inten    --      7.3801                 1.1370                 2.6800

                     40                     41                     42
                      A                      A                      A
 Frequencies --   1015.2023              1054.9359              1066.8324
 Red. masses --      4.2078                 2.4433                 2.0349
 Frc consts  --      2.5551                 1.6021                 1.3646
 IR Inten    --    114.7661               240.5704               247.3143

                     43                     44                     45
                      A                      A                      A
 Frequencies --   1089.6774              1119.7068              1139.9408
 Red. masses --      3.4194                 1.7860                 1.5093
 Frc consts  --      2.3922                 1.3193                 1.1555
 IR Inten    --    155.7756               632.9246               307.8143

                     46                     47                     48
                      A                      A                      A
 Frequencies --   1164.0987              1174.4787              1213.5543
 Red. masses --      1.8998                 1.4643                 2.3922
 Frc consts  --      1.5169                 1.1901                 2.0757
 IR Inten    --     42.9633                53.6605               237.3620

                     49                     50                     51
                      A                      A                      A
 Frequencies --   1235.8589              1272.4838              1287.9638
 Red. masses --      2.8853                 3.7368                 4.8265
 Frc consts  --      2.5964                 3.5650                 4.7172
 IR Inten    --    198.7089               443.1129               468.4245

                     52                     53                     54
                      A                      A                      A
 Frequencies --   1329.8507              1344.1922              1366.0619
 Red. masses --      4.0567                 4.5886                 2.2516
 Frc consts  --      4.2269                 4.8849                 2.4756
 IR Inten    --    780.7602               999.0164               548.0849

                     55                     56                     57
                      A                      A                      A
 Frequencies --   1419.0545              1426.7262              1452.4209
 Red. masses --      5.3039                 3.2907                 3.2619
 Frc consts  --      6.2928                 3.9466                 4.0543
 IR Inten    --     39.7022               251.9491               482.8967

                     58                     59                     60
                      A                      A                      A
 Frequencies --   1470.7881              1481.9823              1524.3446
 Red. masses --      2.6772                 5.3903                 4.5549
 Frc consts  --      3.4121                 6.9751                 6.2359
 IR Inten    --     39.9008               181.1846                54.2772

                     61                     62                     63
                      A                      A                      A
 Frequencies --   1571.4836              1576.3553              1597.0113
 Red. masses --      1.3312                 7.4413                 5.3300
 Frc consts  --      1.9369                10.8945                 8.0093
 IR Inten    --    213.5734               333.8341                 9.1112

                     64                     65                     66
                      A                      A                      A
 Frequencies --   1607.1118              3130.8137              3148.7971
 Red. masses --      4.8900                 1.0853                 1.0923
 Frc consts  --      7.4413                 6.2678                 6.3809
 IR Inten    --    152.6330                54.5879                79.2645

                     67                     68                     69
                      A                      A                      A
 Frequencies --   3155.9363              3185.2979              3189.8211
 Red. masses --      1.0868                 1.0899                 1.0941
 Frc consts  --      6.3774                 6.5151                 6.5588
 IR Inten    --     35.7617                12.9424                52.9799

                     70                     71                     72
                      A                      A                      A
 Frequencies --   3191.9318              3262.0853              3605.5090
 Red. masses --      1.0905                 1.0672                 1.0832
 Frc consts  --      6.5462                 6.6907                 8.2967
 IR Inten    --     32.0925               435.1116                36.3136

 - Thermochemistry -
 -------------------
 Temperature   298.150 Kelvin.  Pressure   1.00000 Atm.
 Atom     1 has atomic number  7 and mass  14.00307

 Molecular mass:   257.02436 amu.
 Principal axes and moments of inertia in atomic units:
                           1         2         3
     Eigenvalues --  2921.246785442.176188333.30655
           X            0.92540   0.37632   0.04504
           Y           -0.37821   0.90921   0.17407
           Z            0.02455  -0.17812   0.98370
 This molecule is an asymmetric top.
 Rotational symmetry number  1.
 Warning -- assumption of classical behavior for rotation
           may cause significant error
 Rotational temperatures (Kelvin)      0.02965     0.01592     0.01039
 Rotational constants (GHZ):           0.61780     0.33162     0.21657
 Zero-point vibrational energy     476641.8 (Joules/Mol)
                                  113.92012 (Kcal/Mol)
 Warning -- explicit consideration of  23 degrees of freedom as
           vibrations may cause significant error
 Vibrational temperatures:     74.38    94.48   140.67   239.85   254.96
          (Kelvin)            273.79   321.00   374.03   410.64   471.32
                              497.30   558.18   574.15   588.85   596.38
                              646.33   670.17   713.01   727.21   744.05
                              802.95   845.37   868.56   904.97   986.67
                             1023.83  1029.23  1045.43  1085.96  1106.78
                             1119.18  1151.16  1181.16  1199.73  1238.59
                             1283.70  1329.45  1373.75  1402.36  1460.65
                             1517.82  1534.93  1567.80  1611.01  1640.12
                             1674.88  1689.81  1746.03  1778.13  1830.82
                             1853.09  1913.36  1933.99  1965.46  2041.70
                             2052.74  2089.71  2116.14  2132.24  2193.19
                             2261.01  2268.02  2297.74  2312.28  4504.54
                             4530.42  4540.69  4582.93  4589.44  4592.48
                             4693.41  5187.52

 Zero-point correction=                           0.181543 (Hartree/Particle)
 Thermal correction to Energy=                    0.195287
 Thermal correction to Enthalpy=                  0.196232
 Thermal correction to Gibbs Free Energy=         0.141119
 Sum of electronic and zero-point Energies=          -1204.003845
 Sum of electronic and thermal Energies=             -1203.990101
 Sum of electronic and thermal Enthalpies=           -1203.989157
 Sum of electronic and thermal Free Energies=        -1204.044270

                     E (Thermal)             CV                S
                      KCal/Mol        Cal/Mol-Kelvin    Cal/Mol-Kelvin
 Total                  122.545             56.005            115.995
 Electronic               0.000              0.000              0.000
 Translational            0.889              2.981             42.532
 Rotational               0.889              2.981             33.249
 Vibrational            120.767             50.043             40.215
 Vibration     1          0.596              1.977              4.751
 Vibration     2          0.597              1.971              4.279
 Vibration     3          0.603              1.951              3.498
 Vibration     4          0.624              1.883              2.472
 Vibration     5          0.628              1.870              2.358
 Vibration     6          0.634              1.853              2.225
 Vibration     7          0.649              1.806              1.934
 Vibration     8          0.668              1.746              1.662
 Vibration     9          0.683              1.701              1.501
 Vibration    10          0.711              1.620              1.272
 Vibration    11          0.724              1.584              1.186
 Vibration    12          0.756              1.496              1.008
 Vibration    13          0.765              1.472              0.966
 Vibration    14          0.774              1.450              0.929
 Vibration    15          0.778              1.439              0.911
 Vibration    16          0.808              1.363              0.798
 Vibration    17          0.823              1.326              0.749
 Vibration    18          0.851              1.260              0.669
 Vibration    19          0.861              1.238              0.645
 Vibration    20          0.872              1.212              0.617
 Vibration    21          0.914              1.122              0.528
 Vibration    22          0.945              1.058              0.472
 Vibration    23          0.962              1.024              0.443

 Optimization completed.
    -- Stationary point found.
 Normal termination of Gaussian 16 at Sat Feb 10 21:34:36 2024.
