 Gaussian 16, Revision A.03,
 Gaussian 16:  ES64L-G16RevA.03 25-Dec-2016

 ----------------------------------------------------------------------
 #P UB3LYP/6-311++G(d,p) nosym opt freq SCRF=(PCM,Solvent=n,n-DiMethylF
 ormamide)
 ----------------------------------------------------------------------

 --------
 Oxidized
 --------
 Symbolic Z-matrix:
 Charge =  0 Multiplicity = 1

 SCF Done:  E(UB3LYP) =  -727.247607593     A.U. after   16 cycles
 SCF Done:  E(UB3LYP) =  -727.247775673     A.U. after   12 cycles
 SCF Done:  E(UB3LYP) =  -727.247799291     A.U. after   11 cycles
 SCF Done:  E(UB3LYP) =  -727.247820000     A.U. after   10 cycles
 SCF Done:  E(UB3LYP) =  -727.247823920     A.U. after   10 cycles
 SCF Done:  E(UB3LYP) =  -727.247825831     A.U. after   10 cycles
 SCF Done:  E(UB3LYP) =  -727.247827018     A.U. after   10 cycles
 SCF Done:  E(UB3LYP) =  -727.247827222     A.U. after    9 cycles
 Optimization completed.
    -- Stationary point found.
 Normal termination of Gaussian 16 at Sun Feb 11 00:42:11 2024.

 ----------------------------------------------------------------------
 #P Geom=AllCheck Guess=TCheck SCRF=Check GenChk UB3LYP/6-311++G(d,p) F
 req
 ----------------------------------------------------------------------

 Structure from the checkpoint file:  "266.chk"
 --------
 Oxidized
 --------
 Charge =  0 Multiplicity = 1

                          Input orientation:
 ---------------------------------------------------------------------
 Center     Atomic      Atomic             Coordinates (Angstroms)
 Number     Number       Type             X           Y           Z
 ---------------------------------------------------------------------
      1          6           0       -1.214485    2.883259   -0.133474
      2          6           0       -2.526883    2.421392   -0.172003
      3          6           0       -2.787803    1.051724   -0.102287
      4          6           0       -0.155835    1.977255   -0.024939
      5          6           0       -0.418780    0.597634    0.045476
      6          6           0       -1.736907    0.143333    0.006050
      7          6           0        1.237687    2.488611    0.016434
      8          6           0        2.341328    1.465312    0.134636
      9          6           0        2.070067    0.139346    0.200475
     10          6           0        0.705709   -0.379656    0.161915
     11          8           0        1.504028    3.675867   -0.039928
     12          8           0        0.492327   -1.589061    0.223377
     13          1           0       -0.997430    3.942622   -0.186410
     14          1           0       -1.926322   -0.921192    0.060935
     15          8           0        3.546698    2.030473    0.161821
     16          6           0        4.717232    1.180501    0.293085
     17          6           0        5.918832    2.066936    0.355619
     18          6           0        6.948847    1.966032   -0.480426
     19          1           0       -3.345170    3.126595   -0.256045
     20          1           0       -3.809783    0.692626   -0.132278
     21          1           0        2.850560   -0.605015    0.282790
     22          1           0        4.764393    0.499377   -0.560645
     23          1           0        4.610667    0.596365    1.213528
     24          1           0        5.926637    2.800549    1.157365
     25          1           0        6.959269    1.239276   -1.286903
     26          1           0        7.821227    2.601547   -0.380260
 ---------------------------------------------------------------------

 SCF Done:  E(UB3LYP) =  -727.247827222     A.U. after    2 cycles

 Alpha  occ. eigenvalues --  -19.19053 -19.14379 -19.12868 -10.29379 -10.28237
 Alpha  occ. eigenvalues --  -10.27823 -10.24798 -10.21201 -10.21061 -10.20164
 Alpha  occ. eigenvalues --  -10.20078 -10.19950 -10.19938 -10.19867 -10.19117
 Alpha  occ. eigenvalues --  -10.18190  -1.11162  -1.07166  -1.05901  -0.89324
 Alpha  occ. eigenvalues --   -0.84220  -0.81150  -0.78142  -0.77405  -0.73219
 Alpha  occ. eigenvalues --   -0.68836  -0.65486  -0.63344  -0.59783  -0.58260
 Alpha  occ. eigenvalues --   -0.55793  -0.55101  -0.52724  -0.51013  -0.49930
 Alpha  occ. eigenvalues --   -0.47764  -0.47220  -0.46419  -0.45444  -0.45361
 Alpha  occ. eigenvalues --   -0.44755  -0.43876  -0.42971  -0.42007  -0.39357
 Alpha  occ. eigenvalues --   -0.38688  -0.38394  -0.37218  -0.36683  -0.35971
 Alpha  occ. eigenvalues --   -0.29423  -0.29102  -0.28805  -0.28119  -0.27997
 Alpha  occ. eigenvalues --   -0.26891
 Alpha virt. eigenvalues --   -0.12530  -0.05850  -0.02888  -0.02165  -0.00640
 Alpha virt. eigenvalues --    0.00082   0.00953   0.01536   0.01734   0.02147
 Alpha virt. eigenvalues --    0.02416   0.03306   0.04133   0.04315   0.05041

  Beta  occ. eigenvalues --  -19.19053 -19.14379 -19.12868 -10.29379 -10.28237
  Beta  occ. eigenvalues --  -10.27823 -10.24798 -10.21201 -10.21061 -10.20164
  Beta  occ. eigenvalues --  -10.20078 -10.19950 -10.19938 -10.19867 -10.19117
  Beta  occ. eigenvalues --  -10.18190  -1.11162  -1.07166  -1.05901  -0.89324
  Beta  occ. eigenvalues --   -0.84220  -0.81150  -0.78142  -0.77405  -0.73219
  Beta  occ. eigenvalues --   -0.68836  -0.65486  -0.63344  -0.59783  -0.58260
  Beta  occ. eigenvalues --   -0.55793  -0.55101  -0.52724  -0.51013  -0.49930
  Beta  occ. eigenvalues --   -0.47764  -0.47220  -0.46419  -0.45444  -0.45361
  Beta  occ. eigenvalues --   -0.44755  -0.43876  -0.42971  -0.42007  -0.39357
  Beta  occ. eigenvalues --   -0.38688  -0.38394  -0.37218  -0.36683  -0.35971
  Beta  occ. eigenvalues --   -0.29423  -0.29102  -0.28805  -0.28119  -0.27997
  Beta  occ. eigenvalues --   -0.26891
  Beta virt. eigenvalues --   -0.12530  -0.05850  -0.02888  -0.02165  -0.00640
  Beta virt. eigenvalues --    0.00082   0.00953   0.01536   0.01734   0.02147
  Beta virt. eigenvalues --    0.02416   0.03306   0.04133   0.04315   0.05041

 Mulliken charges and spin densities:
               1          2
     1  C    0.283101  -0.000000
     2  C   -0.398878   0.000000
     3  C   -0.319392   0.000000
     4  C    0.032795  -0.000000
     5  C    0.513583   0.000000
     6  C    0.283765  -0.000000
     7  C   -0.436715   0.000000
     8  C   -0.657722   0.000000
     9  C    0.373541   0.000000
    10  C   -0.186851  -0.000000
    11  O   -0.280892   0.000000
    12  O   -0.308201   0.000000
    13  H    0.184576  -0.000000
    14  H    0.181145  -0.000000
    15  O   -0.062380   0.000000
    16  C   -0.325160  -0.000000
    17  C   -0.006123   0.000000
    18  C   -0.433928   0.000000
    19  H    0.208482   0.000000
    20  H    0.209965   0.000000
    21  H    0.254268   0.000000
    22  H    0.172980  -0.000000
    23  H    0.189196  -0.000000
    24  H    0.208368   0.000000
    25  H    0.152618   0.000000
    26  H    0.167857   0.000000
 Sum of Mulliken charges =  -0.00000  -0.00000

 Dipole moment (field-independent basis, Debye):
    X=              0.3725    Y=              0.0843    Z=              0.0195  Tot=              0.3825
 Quadrupole moment (field-independent basis, Debye-Ang):
   XX=            -58.3377   YY=           -111.2387   ZZ=            -92.8524
   XY=             -8.5039   XZ=              1.2261   YZ=              1.9459

  Exact polarizability: 298.398  21.150 262.121  -4.535  -6.237 125.323
 Approx polarizability: 312.197  34.051 345.225  -7.227  -8.288 146.708

                      1                      2                      3
                      A                      A                      A
 Frequencies --     30.1569                60.3532                69.0644
 Red. masses --      5.6070                 3.0807                 5.2970
 Frc consts  --      0.0030                 0.0066                 0.0149
 IR Inten    --      4.3267                 3.5495                 5.9562

                      4                      5                      6
                      A                      A                      A
 Frequencies --    114.5590               116.4516               139.6846
 Red. masses --      4.6544                 2.6419                 4.1233
 Frc consts  --      0.0360                 0.0211                 0.0474
 IR Inten    --      0.0295                 1.9547                 0.8404

                      7                      8                      9
                      A                      A                      A
 Frequencies --    174.3205               200.1530               260.3663
 Red. masses --      6.3190                 4.8793                 4.8460
 Frc consts  --      0.1131                 0.1152                 0.1936
 IR Inten    --      5.2385                 0.8358                 8.0758

                     10                     11                     12
                      A                      A                      A
 Frequencies --    263.4234               314.1637               378.8234
 Red. masses --      4.7343                 3.5638                10.7515
 Frc consts  --      0.1936                 0.2072                 0.9091
 IR Inten    --      0.0753                 2.1602                33.1908

                     13                     14                     15
                      A                      A                      A
 Frequencies --    407.1884               450.2732               452.0836
 Red. masses --      3.4530                 4.3674                 2.7446
 Frc consts  --      0.3373                 0.5217                 0.3305
 IR Inten    --      0.0503                 3.7222                 0.9516

                     16                     17                     18
                      A                      A                      A
 Frequencies --    458.0548               458.3472               501.4391
 Red. masses --      6.4777                 8.5922                 3.7970
 Frc consts  --      0.8008                 1.0635                 0.5625
 IR Inten    --     18.0623                 5.3123                 5.9665

                     19                     20                     21
                      A                      A                      A
 Frequencies --    554.0680               631.4293               680.7877
 Red. masses --      5.6366                 2.3618                 3.8298
 Frc consts  --      1.0195                 0.5548                 1.0458
 IR Inten    --      2.1007                19.0868                 3.8525

                     22                     23                     24
                      A                      A                      A
 Frequencies --    690.4918               706.5079               719.7089
 Red. masses --      3.5647                 6.1903                 5.6687
 Frc consts  --      1.0014                 1.8205                 1.7300
 IR Inten    --      6.0052                10.4272                 5.0301

                     25                     26                     27
                      A                      A                      A
 Frequencies --    737.1545               783.5034               817.4090
 Red. masses --      2.6509                 2.1131                 3.3659
 Frc consts  --      0.8487                 0.7643                 1.3250
 IR Inten    --     53.2203                52.6001                20.4722

                     28                     29                     30
                      A                      A                      A
 Frequencies --    828.6399               864.1197               913.0143
 Red. masses --      4.6045                 1.5555                 1.3722
 Frc consts  --      1.8628                 0.6843                 0.6739
 IR Inten    --     16.3050                44.0426                 0.0071

                     31                     32                     33
                      A                      A                      A
 Frequencies --    928.5734               950.8837               976.5422
 Red. masses --      2.4030                 2.0209                 1.3340
 Frc consts  --      1.2208                 1.0766                 0.7495
 IR Inten    --      5.8794                 8.8208                86.6484

                     34                     35                     36
                      A                      A                      A
 Frequencies --    999.2826              1000.2141              1019.0945
 Red. masses --      1.7486                 1.3889                 5.1477
 Frc consts  --      1.0287                 0.8187                 3.1499
 IR Inten    --     14.1202                 1.7578               370.0859

                     37                     38                     39
                      A                      A                      A
 Frequencies --   1023.6078              1030.7435              1057.1403
 Red. masses --      1.3336                 1.3318                 2.1654
 Frc consts  --      0.8233                 0.8337                 1.4258
 IR Inten    --      0.0526                18.1859                21.6437

                     40                     41                     42
                      A                      A                      A
 Frequencies --   1100.6307              1138.5185              1172.3607
 Red. masses --      2.9106                 1.8333                 1.8530
 Frc consts  --      2.0774                 1.4001                 1.5006
 IR Inten    --     46.7556                31.4874                 4.9274

                     43                     44                     45
                      A                      A                      A
 Frequencies --   1179.9624              1226.5893              1255.0027
 Red. masses --      1.1282                 3.0856                 2.3586
 Frc consts  --      0.9255                 2.7352                 2.1887
 IR Inten    --     37.5654               578.2851               630.6373

                     46                     47                     48
                      A                      A                      A
 Frequencies --   1272.9510              1284.3367              1315.3472
 Red. masses --      1.1380                 2.0321                 1.2668
 Frc consts  --      1.0865                 1.9750                 1.2913
 IR Inten    --     15.6361                58.7668                 2.9390

                     49                     50                     51
                      A                      A                      A
 Frequencies --   1322.8873              1356.8845              1364.2107
 Red. masses --      4.4552                 2.3485                 3.9881
 Frc consts  --      4.5937                 2.5476                 4.3730
 IR Inten    --    156.5351                67.0566                40.1799

                     52                     53                     54
                      A                      A                      A
 Frequencies --   1400.0831              1457.9486              1481.7000
 Red. masses --      1.5545                 1.2258                 2.3690
 Frc consts  --      1.7953                 1.5352                 3.0643
 IR Inten    --      7.2725                28.7543                 0.7061

                     55                     56                     57
                      A                      A                      A
 Frequencies --   1493.4214              1503.6567              1605.9472
 Red. masses --      1.1231                 2.6137                 6.3957
 Frc consts  --      1.4758                 3.4817                 9.7185
 IR Inten    --     20.8236                19.4534               257.3322

                     58                     59                     60
                      A                      A                      A
 Frequencies --   1620.5688              1635.7773              1673.0900
 Red. masses --      5.9925                 7.9026                10.8344
 Frc consts  --      9.2724                12.4586                17.8686
 IR Inten    --    233.9098               607.8627               471.0329

                     61                     62                     63
                      A                      A                      A
 Frequencies --   1704.1508              1719.4748              3024.1612
 Red. masses --      4.6838                12.5496                 1.0577
 Frc consts  --      8.0142                21.8611                 5.6994
 IR Inten    --      4.0304               405.8390                16.7785

                     64                     65                     66
                      A                      A                      A
 Frequencies --   3080.2751              3130.4200              3151.5573
 Red. masses --      1.1062                 1.0594                 1.0927
 Frc consts  --      6.1842                 6.1169                 6.3944
 IR Inten    --     19.2519                11.5696                 9.5946

                     67                     68                     69
                      A                      A                      A
 Frequencies --   3179.3541              3191.3514              3202.5930
 Red. masses --      1.0875                 1.0912                 1.0926
 Frc consts  --      6.4765                 6.5479                 6.6028
 IR Inten    --      3.1557                 8.7937                 3.3246

                     70                     71                     72
                      A                      A                      A
 Frequencies --   3205.7820              3208.8019              3218.0916
 Red. masses --      1.0958                 1.0913                 1.1158
 Frc consts  --      6.6353                 6.6204                 6.8081
 IR Inten    --     17.5050                 3.3942                13.8494

 - Thermochemistry -
 -------------------
 Temperature   298.150 Kelvin.  Pressure   1.00000 Atm.
 Atom     1 has atomic number  6 and mass  12.00000

 Molecular mass:   214.06299 amu.
 Principal axes and moments of inertia in atomic units:
                           1         2         3
     Eigenvalues --  1468.678416163.339577551.20886
           X            0.99605  -0.08727  -0.01616
           Y            0.08812   0.99413   0.06272
           Z            0.01059  -0.06390   0.99790
 This molecule is an asymmetric top.
 Rotational symmetry number  1.
 Warning -- assumption of classical behavior for rotation
           may cause significant error
 Rotational temperatures (Kelvin)      0.05897     0.01405     0.01147
 Rotational constants (GHZ):           1.22882     0.29282     0.23900
 Zero-point vibrational energy     518220.6 (Joules/Mol)
                                  123.85768 (Kcal/Mol)
 Warning -- explicit consideration of  19 degrees of freedom as
           vibrations may cause significant error
 Vibrational temperatures:     43.39    86.83    99.37   164.82   167.55
          (Kelvin)            200.98   250.81   287.98   374.61   379.01
                              452.01   545.04   585.85   647.84   650.45
                              659.04   659.46   721.46   797.18   908.49
                              979.50   993.46  1016.51  1035.50  1060.60
                             1127.29  1176.07  1192.23  1243.28  1313.62
                             1336.01  1368.11  1405.03  1437.74  1439.09
                             1466.25  1472.74  1483.01  1520.99  1583.56
                             1638.07  1686.77  1697.70  1764.79  1805.67
                             1831.49  1847.87  1892.49  1903.34  1952.25
                             1962.79  2014.41  2097.66  2131.84  2148.70
                             2163.43  2310.60  2331.64  2353.52  2407.20
                             2451.89  2473.94  4351.09  4431.83  4503.98
                             4534.39  4574.38  4591.64  4607.82  4612.41
                             4616.75  4630.12

 Zero-point correction=                           0.197380 (Hartree/Particle)
 Thermal correction to Energy=                    0.210948
 Thermal correction to Enthalpy=                  0.211893
 Thermal correction to Gibbs Free Energy=         0.155916
 Sum of electronic and zero-point Energies=           -727.050447
 Sum of electronic and thermal Energies=              -727.036879
 Sum of electronic and thermal Enthalpies=            -727.035935
 Sum of electronic and thermal Free Energies=         -727.091912

                     E (Thermal)             CV                S
                      KCal/Mol        Cal/Mol-Kelvin    Cal/Mol-Kelvin
 Total                  132.372             51.532            117.813
 Electronic               0.000              0.000              0.000
 Translational            0.889              2.981             41.987
 Rotational               0.889              2.981             32.591
 Vibrational            130.595             45.571             43.236
 Vibration     1          0.594              1.984              5.819
 Vibration     2          0.597              1.973              4.446
 Vibration     3          0.598              1.969              4.180
 Vibration     4          0.607              1.937              3.190
 Vibration     5          0.608              1.936              3.158
 Vibration     6          0.615              1.914              2.808
 Vibration     7          0.627              1.874              2.388
 Vibration     8          0.638              1.840              2.132
 Vibration     9          0.668              1.745              1.659
 Vibration    10          0.670              1.740              1.639
 Vibration    11          0.702              1.647              1.340
 Vibration    12          0.749              1.515              1.044
 Vibration    13          0.772              1.455              0.937
 Vibration    14          0.809              1.360              0.795
 Vibration    15          0.811              1.356              0.789
 Vibration    16          0.816              1.343              0.772
 Vibration    17          0.816              1.342              0.771
 Vibration    18          0.857              1.247              0.655
 Vibration    19          0.909              1.131              0.536

 Optimization completed.
    -- Stationary point found.
 Normal termination of Gaussian 16 at Sun Feb 11 01:29:52 2024.
