 Q-Chem 5.4, Q-Chem, Inc., Pleasanton, CA (2021)
 Q-Chem 5.4.0 for Intel X86 EM64T Linux

User input:
--------------------------------------------------------------
$molecule
-2 1
C                  3.7655890000      0.1397920000     -0.1979730000
C                  2.7365840000      0.1270690000      0.9551200000
C                  1.2999130000      0.2456950000      0.5257610000
C                  0.5854660000     -0.9838800000      0.3145800000
O                  1.1674670000     -2.1090780000      0.4509010000
C                 -0.8407040000     -0.8578050000     -0.0522990000
C                 -1.6701680000     -1.9936090000     -0.2865370000
O                 -1.2106960000     -3.3045770000     -0.1939850000
C                 -3.0020940000     -1.8211360000     -0.6301310000
O                 -3.8011370000     -2.9600490000     -0.8597870000
C                 -3.5541840000     -0.5522310000     -0.7646670000
O                 -4.8899410000     -0.3917920000     -1.1261140000
C                 -2.8159590000      0.6089860000     -0.5601050000
C                 -1.4333940000      0.4566540000     -0.1876450000
C                 -0.6544290000      1.6346820000      0.0386210000
C                  0.6721250000      1.5063820000      0.3881790000
O                  1.3998840000      2.6867680000      0.6010320000
O                 -1.2189220000      2.8888800000     -0.1030980000
O                 -3.4520070000      1.7634420000     -0.7243870000
H                  3.5580760000     -0.6919820000     -0.8761300000
H                  3.7111040000      1.0685190000     -0.7774700000
H                  4.7967770000      0.0343980000      0.1793090000
H                  2.8318790000     -0.8326810000      1.4750710000
H                  3.0195410000      0.9097720000      1.6864880000
H                 -1.9597260000     -3.8484400000     -0.4658530000
H                  2.2740280000      2.4136140000      0.8935480000
H                 -2.1653860000      2.7078180000     -0.3648070000
H                 -4.6513210000     -2.6177010000     -1.1589580000
H                 -4.9341960000      0.5933460000     -1.1377900000
$end
$rem
MAX_SCF_CYCLES=200
BASIS  =  6-311++G(d,p)
GUI  =  2
JOB_TYPE  =  SP
METHOD  =  B3LYP
SOLVENT_METHOD = PCM
$end
$pcm
theory = CPCM
$end
$solvent
dielectric 37.219
opticaldielectric 1.43
$end

--------------------------------------------------------------

             Standard Nuclear Orientation (Angstroms)
    I     Atom           X                Y                Z
 ----------------------------------------------------------------
    1      C       3.7655890000     0.1397920000    -0.1979730000
    2      C       2.7365840000     0.1270690000     0.9551200000
    3      C       1.2999130000     0.2456950000     0.5257610000
    4      C       0.5854660000    -0.9838800000     0.3145800000
    5      O       1.1674670000    -2.1090780000     0.4509010000
    6      C      -0.8407040000    -0.8578050000    -0.0522990000
    7      C      -1.6701680000    -1.9936090000    -0.2865370000
    8      O      -1.2106960000    -3.3045770000    -0.1939850000
    9      C      -3.0020940000    -1.8211360000    -0.6301310000
   10      O      -3.8011370000    -2.9600490000    -0.8597870000
   11      C      -3.5541840000    -0.5522310000    -0.7646670000
   12      O      -4.8899410000    -0.3917920000    -1.1261140000
   13      C      -2.8159590000     0.6089860000    -0.5601050000
   14      C      -1.4333940000     0.4566540000    -0.1876450000
   15      C      -0.6544290000     1.6346820000     0.0386210000
   16      C       0.6721250000     1.5063820000     0.3881790000
   17      O       1.3998840000     2.6867680000     0.6010320000
   18      O      -1.2189220000     2.8888800000    -0.1030980000
   19      O      -3.4520070000     1.7634420000    -0.7243870000
   20      H       3.5580760000    -0.6919820000    -0.8761300000
   21      H       3.7111040000     1.0685190000    -0.7774700000
   22      H       4.7967770000     0.0343980000     0.1793090000
   23      H       2.8318790000    -0.8326810000     1.4750710000
   24      H       3.0195410000     0.9097720000     1.6864880000
   25      H      -1.9597260000    -3.8484400000    -0.4658530000
   26      H       2.2740280000     2.4136140000     0.8935480000
   27      H      -2.1653860000     2.7078180000    -0.3648070000
   28      H      -4.6513210000    -2.6177010000    -1.1589580000
   29      H      -4.9341960000     0.5933460000    -1.1377900000
 ----------------------------------------------------------------

    9    -990.4279926898      5.25e-06  Convergence criterion met
 Total energy in the final basis set =     -990.4279926898

                    Orbital Energies (a.u.)
 --------------------------------------------------------------

 Alpha MOs
 -- Occupied --
-19.1454 -19.1323 -19.1305 -19.1281 -19.1016 -19.0531 -19.0229 -10.2048
-10.2025 -10.1947 -10.1916 -10.1893 -10.1875 -10.1824 -10.1524 -10.1516
-10.1494 -10.1459 -10.1278  -1.0584  -1.0380  -1.0360  -1.0231  -1.0094
 -0.9485  -0.9478  -0.8209  -0.7813  -0.7501  -0.7041  -0.6971  -0.6629
 -0.6209  -0.6020  -0.5787  -0.5561  -0.5471  -0.5192  -0.5143  -0.4824
 -0.4812  -0.4581  -0.4402  -0.4288  -0.4268  -0.4123  -0.4064  -0.4007
 -0.3938  -0.3844  -0.3777  -0.3704  -0.3643  -0.3617  -0.3556  -0.3541
 -0.3516  -0.3384  -0.3320  -0.3262  -0.3206  -0.3176  -0.3118  -0.2654
 -0.2387  -0.2284  -0.1986  -0.1922  -0.1766  -0.1202

          Ground-State Mulliken Net Atomic Charges

     Atom                 Charge (a.u.)
  ----------------------------------------
      1 C                    -0.586067
      2 C                    -0.170694
      3 C                     1.261565
      4 C                    -0.418731
      5 O                    -0.654397
      6 C                     0.553580
      7 C                    -0.279422
      8 O                    -0.332237
      9 C                    -0.332928
     10 O                    -0.392049
     11 C                    -0.182678
     12 O                    -0.395564
     13 C                    -0.410039
     14 C                     0.876585
     15 C                    -0.494403
     16 C                    -0.809581
     17 O                    -0.349414
     18 O                    -0.522663
     19 O                    -0.726117
     20 H                     0.164180
     21 H                     0.142747
     22 H                     0.130472
     23 H                     0.171248
     24 H                     0.124878
     25 H                     0.303421
     26 H                     0.309288
     27 H                     0.391751
     28 H                     0.319288
     29 H                     0.307982
  ----------------------------------------
  Sum of atomic charges =    -2.000000

                    Cartesian Multipole Moments
 -----------------------------------------------------------------
    Charge (ESU x 10^10)
                -9.6064
    Dipole Moment (Debye)
         X       8.7353      Y       0.2816      Z       0.5877
       Tot       8.7596
    Quadrupole Moments (Debye-Ang)
        XX    -157.9719     XY      20.4513     YY    -172.1047
        XZ      -5.8696     YZ       5.9508     ZZ    -121.2993

 Total job time:  322.55s(wall), 396.42s(cpu)
        *  Thank you very much for using Q-Chem.  Have a nice day.  *
