 Q-Chem 5.4, Q-Chem, Inc., Pleasanton, CA (2021)
 Q-Chem 5.4.0 for Intel X86 EM64T Linux

User input:
--------------------------------------------------------------
$molecule
-2 1
C                 -3.3701960000      3.4889980000      0.0186090000
C                 -4.5921430000      2.8502890000      0.0810380000
C                 -4.6063410000      1.4235080000      0.1225030000
C                 -2.1313130000      2.7945670000      0.0103590000
C                 -2.1590180000      1.3508980000      0.0682060000
C                 -3.4232210000      0.7144630000      0.1109320000
C                 -0.8955900000      3.5522240000     -0.0414590000
C                  0.3099950000      2.7458100000     -0.0372760000
C                  0.2822540000      1.3021490000      0.0206590000
C                 -0.9533830000      0.5430400000      0.0774600000
C                  1.5749930000      3.3901990000     -0.0779490000
C                  2.7719730000      2.7031590000     -0.0626240000
C                  2.7307850000      1.2769230000     -0.0204160000
C                  1.5207410000      0.6157070000      0.0147330000
O                 -0.8707860000      4.8331190000     -0.0807220000
O                 -0.9780180000     -0.7360440000      0.1232280000
C                 -5.8936420000      3.6162600000      0.0880550000
H                 -5.5593940000      0.8976040000      0.1676040000
H                 -3.4182140000     -0.3707760000      0.1443920000
H                  1.4736840000     -0.4684850000      0.0493680000
C                  4.1022890000      3.4165540000     -0.1070990000
H                  3.6631050000      0.7133380000     -0.0119630000
H                 -3.3110830000      4.5729750000     -0.0263220000
H                  1.5575140000      4.4757010000     -0.1215220000
H                 -5.7184370000      4.6955390000      0.0391770000
H                 -6.4834270000      3.4166800000      0.9920530000
H                 -6.5399240000      3.3468540000     -0.7660060000
H                  3.9685170000      4.5020020000     -0.1499660000
H                  4.7034180000      3.1222140000     -0.9855570000
H                  4.7185220000      3.1929120000      0.7733160000
$end
$rem
MAX_SCF_CYCLES=200
BASIS  =  6-311++G(d,p)
GUI  =  2
JOB_TYPE  =  SP
METHOD  =  B3LYP
SOLVENT_METHOD = PCM
$end
$pcm
theory = CPCM
$end
$solvent
dielectric 37.219
opticaldielectric 1.43
$end

--------------------------------------------------------------

             Standard Nuclear Orientation (Angstroms)
    I     Atom           X                Y                Z
 ----------------------------------------------------------------
    1      C      -3.3701960000     3.4889980000     0.0186090000
    2      C      -4.5921430000     2.8502890000     0.0810380000
    3      C      -4.6063410000     1.4235080000     0.1225030000
    4      C      -2.1313130000     2.7945670000     0.0103590000
    5      C      -2.1590180000     1.3508980000     0.0682060000
    6      C      -3.4232210000     0.7144630000     0.1109320000
    7      C      -0.8955900000     3.5522240000    -0.0414590000
    8      C       0.3099950000     2.7458100000    -0.0372760000
    9      C       0.2822540000     1.3021490000     0.0206590000
   10      C      -0.9533830000     0.5430400000     0.0774600000
   11      C       1.5749930000     3.3901990000    -0.0779490000
   12      C       2.7719730000     2.7031590000    -0.0626240000
   13      C       2.7307850000     1.2769230000    -0.0204160000
   14      C       1.5207410000     0.6157070000     0.0147330000
   15      O      -0.8707860000     4.8331190000    -0.0807220000
   16      O      -0.9780180000    -0.7360440000     0.1232280000
   17      C      -5.8936420000     3.6162600000     0.0880550000
   18      H      -5.5593940000     0.8976040000     0.1676040000
   19      H      -3.4182140000    -0.3707760000     0.1443920000
   20      H       1.4736840000    -0.4684850000     0.0493680000
   21      C       4.1022890000     3.4165540000    -0.1070990000
   22      H       3.6631050000     0.7133380000    -0.0119630000
   23      H      -3.3110830000     4.5729750000    -0.0263220000
   24      H       1.5575140000     4.4757010000    -0.1215220000
   25      H      -5.7184370000     4.6955390000     0.0391770000
   26      H      -6.4834270000     3.4166800000     0.9920530000
   27      H      -6.5399240000     3.3468540000    -0.7660060000
   28      H       3.9685170000     4.5020020000    -0.1499660000
   29      H       4.7034180000     3.1222140000    -0.9855570000
   30      H       4.7185220000     3.1929120000     0.7733160000
 ----------------------------------------------------------------

    8    -767.8491591950      7.54e-06  Convergence criterion met
 Total energy in the final basis set =     -767.8491591950

                    Orbital Energies (a.u.)
 --------------------------------------------------------------

 Alpha MOs
 -- Occupied --
-19.0235 -19.0203 -10.1751 -10.1711 -10.1552 -10.1552 -10.1514 -10.1514
-10.1457 -10.1456 -10.1444 -10.1444 -10.1399 -10.1398 -10.1337 -10.1337
-10.1331 -10.1331  -0.9442  -0.9394  -0.8294  -0.8242  -0.7649  -0.7418
 -0.7267  -0.7144  -0.6821  -0.6583  -0.6267  -0.5922  -0.5738  -0.5555
 -0.5233  -0.4936  -0.4844  -0.4442  -0.4293  -0.4291  -0.4171  -0.4035
 -0.4018  -0.3973  -0.3967  -0.3823  -0.3776  -0.3749  -0.3692  -0.3545
 -0.3527  -0.3451  -0.3276  -0.3273  -0.3137  -0.3117  -0.2971  -0.2934
 -0.2321  -0.2246  -0.2210  -0.2081  -0.2054  -0.1968  -0.1040

          Ground-State Mulliken Net Atomic Charges

     Atom                 Charge (a.u.)
  ----------------------------------------
      1 C                    -0.288978
      2 C                     0.313260
      3 C                    -0.622403
      4 C                     0.134067
      5 C                     0.191803
      6 C                     0.085225
      7 C                    -0.393521
      8 C                     0.133341
      9 C                     0.193484
     10 C                    -0.826578
     11 C                    -0.289322
     12 C                     0.311976
     13 C                    -0.622073
     14 C                     0.084503
     15 O                    -0.688950
     16 O                    -0.673765
     17 C                    -0.421016
     18 H                     0.169426
     19 H                     0.146075
     20 H                     0.146125
     21 C                    -0.421566
     22 H                     0.169473
     23 H                     0.110305
     24 H                     0.110278
     25 H                     0.161738
     26 H                     0.157132
     27 H                     0.155590
     28 H                     0.161725
     29 H                     0.155631
     30 H                     0.157013
  ----------------------------------------
  Sum of atomic charges =    -2.000000

                    Cartesian Multipole Moments
 -----------------------------------------------------------------
    Charge (ESU x 10^10)
                -9.6064
    Dipole Moment (Debye)
         X       8.8790      Y     -19.7546      Z      -0.1798
       Tot      21.6590
    Quadrupole Moments (Debye-Ang)
        XX    -134.3114     XY      17.4270     YY    -210.1338
        XZ       0.3447     YZ       1.4762     ZZ    -118.5792

 Total job time:  87.24s(wall), 374.93s(cpu)
        *  Thank you very much for using Q-Chem.  Have a nice day.  *
