 Gaussian 16, Revision A.03,
 Gaussian 16:  ES64L-G16RevA.03 25-Dec-2016

 ----------------------------------------------------------------
 #P UB3LYP/6-311++G(d,p) SCRF=(PCM,Solvent=n,n-DiMethylFormamide)
 ----------------------------------------------------------------

 ------------------
 Radical PCM in DMF
 ------------------
 Symbolic Z-matrix:
 Charge = -1 Multiplicity = 2

                         Standard orientation:
 ---------------------------------------------------------------------
 Center     Atomic      Atomic             Coordinates (Angstroms)
 Number     Number       Type             X           Y           Z
 ---------------------------------------------------------------------
      1          8           0        0.000159    2.737729    0.603876
      2          6           0        0.000031    1.504680    0.316213
      3          6           0        1.252012    0.790251    0.083254
      4          6           0        2.457625    1.535948    0.024516
      5          6           0        3.662898    0.946272   -0.303300
      6          6           0        3.733452   -0.430131   -0.591613
      7          6           0        2.573515   -1.191386   -0.511385
      8          6           0        1.351381   -0.603356   -0.173356
      9         16           0       -0.000046   -1.756050    0.102896
     10          8           0       -0.000085   -2.174142    1.577031
     11          6           0       -1.351378   -0.603288   -0.173458
     12          6           0       -2.573487   -1.191295   -0.511603
     13          6           0       -3.733445   -0.430043   -0.591728
     14          6           0       -3.662924    0.946294   -0.303168
     15          6           0       -2.457651    1.535962    0.024725
     16          6           0       -1.252005    0.790299    0.083306
     17          1           0        2.384413    2.596745    0.232848
     18          1           0        4.563725    1.552035   -0.344983
     19          1           0        4.677609   -0.894067   -0.856193
     20          1           0        2.608553   -2.261379   -0.695677
     21          1           0       -2.608537   -2.261258   -0.696069
     22          1           0       -4.677570   -0.893975   -0.856442
     23          1           0       -4.563762    1.552051   -0.344696
     24          1           0       -2.384440    2.596721    0.233209
 ---------------------------------------------------------------------

 SCF Done:  E(UB3LYP) =  -1049.11803776     A.U. after   20 cycles

 The electronic state is 2-A.
 Alpha  occ. eigenvalues --  -88.94495 -19.08146 -19.06643 -10.21426 -10.19704
 Alpha  occ. eigenvalues --  -10.19703 -10.18292 -10.18292 -10.18034 -10.18034
 Alpha  occ. eigenvalues --  -10.17612 -10.17612 -10.17340 -10.17340 -10.17034
 Alpha  occ. eigenvalues --  -10.17033  -8.02107  -5.98378  -5.98257  -5.97701
 Alpha  occ. eigenvalues --   -1.00564  -0.99151  -0.86843  -0.85774  -0.79073
 Alpha  occ. eigenvalues --   -0.76520  -0.75540  -0.74538  -0.69454  -0.64671
 Alpha  occ. eigenvalues --   -0.61935  -0.59484  -0.58457  -0.54543  -0.53051
 Alpha  occ. eigenvalues --   -0.48826  -0.46697  -0.46477  -0.46018  -0.43917
 Alpha  occ. eigenvalues --   -0.43010  -0.42561  -0.41766  -0.41760  -0.40164
 Alpha  occ. eigenvalues --   -0.38255  -0.37697  -0.37469  -0.35407  -0.35104
 Alpha  occ. eigenvalues --   -0.34921  -0.34372  -0.28112  -0.27390  -0.26088
 Alpha  occ. eigenvalues --   -0.26077  -0.25319  -0.23779  -0.23635  -0.13286
 Alpha virt. eigenvalues --   -0.03810  -0.02855  -0.01196  -0.00158   0.00356
 Alpha virt. eigenvalues --    0.01231   0.02155   0.02252   0.02758   0.03038
 Alpha virt. eigenvalues --    0.04060   0.04361   0.04628   0.04846   0.05991

  Beta  occ. eigenvalues --  -88.94497 -19.08043 -19.05984 -10.21106 -10.19555
  Beta  occ. eigenvalues --  -10.19554 -10.18363 -10.18363 -10.18012 -10.18011
  Beta  occ. eigenvalues --  -10.17643 -10.17643 -10.17167 -10.17167 -10.16931
  Beta  occ. eigenvalues --  -10.16931  -8.02105  -5.98377  -5.98259  -5.97706
  Beta  occ. eigenvalues --   -1.00279  -0.97960  -0.86575  -0.85606  -0.78767
  Beta  occ. eigenvalues --   -0.76125  -0.75376  -0.74289  -0.69139  -0.64232
  Beta  occ. eigenvalues --   -0.61638  -0.59389  -0.58202  -0.54266  -0.52901
  Beta  occ. eigenvalues --   -0.48581  -0.46578  -0.46264  -0.45938  -0.43723
  Beta  occ. eigenvalues --   -0.42952  -0.42287  -0.41593  -0.40911  -0.39682
  Beta  occ. eigenvalues --   -0.37769  -0.37075  -0.37060  -0.35321  -0.34929
  Beta  occ. eigenvalues --   -0.34334  -0.33153  -0.27906  -0.26596  -0.25596
  Beta  occ. eigenvalues --   -0.24685  -0.24298  -0.23518  -0.23184
  Beta virt. eigenvalues --   -0.07402  -0.03471  -0.01676  -0.00822  -0.00147
  Beta virt. eigenvalues --    0.00364   0.01235   0.02180   0.02254   0.03097
  Beta virt. eigenvalues --    0.03148   0.04098   0.04373   0.04659   0.05645

 Mulliken charges and spin densities:
               1          2
     1  O   -0.489874   0.249518
     2  C   -0.091072   0.200988
     3  C    1.393864  -0.014600
     4  C    0.154165   0.116203
     5  C   -0.580778  -0.024339
     6  C   -0.156463   0.136513
     7  C   -0.270500  -0.050298
     8  C   -1.137129   0.102289
     9  S   -0.210218   0.041865
    10  O   -0.491067   0.000174
    11  C   -1.137299   0.102280
    12  C   -0.270401  -0.050307
    13  C   -0.156491   0.136544
    14  C   -0.580615  -0.024348
    15  C    0.154056   0.116221
    16  C    1.394044  -0.014571
    17  H    0.186023  -0.007138
    18  H    0.179358   0.001043
    19  H    0.184395  -0.009683
    20  H    0.188112   0.003714
    21  H    0.188117   0.003715
    22  H    0.184398  -0.009685
    23  H    0.179360   0.001043
    24  H    0.186015  -0.007139
 Sum of Mulliken charges =  -1.00000   1.00000

 Dipole moment (field-independent basis, Debye):
    X=             -0.0001    Y=             -2.4211    Z=             -5.9289  Tot=              6.4042
 Quadrupole moment (field-independent basis, Debye-Ang):
   XX=            -94.8629   YY=           -128.3147   ZZ=           -117.2500
   XY=             -0.0013   XZ=              0.0003   YZ=              6.8699

 Normal termination of Gaussian 16 at Sat Jan 13 19:19:13 2024.
