 Gaussian 16, Revision A.03,
 Gaussian 16:  ES64L-G16RevA.03 25-Dec-2016

 ----------------------------------------------------------------------
 #P UB3LYP/6-311++G(d,p) nosym opt freq SCRF=(PCM,Solvent=n,n-DiMethylF
 ormamide)
 ----------------------------------------------------------------------

 -------
 Radical
 -------
 Symbolic Z-matrix:
 Charge = -1 Multiplicity = 2

 SCF Done:  E(UB3LYP) =  -990.311858944     A.U. after   20 cycles
 SCF Done:  E(UB3LYP) =  -990.312657345     A.U. after   15 cycles
 SCF Done:  E(UB3LYP) =  -990.312629164     A.U. after   14 cycles
 SCF Done:  E(UB3LYP) =  -990.312789600     A.U. after   14 cycles
 SCF Done:  E(UB3LYP) =  -990.312784477     A.U. after   13 cycles
 SCF Done:  E(UB3LYP) =  -990.312807645     A.U. after   11 cycles
 SCF Done:  E(UB3LYP) =  -990.312807714     A.U. after   12 cycles
 SCF Done:  E(UB3LYP) =  -990.312809908     A.U. after   10 cycles
 SCF Done:  E(UB3LYP) =  -990.312810075     A.U. after   10 cycles
 Optimization completed.
    -- Stationary point found.
 Normal termination of Gaussian 16 at Sun Feb 11 15:36:10 2024.

 ----------------------------------------------------------------------
 #P Geom=AllCheck Guess=TCheck SCRF=Check GenChk UB3LYP/6-311++G(d,p) F
 req
 ----------------------------------------------------------------------

 Structure from the checkpoint file:  "312-rad.chk"
 -------
 Radical
 -------
 Charge = -1 Multiplicity = 2

                          Input orientation:
 ---------------------------------------------------------------------
 Center     Atomic      Atomic             Coordinates (Angstroms)
 Number     Number       Type             X           Y           Z
 ---------------------------------------------------------------------
      1          6           0        3.742815    0.086473   -0.237544
      2          6           0        2.786274    0.128362    0.969986
      3          6           0        1.329731    0.262809    0.589063
      4          6           0        0.582164   -0.960953    0.363794
      5          8           0        1.146803   -2.080230    0.511509
      6          6           0       -0.831696   -0.839339   -0.033983
      7          6           0       -1.660619   -1.955612   -0.293431
      8          8           0       -1.212008   -3.247398   -0.198186
      9          6           0       -2.994192   -1.772593   -0.667007
     10          8           0       -3.739424   -2.903542   -0.904571
     11          6           0       -3.544174   -0.500062   -0.794079
     12          8           0       -4.860592   -0.402878   -1.164838
     13          6           0       -2.760599    0.617937   -0.548535
     14          6           0       -1.406141    0.467269   -0.170026
     15          6           0       -0.634745    1.668620    0.068202
     16          6           0        0.736525    1.504289    0.437714
     17          8           0        1.418751    2.681089    0.632154
     18          8           0       -1.169094    2.842098   -0.054529
     19          8           0       -3.349696    1.835296   -0.688860
     20          1           0        3.499350   -0.757582   -0.887099
     21          1           0        3.677076    0.999607   -0.836232
     22          1           0        4.780181   -0.026099    0.091690
     23          1           0        2.899400   -0.796059    1.538896
     24          1           0        3.092518    0.935601    1.648663
     25          1           0       -1.955188   -3.825404   -0.423195
     26          1           0        2.317459    2.484430    0.920321
     27          1           0       -2.597669    2.489372   -0.463183
     28          1           0       -4.638063   -2.650828   -1.154091
     29          1           0       -5.090983    0.536188   -1.211732
 ---------------------------------------------------------------------

 SCF Done:  E(UB3LYP) =  -990.312810075     A.U. after    1 cycles

 Alpha  occ. eigenvalues --  -19.16845 -19.16591 -19.15203 -19.15051 -19.13275
 Alpha  occ. eigenvalues --  -19.08752 -19.06825 -10.23681 -10.23610 -10.23451
 Alpha  occ. eigenvalues --  -10.23141 -10.22641 -10.22579 -10.22533 -10.17790
 Alpha  occ. eigenvalues --  -10.17744 -10.16930 -10.16583 -10.15729  -1.09276
 Alpha  occ. eigenvalues --   -1.07383  -1.06363  -1.05301  -1.04531  -0.99476
 Alpha  occ. eigenvalues --   -0.99343  -0.85652  -0.81089  -0.77157  -0.74258
 Alpha  occ. eigenvalues --   -0.72887  -0.68403  -0.65333  -0.64388  -0.61594
 Alpha  occ. eigenvalues --   -0.58360  -0.58117  -0.55309  -0.54473  -0.52260
 Alpha  occ. eigenvalues --   -0.50547  -0.48584  -0.46678  -0.46443  -0.46041
 Alpha  occ. eigenvalues --   -0.43920  -0.43411  -0.42012  -0.41786  -0.41086
 Alpha  occ. eigenvalues --   -0.40896  -0.40186  -0.38824  -0.38622  -0.38449
 Alpha  occ. eigenvalues --   -0.38244  -0.37568  -0.36680  -0.36297  -0.36013
 Alpha  occ. eigenvalues --   -0.35000  -0.34442  -0.33809  -0.30037  -0.25787
 Alpha  occ. eigenvalues --   -0.24973  -0.23270  -0.22104  -0.21519  -0.14564
 Alpha virt. eigenvalues --   -0.01618  -0.01442  -0.00512   0.00154   0.00809
 Alpha virt. eigenvalues --    0.01844   0.02217   0.02387   0.03981   0.04428
 Alpha virt. eigenvalues --    0.04695   0.05376   0.05490   0.06110   0.06365

  Beta  occ. eigenvalues --  -19.16810 -19.16580 -19.15159 -19.15022 -19.13207
  Beta  occ. eigenvalues --  -19.08206 -19.06303 -10.23608 -10.23556 -10.23432
  Beta  occ. eigenvalues --  -10.23038 -10.22468 -10.22454 -10.22311 -10.17821
  Beta  occ. eigenvalues --  -10.17732 -10.16941 -10.16439 -10.15714  -1.09205
  Beta  occ. eigenvalues --   -1.07310  -1.06211  -1.05216  -1.04380  -0.98572
  Beta  occ. eigenvalues --   -0.98419  -0.85445  -0.80708  -0.76958  -0.73981
  Beta  occ. eigenvalues --   -0.72731  -0.67728  -0.65189  -0.64248  -0.61412
  Beta  occ. eigenvalues --   -0.58160  -0.58044  -0.55138  -0.54248  -0.52184
  Beta  occ. eigenvalues --   -0.50457  -0.48415  -0.46489  -0.46165  -0.45636
  Beta  occ. eigenvalues --   -0.43771  -0.42759  -0.41830  -0.41227  -0.40736
  Beta  occ. eigenvalues --   -0.40587  -0.39918  -0.38530  -0.38448  -0.38263
  Beta  occ. eigenvalues --   -0.37806  -0.37281  -0.36447  -0.36107  -0.35084
  Beta  occ. eigenvalues --   -0.34302  -0.33651  -0.33279  -0.29044  -0.25337
  Beta  occ. eigenvalues --   -0.23198  -0.22770  -0.21611  -0.20418
  Beta virt. eigenvalues --   -0.08446  -0.01566  -0.00625   0.00111   0.00794
  Beta virt. eigenvalues --    0.01062   0.01898   0.02270   0.02408   0.04012
  Beta virt. eigenvalues --    0.04452   0.04721   0.05432   0.05537   0.06333

 Mulliken charges and spin densities:
               1          2
     1  C   -0.584827   0.002010
     2  C   -0.121354   0.007435
     3  C    1.306062   0.107830
     4  C   -0.448130   0.064185
     5  O   -0.474591   0.194342
     6  C    0.600239   0.032153
     7  C   -0.274069   0.034626
     8  O   -0.281121   0.006379
     9  C   -0.294928   0.054961
    10  O   -0.337360   0.008566
    11  C   -0.273756   0.010448
    12  O   -0.342390   0.003240
    13  C    0.050540   0.083831
    14  C    0.874114  -0.042254
    15  C   -0.625777   0.187270
    16  C   -0.836955   0.015362
    17  O   -0.280341   0.012577
    18  O   -0.551832   0.197068
    19  O   -0.504069   0.020019
    20  H    0.164542  -0.001645
    21  H    0.147070   0.000940
    22  H    0.138734   0.003367
    23  H    0.196780   0.003137
    24  H    0.120817   0.000133
    25  H    0.300714  -0.000465
    26  H    0.291302  -0.000840
    27  H    0.404925  -0.004075
    28  H    0.316723  -0.000371
    29  H    0.318939  -0.000228
 Sum of Mulliken charges =  -1.00000   1.00000

 Dipole moment (field-independent basis, Debye):
    X=              1.5552    Y=             -0.9110    Z=             -0.6136  Tot=              1.9040
 Quadrupole moment (field-independent basis, Debye-Ang):
   XX=           -108.7833   YY=           -151.0636   ZZ=           -114.0436
   XY=             17.9135   XZ=              2.7683   YZ=              4.4767

  Exact polarizability: 351.974   1.840 332.760  55.486   4.482 148.866
 Approx polarizability: 373.539  -9.416 403.267  60.411   2.081 168.664

                      1                      2                      3
                      A                      A                      A
 Frequencies --     47.9095                56.5902                77.2510
 Red. masses --      4.5619                 5.6247                 3.7295
 Frc consts  --      0.0062                 0.0106                 0.0131
 IR Inten    --     14.8183                 0.0163                 4.4607

                      4                      5                      6
                      A                      A                      A
 Frequencies --    100.6120               123.1212               154.0957
 Red. masses --      6.6936                 8.5641                 3.4767
 Frc consts  --      0.0399                 0.0765                 0.0486
 IR Inten    --      6.9596                14.6463                53.5371

                      7                      8                      9
                      A                      A                      A
 Frequencies --    172.6637               185.3200               198.9794
 Red. masses --      9.7596                 2.5447                 1.8185
 Frc consts  --      0.1714                 0.0515                 0.0424
 IR Inten    --      0.2293                95.9677                 9.2751

                     10                     11                     12
                      A                      A                      A
 Frequencies --    217.5815               225.9591               271.6421
 Red. masses --      1.8474                 1.7864                 4.9996
 Frc consts  --      0.0515                 0.0537                 0.2174
 IR Inten    --    195.3641                 7.3804                13.5612

                     13                     14                     15
                      A                      A                      A
 Frequencies --    303.3165               315.8751               325.8509
 Red. masses --      4.4771                 4.6924                 5.5855
 Frc consts  --      0.2427                 0.2759                 0.3494
 IR Inten    --      0.7204                 1.8615                27.4265

                     16                     17                     18
                      A                      A                      A
 Frequencies --    342.8673               346.5292               351.3982
 Red. masses --      1.5174                 1.7466                 1.9630
 Frc consts  --      0.1051                 0.1236                 0.1428
 IR Inten    --     58.7016               101.8343                16.5773

                     19                     20                     21
                      A                      A                      A
 Frequencies --    369.2243               370.8256               381.5543
 Red. masses --      3.7497                 3.4435                 8.1685
 Frc consts  --      0.3012                 0.2790                 0.7007
 IR Inten    --     13.9829                13.9203                12.9914

                     22                     23                     24
                      A                      A                      A
 Frequencies --    387.5217               417.8519               423.8991
 Red. masses --      6.4624                 3.5648                 1.3645
 Frc consts  --      0.5718                 0.3667                 0.1445
 IR Inten    --     18.0098                43.3212                62.8514

                     25                     26                     27
                      A                      A                      A
 Frequencies --    437.7916               476.9185               482.8702
 Red. masses --      8.6145                10.6901                 7.9539
 Frc consts  --      0.9728                 1.4326                 1.0927
 IR Inten    --     44.5289                 7.8102                 7.5828

                     28                     29                     30
                      A                      A                      A
 Frequencies --    535.3098               547.0329               554.8928
 Red. masses --      9.9433                 5.8952                 9.9782
 Frc consts  --      1.6788                 1.0394                 1.8102
 IR Inten    --      4.1281                25.7032                 7.7648

                     31                     32                     33
                      A                      A                      A
 Frequencies --    619.4994               645.6317               675.1174
 Red. masses --      8.4158                11.5650                10.7210
 Frc consts  --      1.9029                 2.8403                 2.8790
 IR Inten    --      7.5101                 0.0215                 0.9399

                     34                     35                     36
                      A                      A                      A
 Frequencies --    714.5128               727.0202               753.4936
 Red. masses --      2.7119                10.3771                 7.6565
 Frc consts  --      0.8157                 3.2316                 2.5612
 IR Inten    --      9.8383                 1.7644                42.3705

                     37                     38                     39
                      A                      A                      A
 Frequencies --    764.6890               777.8072               823.0038
 Red. masses --      2.6879                 5.6539                 2.3974
 Frc consts  --      0.9260                 2.0153                 0.9567
 IR Inten    --    161.2096               110.4624                21.3180

                     40                     41                     42
                      A                      A                      A
 Frequencies --    920.8347               935.4909               950.6038
 Red. masses --      2.9254                 1.0549                 5.5936
 Frc consts  --      1.4615                 0.5439                 2.9781
 IR Inten    --     32.2849               133.2120               359.6013

                     43                     44                     45
                      A                      A                      A
 Frequencies --   1001.1004              1011.0100              1072.3245
 Red. masses --      3.2436                 3.5644                 1.9761
 Frc consts  --      1.9153                 2.1466                 1.3388
 IR Inten    --    178.8504                 4.9533                32.0487

                     46                     47                     48
                      A                      A                      A
 Frequencies --   1087.8082              1128.5357              1145.5893
 Red. masses --      2.2313                 3.6682                 4.6143
 Frc consts  --      1.5557                 2.7525                 3.5679
 IR Inten    --     74.1178                69.0867               381.8058

                     49                     50                     51
                      A                      A                      A
 Frequencies --   1192.1640              1222.1044              1256.1343
 Red. masses --      1.7317                 2.1814                 2.3387
 Frc consts  --      1.4501                 1.9195                 2.1742
 IR Inten    --     45.2726               383.8850               134.7468

                     52                     53                     54
                      A                      A                      A
 Frequencies --   1264.1307              1274.8210              1293.7289
 Red. masses --      2.7044                 1.6359                 2.4095
 Frc consts  --      2.5463                 1.5664                 2.3761
 IR Inten    --    200.1715               702.7414                44.9837

                     55                     56                     57
                      A                      A                      A
 Frequencies --   1299.8921              1342.7585              1348.5356
 Red. masses --      2.3514                 1.7268                 2.6353
 Frc consts  --      2.3409                 1.8344                 2.8236
 IR Inten    --      1.5954                83.5391               208.9196

                     58                     59                     60
                      A                      A                      A
 Frequencies --   1375.8737              1396.8406              1416.6480
 Red. masses --      2.8250                 1.2490                 5.3785
 Frc consts  --      3.1508                 1.4359                 6.3596
 IR Inten    --    431.2836                17.5434               629.0281

                     61                     62                     63
                      A                      A                      A
 Frequencies --   1438.0484              1455.8038              1478.0692
 Red. masses --      2.9795                 3.7781                 1.4171
 Frc consts  --      3.6303                 4.7177                 1.8241
 IR Inten    --    595.7680               633.7704                67.1845

                     64                     65                     66
                      A                      A                      A
 Frequencies --   1485.4574              1489.9557              1500.5927
 Red. masses --      1.4128                 1.2352                 1.3843
 Frc consts  --      1.8368                 1.6156                 1.8366
 IR Inten    --     71.0532                 2.7774               166.2750

                     67                     68                     69
                      A                      A                      A
 Frequencies --   1522.8290              1531.1861              1602.7094
 Red. masses --      5.6321                 3.5117                 4.7629
 Frc consts  --      7.6952                 4.8509                 7.2083
 IR Inten    --    757.7687                97.4881                46.3147

                     70                     71                     72
                      A                      A                      A
 Frequencies --   1644.4044              1662.0854              2698.3980
 Red. masses --      6.6165                 4.3877                 1.0758
 Frc consts  --     10.5413                 7.1415                 4.6153
 IR Inten    --      4.6618               104.8934               918.7154

                     73                     74                     75
                      A                      A                      A
 Frequencies --   2988.6540              3019.9270              3070.4547
 Red. masses --      1.0729                 1.0350                 1.0945
 Frc consts  --      5.6462                 5.5615                 6.0796
 IR Inten    --     93.6015                76.7741                 6.8492

                     76                     77                     78
                      A                      A                      A
 Frequencies --   3084.9788              3095.2127              3748.9069
 Red. masses --      1.0960                 1.1014                 1.0655
 Frc consts  --      6.1456                 6.2171                 8.8226
 IR Inten    --     88.8667                47.6070               212.4308

                     79                     80                     81
                      A                      A                      A
 Frequencies --   3761.5671              3790.6843              3811.3464
 Red. masses --      1.0657                 1.0663                 1.0655
 Frc consts  --      8.8846                 9.0276                 9.1189
 IR Inten    --    200.3114               252.2516               129.6801

 - Thermochemistry -
 -------------------
 Temperature   298.150 Kelvin.  Pressure   1.00000 Atm.
 Atom     1 has atomic number  6 and mass  12.00000

 Molecular mass:   266.04265 amu.
 Principal axes and moments of inertia in atomic units:
                           1         2         3
     Eigenvalues --  2969.974186018.005048791.45580
           X            0.93077  -0.30156  -0.20670
           Y            0.30170   0.95288  -0.03159
           Z            0.20649  -0.03296   0.97789
 This molecule is an asymmetric top.
 Rotational symmetry number  1.
 Warning -- assumption of classical behavior for rotation
           may cause significant error
 Rotational temperatures (Kelvin)      0.02916     0.01439     0.00985
 Rotational constants (GHZ):           0.60766     0.29989     0.20528
 Zero-point vibrational energy     541443.2 (Joules/Mol)
                                  129.40803 (Kcal/Mol)
 Warning -- explicit consideration of  31 degrees of freedom as
           vibrations may cause significant error
 Vibrational temperatures:     68.93    81.42   111.15   144.76   177.14
          (Kelvin)            221.71   248.42   266.63   286.29   313.05
                              325.10   390.83   436.40   454.47   468.83
                              493.31   498.58   505.58   531.23   533.54
                              548.97   557.56   601.20   609.90   629.88
                              686.18   694.74   770.19   787.06   798.37
                              891.32   928.92   971.34  1028.02  1046.02
                             1084.11  1100.22  1119.09  1184.12  1324.88
                             1345.96  1367.71  1440.36  1454.62  1542.84
                             1565.11  1623.71  1648.25  1715.26  1758.34
                             1807.30  1818.80  1834.18  1861.39  1870.25
                             1931.93  1940.24  1979.58  2009.74  2038.24
                             2069.03  2094.58  2126.61  2137.24  2143.71
                             2159.02  2191.01  2203.04  2305.94  2365.93
                             2391.37  3882.39  4300.01  4345.00  4417.70
                             4438.60  4453.32  5393.84  5412.06  5453.95
                             5483.68

 Zero-point correction=                           0.206225 (Hartree/Particle)
 Thermal correction to Energy=                    0.223813
 Thermal correction to Enthalpy=                  0.224757
 Thermal correction to Gibbs Free Energy=         0.161298
 Sum of electronic and zero-point Energies=           -990.106585
 Sum of electronic and thermal Energies=              -990.088997
 Sum of electronic and thermal Enthalpies=            -990.088053
 Sum of electronic and thermal Free Energies=         -990.151512

                     E (Thermal)             CV                S
                      KCal/Mol        Cal/Mol-Kelvin    Cal/Mol-Kelvin
 Total                  140.445             67.469            133.561
 Electronic               0.000              0.000              1.377
 Translational            0.889              2.981             42.635
 Rotational               0.889              2.981             33.418
 Vibrational            138.667             61.507             56.131
 Vibration     1          0.595              1.978              4.902
 Vibration     2          0.596              1.975              4.573
 Vibration     3          0.599              1.964              3.960
 Vibration     4          0.604              1.949              3.442
 Vibration     5          0.610              1.930              3.051
 Vibration     6          0.620              1.898              2.621
 Vibration     7          0.626              1.876              2.406
 Vibration     8          0.631              1.860              2.274
 Vibration     9          0.637              1.841              2.143
 Vibration    10          0.646              1.814              1.979
 Vibration    11          0.650              1.801              1.911
 Vibration    12          0.675              1.726              1.586
 Vibration    13          0.695              1.667              1.399
 Vibration    14          0.703              1.643              1.331
 Vibration    15          0.710              1.624              1.281
 Vibration    16          0.722              1.590              1.199
 Vibration    17          0.725              1.582              1.182
 Vibration    18          0.728              1.572              1.160
 Vibration    19          0.742              1.535              1.083
 Vibration    20          0.743              1.532              1.076
 Vibration    21          0.751              1.510              1.033
 Vibration    22          0.756              1.497              1.010
 Vibration    23          0.781              1.431              0.899
 Vibration    24          0.786              1.418              0.879
 Vibration    25          0.798              1.388              0.834
 Vibration    26          0.833              1.301              0.718
 Vibration    27          0.839              1.288              0.702
 Vibration    28          0.890              1.172              0.575
 Vibration    29          0.902              1.146              0.550
 Vibration    30          0.910              1.129              0.534
 Vibration    31          0.979              0.991              0.417

                           ! Non-Optimized Parameters !
 Normal termination of Gaussian 16 at Sun Feb 11 16:18:56 2024.
