 Q-Chem 5.4, Q-Chem, Inc., Pleasanton, CA (2021)
 Q-Chem 5.4.0 for Intel X86 EM64T Linux

User input:
--------------------------------------------------------------
$molecule
-1 2
C                  1.6646040000      1.0521620000     -0.8332310000
C                  0.4330850000      1.5668520000     -0.2505570000
C                 -0.5338690000      0.7273010000      0.2630200000
C                 -0.3663820000     -0.7193840000      0.2735810000
C                  0.8692750000     -1.2313240000     -0.3023850000
C                  1.8261960000     -0.3950840000     -0.8291210000
O                  2.5489630000      1.8092960000     -1.3316120000
O                 -1.2335850000     -1.5003570000      0.7652960000
O                  2.9350270000     -0.9496980000     -1.4340990000
C                  4.1820860000     -0.6452100000     -0.8168210000
C                  0.2540570000      3.0650240000     -0.2498540000
C                 -1.8103180000      1.2694600000      0.8574460000
H                  4.3529010000      0.4333860000     -0.7972260000
H                  4.9505610000     -1.1338450000     -1.4210250000
H                  4.2165150000     -1.0536260000      0.2023880000
O                  1.1227190000     -2.5865380000     -0.2547890000
C                  0.2372910000     -3.3992660000     -1.0192670000
H                 -0.7945280000     -3.2705740000     -0.6850440000
H                  0.5551540000     -4.4326700000     -0.8598310000
H                  0.3226160000     -3.1607550000     -2.0881980000
H                  1.1307880000      3.5336530000     -0.6980410000
H                  0.1247990000      3.4581630000      0.7666840000
H                 -0.6339220000      3.3686430000     -0.8191560000
H                 -1.6124200000      1.9345090000      1.7079220000
H                 -2.4290460000      0.4401140000      1.2016770000
H                 -2.3816470000      1.8560290000      0.1265740000
$end

$rem
BASIS  =  6-311++G(d,p)
GUI  =  2
JOB_TYPE  =  SP
METHOD  =  B3LYP
SCF_CONVERGENCE  = 8
SOLVENT_METHOD = sm12
$end

$smx
solvent dimethylformamide
charges CM5
$end

--------------------------------------------------------------

             Standard Nuclear Orientation (Angstroms)
    I     Atom           X                Y                Z
 ----------------------------------------------------------------
    1      C       1.6646040000     1.0521620000    -0.8332310000
    2      C       0.4330850000     1.5668520000    -0.2505570000
    3      C      -0.5338690000     0.7273010000     0.2630200000
    4      C      -0.3663820000    -0.7193840000     0.2735810000
    5      C       0.8692750000    -1.2313240000    -0.3023850000
    6      C       1.8261960000    -0.3950840000    -0.8291210000
    7      O       2.5489630000     1.8092960000    -1.3316120000
    8      O      -1.2335850000    -1.5003570000     0.7652960000
    9      O       2.9350270000    -0.9496980000    -1.4340990000
   10      C       4.1820860000    -0.6452100000    -0.8168210000
   11      C       0.2540570000     3.0650240000    -0.2498540000
   12      C      -1.8103180000     1.2694600000     0.8574460000
   13      H       4.3529010000     0.4333860000    -0.7972260000
   14      H       4.9505610000    -1.1338450000    -1.4210250000
   15      H       4.2165150000    -1.0536260000     0.2023880000
   16      O       1.1227190000    -2.5865380000    -0.2547890000
   17      C       0.2372910000    -3.3992660000    -1.0192670000
   18      H      -0.7945280000    -3.2705740000    -0.6850440000
   19      H       0.5551540000    -4.4326700000    -0.8598310000
   20      H       0.3226160000    -3.1607550000    -2.0881980000
   21      H       1.1307880000     3.5336530000    -0.6980410000
   22      H       0.1247990000     3.4581630000     0.7666840000
   23      H      -0.6339220000     3.3686430000    -0.8191560000
   24      H      -1.6124200000     1.9345090000     1.7079220000
   25      H      -2.4290460000     0.4401140000     1.2016770000
   26      H      -2.3816470000     1.8560290000     0.1265740000
 ----------------------------------------------------------------

   16    -689.3971233566      5.72e-09  Convergence criterion met
 Total energy in the final basis set =     -689.4747307436

                    Orbital Energies (a.u.)
 --------------------------------------------------------------

 Alpha MOs
 -- Occupied --
-19.1308 -19.1308 -19.0708 -19.0708 -10.2159 -10.2159 -10.2114 -10.2108
-10.2072 -10.2072 -10.1679 -10.1673 -10.1617 -10.1617  -1.0557  -1.0371
 -0.9904  -0.9881  -0.8271  -0.7726  -0.7287  -0.7031  -0.6954  -0.6451
 -0.6416  -0.5642  -0.5589  -0.5144  -0.4934  -0.4842  -0.4650  -0.4426
 -0.4384  -0.4360  -0.4323  -0.4199  -0.4018  -0.3998  -0.3908  -0.3883
 -0.3808  -0.3646  -0.3624  -0.3542  -0.3435  -0.3418  -0.2851  -0.2817
 -0.2633  -0.2338  -0.2317  -0.2235  -0.1550

 Beta MOs
 -- Occupied --
-19.1307 -19.1307 -19.0638 -19.0638 -10.2145 -10.2144 -10.2105 -10.2099
-10.2072 -10.2072 -10.1668 -10.1662 -10.1618 -10.1618  -1.0547  -1.0360
 -0.9786  -0.9762  -0.8220  -0.7708  -0.7256  -0.7016  -0.6938  -0.6406
 -0.6374  -0.5612  -0.5556  -0.5130  -0.4914  -0.4826  -0.4616  -0.4413
 -0.4367  -0.4334  -0.4298  -0.4178  -0.3966  -0.3948  -0.3890  -0.3876
 -0.3695  -0.3607  -0.3538  -0.3427  -0.3362  -0.3341  -0.2821  -0.2785
 -0.2341  -0.2282  -0.2253  -0.2173

          Ground-State Mulliken Net Atomic Charges

     Atom                 Charge (a.u.)    Spin (a.u.)
  --------------------------------------------------------
      1 C                    -1.482663       0.061791
      2 C                     0.291452       0.093453
      3 C                     0.291845       0.093359
      4 C                    -1.484296       0.061889
      5 C                    -0.234900       0.084005
      6 C                    -0.225841       0.083669
      7 O                    -0.347402       0.257242
      8 O                    -0.347494       0.257297
      9 O                    -0.094034      -0.000089
     10 C                    -0.026858       0.000716
     11 C                     0.323731      -0.003434
     12 C                     0.326710      -0.003535
     13 H                     0.132330      -0.000271
     14 H                     0.232480       0.000310
     15 H                     0.124228       0.000779
     16 O                    -0.094089      -0.000094
     17 C                    -0.026467       0.000718
     18 H                     0.132626      -0.000268
     19 H                     0.232223       0.000304
     20 H                     0.124052       0.000761
     21 H                     0.180537      -0.001869
     22 H                     0.197177       0.003551
     23 H                     0.198297       0.004006
     24 H                     0.198409       0.004008
     25 H                     0.180561      -0.001862
     26 H                     0.197388       0.003564
  --------------------------------------------------------
  Sum of atomic charges =    -1.000000

                    Cartesian Multipole Moments
 -----------------------------------------------------------------
    Charge (ESU x 10^10)
                -4.8032
    Dipole Moment (Debye)
         X      -3.9436      Y       0.3561      Z       1.6812
       Tot       4.3018
    Quadrupole Moments (Debye-Ang)
        XX    -105.2250     XY      -9.4127     YY    -102.8318
        XZ      13.3051     YZ       8.8615     ZZ     -95.5153

 Total job time:  474.70s(wall), 3693.60s(cpu)
        *  Thank you very much for using Q-Chem.  Have a nice day.  *
