 Gaussian 16, Revision A.03,
 Gaussian 16:  ES64L-G16RevA.03 25-Dec-2016

 ----------------------------------------------------------------------
 #P UB3LYP/6-311++G(d,p) nosym opt freq SCRF=(PCM,Solvent=n,n-DiMethylF
 ormamide)
 ----------------------------------------------------------------------

 -------
 Radical
 -------
 Symbolic Z-matrix:
 Charge = -1 Multiplicity = 2

 SCF Done:  E(UB3LYP) =  -1144.98232671     A.U. after   19 cycles
 SCF Done:  E(UB3LYP) =  -1144.98235876     A.U. after   17 cycles
 SCF Done:  E(UB3LYP) =  -1144.98290359     A.U. after   15 cycles
 SCF Done:  E(UB3LYP) =  -1144.98337605     A.U. after   15 cycles
 SCF Done:  E(UB3LYP) =  -1144.98354949     A.U. after   13 cycles
 SCF Done:  E(UB3LYP) =  -1144.98354994     A.U. after   14 cycles
 SCF Done:  E(UB3LYP) =  -1144.98356910     A.U. after   12 cycles
 SCF Done:  E(UB3LYP) =  -1144.98357157     A.U. after   11 cycles
 SCF Done:  E(UB3LYP) =  -1144.98357518     A.U. after   11 cycles
 SCF Done:  E(UB3LYP) =  -1144.98358192     A.U. after   14 cycles
 SCF Done:  E(UB3LYP) =  -1144.98359520     A.U. after   14 cycles
 SCF Done:  E(UB3LYP) =  -1144.98358994     A.U. after   14 cycles
 SCF Done:  E(UB3LYP) =  -1144.98354926     A.U. after   16 cycles
 SCF Done:  E(UB3LYP) =  -1144.98359660     A.U. after   15 cycles
 SCF Done:  E(UB3LYP) =  -1144.98359346     A.U. after   14 cycles
 SCF Done:  E(UB3LYP) =  -1144.98359699     A.U. after   14 cycles
 SCF Done:  E(UB3LYP) =  -1144.98359661     A.U. after   13 cycles
 SCF Done:  E(UB3LYP) =  -1144.98359718     A.U. after   12 cycles
 SCF Done:  E(UB3LYP) =  -1144.98359719     A.U. after    8 cycles
 Optimization completed.
    -- Stationary point found.
 Normal termination of Gaussian 16 at Sat Feb 10 20:29:48 2024.

 ----------------------------------------------------------------------
 #P Geom=AllCheck Guess=TCheck SCRF=Check GenChk UB3LYP/6-311++G(d,p) F
 req
 ----------------------------------------------------------------------

 Structure from the checkpoint file:  "146-rad.chk"
 -------
 Radical
 -------
 Charge = -1 Multiplicity = 2

                          Input orientation:
 ---------------------------------------------------------------------
 Center     Atomic      Atomic             Coordinates (Angstroms)
 Number     Number       Type             X           Y           Z
 ---------------------------------------------------------------------
      1          6           0        2.625344    2.994857    1.503637
      2          6           0        2.354531    1.528006    1.665857
      3          8           0        1.858609    1.000253    2.632756
      4          8           0        2.780245    0.838748    0.574250
      5          6           0        2.459104   -0.520240    0.463499
      6          6           0        3.494215   -1.397460    0.702221
      7          6           0        3.296202   -2.779676    0.538383
      8          6           0        2.064476   -3.243883    0.133657
      9          6           0        0.996092   -2.357187   -0.125767
     10          6           0       -0.272850   -2.922812   -0.571677
     11          8           0       -0.429760   -4.169274   -0.694980
     12          6           0       -1.348460   -1.987968   -0.884815
     13          6           0       -2.567562   -2.515384   -1.364879
     14          6           0       -3.619649   -1.692217   -1.699477
     15          6           0       -3.480220   -0.300379   -1.557945
     16          6           0       -2.300853    0.229063   -1.081820
     17          8           0       -2.230516    1.628067   -1.059366
     18          6           0       -2.348593    2.273569    0.130890
     19          6           0       -2.049182    3.735235   -0.027661
     20          8           0       -2.680925    1.724052    1.154109
     21          6           0       -1.183809   -0.576071   -0.725556
     22          6           0        0.074268   -0.005742   -0.225709
     23          8           0        0.204561    1.230147   -0.026256
     24          6           0        1.170724   -0.946936    0.038270
     25          1           0        1.933391    3.391361    0.757176
     26          1           0        2.475250    3.507951    2.451287
     27          1           0        3.641207    3.160082    1.140770
     28          1           0        4.453602   -1.000771    1.012052
     29          1           0        4.111867   -3.467363    0.729847
     30          1           0        1.884592   -4.302355   -0.002593
     31          1           0       -2.644692   -3.590086   -1.467172
     32          1           0       -4.550018   -2.105476   -2.071675
     33          1           0       -4.286183    0.373978   -1.821458
     34          1           0       -2.336058    4.273619    0.873288
     35          1           0       -0.976478    3.849579   -0.198813
     36          1           0       -2.572473    4.142711   -0.894333
 ---------------------------------------------------------------------

 SCF Done:  E(UB3LYP) =  -1144.98359719     A.U. after    1 cycles

 Alpha  occ. eigenvalues --  -19.17350 -19.17346 -19.11888 -19.11876 -19.07832
 Alpha  occ. eigenvalues --  -19.07797 -10.31272 -10.31265 -10.24302 -10.24300
 Alpha  occ. eigenvalues --  -10.23699 -10.22793 -10.18807 -10.18805 -10.18131
 Alpha  occ. eigenvalues --  -10.18126 -10.17941 -10.17940 -10.17854 -10.17852
 Alpha  occ. eigenvalues --  -10.17616 -10.17610 -10.17338 -10.17336  -1.11756
 Alpha  occ. eigenvalues --   -1.11708  -1.03358  -1.03300  -1.00654  -1.00292
 Alpha  occ. eigenvalues --   -0.87043  -0.86040  -0.79603  -0.77878  -0.77844
 Alpha  occ. eigenvalues --   -0.75095  -0.73926  -0.73641  -0.67917  -0.65572
 Alpha  occ. eigenvalues --   -0.64373  -0.62846  -0.61525  -0.55796  -0.55698
 Alpha  occ. eigenvalues --   -0.52363  -0.52336  -0.49825  -0.49775  -0.48853
 Alpha  occ. eigenvalues --   -0.48801  -0.48671  -0.48600  -0.47287  -0.46443
 Alpha  occ. eigenvalues --   -0.45944  -0.44937  -0.43006  -0.42773  -0.41538
 Alpha  occ. eigenvalues --   -0.41524  -0.41161  -0.41035  -0.40436  -0.39940
 Alpha  occ. eigenvalues --   -0.39327  -0.38557  -0.38492  -0.37643  -0.37234
 Alpha  occ. eigenvalues --   -0.36384  -0.35805  -0.35236  -0.34298  -0.32560
 Alpha  occ. eigenvalues --   -0.32134  -0.29073  -0.29064  -0.27440  -0.25853
 Alpha  occ. eigenvalues --   -0.25727  -0.25711  -0.24857  -0.23655  -0.14718
 Alpha virt. eigenvalues --   -0.05943  -0.03006  -0.01039  -0.00799  -0.00255
 Alpha virt. eigenvalues --    0.00068   0.00427   0.00508   0.01676   0.01991
 Alpha virt. eigenvalues --    0.02909   0.03006   0.03515   0.04153   0.04430

  Beta  occ. eigenvalues --  -19.17348 -19.17344 -19.11887 -19.11875 -19.07269
  Beta  occ. eigenvalues --  -19.07217 -10.31270 -10.31263 -10.24303 -10.24301
  Beta  occ. eigenvalues --  -10.23551 -10.22619 -10.18730 -10.18728 -10.18050
  Beta  occ. eigenvalues --  -10.18046 -10.17892 -10.17890 -10.17799 -10.17798
  Beta  occ. eigenvalues --  -10.17616 -10.17611 -10.17331 -10.17330  -1.11746
  Beta  occ. eigenvalues --   -1.11703  -1.03340  -1.03297  -0.99670  -0.99290
  Beta  occ. eigenvalues --   -0.86786  -0.85927  -0.79212  -0.77787  -0.77757
  Beta  occ. eigenvalues --   -0.74908  -0.73760  -0.73574  -0.67228  -0.65432
  Beta  occ. eigenvalues --   -0.64281  -0.62657  -0.61358  -0.55691  -0.55454
  Beta  occ. eigenvalues --   -0.52278  -0.52131  -0.49776  -0.49761  -0.48774
  Beta  occ. eigenvalues --   -0.48751  -0.48621  -0.48470  -0.47129  -0.46381
  Beta  occ. eigenvalues --   -0.45830  -0.44893  -0.42635  -0.42234  -0.41503
  Beta  occ. eigenvalues --   -0.41107  -0.40861  -0.40683  -0.40403  -0.39616
  Beta  occ. eigenvalues --   -0.39153  -0.38477  -0.37969  -0.37107  -0.36210
  Beta  occ. eigenvalues --   -0.36009  -0.35649  -0.34951  -0.33206  -0.32505
  Beta  occ. eigenvalues --   -0.32012  -0.29061  -0.29049  -0.25465  -0.25360
  Beta  occ. eigenvalues --   -0.25201  -0.24656  -0.24336  -0.23152
  Beta virt. eigenvalues --   -0.08838  -0.04945  -0.01945  -0.00858  -0.00774
  Beta virt. eigenvalues --   -0.00232   0.00132   0.00437   0.00515   0.01675
  Beta virt. eigenvalues --    0.02004   0.02933   0.03035   0.03514   0.04202

 Mulliken charges and spin densities:
               1          2
     1  C   -0.439460   0.000576
     2  C   -0.022957   0.001188
     3  O   -0.275370  -0.000655
     4  O    0.022355  -0.001659
     5  C   -0.182726   0.033372
     6  C    0.178351   0.046031
     7  C   -0.472522   0.038874
     8  C   -0.162569   0.028005
     9  C    0.381568   0.031047
    10  C   -0.767565   0.095192
    11  O   -0.449549   0.209769
    12  C    0.378604   0.030837
    13  C   -0.165475   0.027916
    14  C   -0.471670   0.038915
    15  C    0.181959   0.045851
    16  C   -0.188310   0.033334
    17  O    0.024375  -0.001679
    18  C   -0.022452   0.001166
    19  C   -0.440587   0.000556
    20  O   -0.275126  -0.000684
    21  C    0.356004   0.044454
    22  C   -0.399789   0.045918
    23  O   -0.395817   0.223355
    24  C    0.354872   0.044417
    25  H    0.208973   0.000026
    26  H    0.171529  -0.000148
    27  H    0.180552   0.000230
    28  H    0.196716  -0.003515
    29  H    0.197333  -0.002974
    30  H    0.171684  -0.001667
    31  H    0.171502  -0.001671
    32  H    0.197435  -0.002975
    33  H    0.196634  -0.003508
    34  H    0.171584  -0.000147
    35  H    0.209109   0.000027
    36  H    0.180806   0.000226
 Sum of Mulliken charges =  -1.00000   1.00000

 Dipole moment (field-independent basis, Debye):
    X=              2.2372    Y=              8.2885    Z=             -2.8276  Tot=              9.0388
 Quadrupole moment (field-independent basis, Debye-Ang):
   XX=           -134.7678   YY=           -162.9496   ZZ=           -158.1109
   XY=             -2.4680   XZ=              7.4363   YZ=             -7.3261

  Exact polarizability: 468.564 -17.396 438.927  89.187  24.027 236.118
 Approx polarizability: 493.674  -8.560 499.939  83.182  16.070 272.105

                      1                      2                      3
                      A                      A                      A
 Frequencies --     23.7266                34.1796                54.0549
 Red. masses --      5.3056                 7.2009                 1.1922
 Frc consts  --      0.0018                 0.0050                 0.0021
 IR Inten    --      0.4190                 5.4560                 5.2343

                      4                      5                      6
                      A                      A                      A
 Frequencies --     57.2303                63.8349                70.3276
 Red. masses --      5.6517                 4.4051                 4.2900
 Frc consts  --      0.0109                 0.0106                 0.0125
 IR Inten    --      4.3706                 3.8715                 5.6427

                      7                      8                      9
                      A                      A                      A
 Frequencies --     80.1911               100.0354               104.5010
 Red. masses --      1.2009                 3.3387                 3.7980
 Frc consts  --      0.0045                 0.0197                 0.0244
 IR Inten    --      1.4363                 7.2225                 5.5574

                     10                     11                     12
                      A                      A                      A
 Frequencies --    122.1963               145.4107               163.9646
 Red. masses --      6.5838                 7.7079                 7.3820
 Frc consts  --      0.0579                 0.0960                 0.1169
 IR Inten    --      1.9882                 6.5887                 3.6595

                     13                     14                     15
                      A                      A                      A
 Frequencies --    209.2884               210.5257               270.3115
 Red. masses --      4.6159                 8.0169                 5.6116
 Frc consts  --      0.1191                 0.2093                 0.2416
 IR Inten    --      0.0607                 7.1207                 2.5788

                     16                     17                     18
                      A                      A                      A
 Frequencies --    278.5980               311.4507               318.5175
 Red. masses --      5.2818                 5.1283                 4.0014
 Frc consts  --      0.2415                 0.2931                 0.2392
 IR Inten    --      1.9378                 0.0163                 8.6384

                     19                     20                     21
                      A                      A                      A
 Frequencies --    324.2721               341.7907               391.6983
 Red. masses --      8.4410                 5.7132                 6.5492
 Frc consts  --      0.5230                 0.3932                 0.5920
 IR Inten    --      1.6567                 3.4447                 4.9829

                     22                     23                     24
                      A                      A                      A
 Frequencies --    409.1767               419.1382               453.0305
 Red. masses --     11.2916                 6.1288                 7.3688
 Frc consts  --      1.1139                 0.6344                 0.8911
 IR Inten    --     20.7885                 0.1810                 9.4088

                     25                     26                     27
                      A                      A                      A
 Frequencies --    471.7283               491.8797               499.7441
 Red. masses --      5.7632                 8.6611                 4.0056
 Frc consts  --      0.7556                 1.2346                 0.5894
 IR Inten    --      4.0702                10.3940                 0.0519

                     28                     29                     30
                      A                      A                      A
 Frequencies --    516.6178               548.3798               558.0090
 Red. masses --      5.4246                 5.2557                 3.9468
 Frc consts  --      0.8530                 0.9312                 0.7241
 IR Inten    --     12.6145                 1.2859                28.0652

                     31                     32                     33
                      A                      A                      A
 Frequencies --    565.5155               580.9694               589.5036
 Red. masses --      5.5108                 3.0548                 3.5760
 Frc consts  --      1.0384                 0.6075                 0.7322
 IR Inten    --      0.3089                37.6490                 4.9894

                     34                     35                     36
                      A                      A                      A
 Frequencies --    619.3330               636.0422               678.8118
 Red. masses --      6.0341                 4.8804                 5.9215
 Frc consts  --      1.3637                 1.1633                 1.6076
 IR Inten    --     23.5216                15.3708                 1.1429

                     37                     38                     39
                      A                      A                      A
 Frequencies --    694.5247               704.6628               732.1222
 Red. masses --      3.9110                 7.0350                 2.8069
 Frc consts  --      1.1115                 2.0581                 0.8864
 IR Inten    --     55.8504                 0.3994                 0.7160

                     40                     41                     42
                      A                      A                      A
 Frequencies --    738.8007               781.7310               789.1967
 Red. masses --      4.0254                 2.7419                 4.7696
 Frc consts  --      1.2945                 0.9872                 1.7503
 IR Inten    --     34.0296                58.4293                 5.9741

                     43                     44                     45
                      A                      A                      A
 Frequencies --    790.5419               824.9175               831.5657
 Red. masses --      1.9991                 3.3608                 3.9349
 Frc consts  --      0.7361                 1.3474                 1.6031
 IR Inten    --     17.1438                27.6606                31.0533

                     46                     47                     48
                      A                      A                      A
 Frequencies --    891.2768               903.0601               926.7051
 Red. masses --      3.0904                 2.3611                 4.1626
 Frc consts  --      1.4464                 1.1345                 2.1062
 IR Inten    --     61.6670                10.3931                 3.3294

                     49                     50                     51
                      A                      A                      A
 Frequencies --    929.2145               937.3058               976.3329
 Red. masses --      1.8774                 3.0232                 4.6403
 Frc consts  --      0.9551                 1.5649                 2.6061
 IR Inten    --     29.4456                 3.4576               107.2263

                     52                     53                     54
                      A                      A                      A
 Frequencies --    993.6890               995.3393              1009.3394
 Red. masses --      1.2996                 1.3106                 2.1635
 Frc consts  --      0.7561                 0.7650                 1.2986
 IR Inten    --      0.0896                 2.3883                 4.3173

                     55                     56                     57
                      A                      A                      A
 Frequencies --   1028.7691              1049.2202              1053.9290
 Red. masses --      2.0851                 2.7881                 1.8095
 Frc consts  --      1.3002                 1.8084                 1.1842
 IR Inten    --    435.0072                11.0593                22.0436

                     58                     59                     60
                      A                      A                      A
 Frequencies --   1055.1574              1082.1840              1088.7581
 Red. masses --      1.9823                 2.1966                 1.7500
 Frc consts  --      1.3003                 1.5156                 1.2222
 IR Inten    --     34.9849                15.9396                92.8048

                     61                     62                     63
                      A                      A                      A
 Frequencies --   1154.5962              1172.0222              1176.8093
 Red. masses --      1.4740                 1.4822                 2.0446
 Frc consts  --      1.1578                 1.1995                 1.6683
 IR Inten    --     28.7289               144.4731                15.7086

                     64                     65                     66
                      A                      A                      A
 Frequencies --   1199.8931              1211.9338              1222.2513
 Red. masses --      4.2587                 4.7281                 3.0565
 Frc consts  --      3.6125                 4.0916                 2.6903
 IR Inten    --     41.2572              1579.6396                 1.1688

                     67                     68                     69
                      A                      A                      A
 Frequencies --   1230.8857              1237.7890              1239.8478
 Red. masses --      2.5368                 2.9856                 3.5371
 Frc consts  --      2.2645                 2.6951                 3.2036
 IR Inten    --     40.3664                 6.8256               266.6181

                     70                     71                     72
                      A                      A                      A
 Frequencies --   1327.5323              1350.6282              1358.0601
 Red. masses --      3.6416                10.6317                 5.6651
 Frc consts  --      3.7813                11.4268                 6.1559
 IR Inten    --     11.3075                 4.4649                20.0654

                     73                     74                     75
                      A                      A                      A
 Frequencies --   1386.1024              1387.4310              1400.1144
 Red. masses --      1.3290                 1.3334                 3.8830
 Frc consts  --      1.5044                 1.5122                 4.4848
 IR Inten    --    152.0582               232.6929               929.3681

                     76                     77                     78
                      A                      A                      A
 Frequencies --   1423.0413              1458.2176              1459.9421
 Red. masses --      3.0873                 2.4883                 1.0551
 Frc consts  --      3.6835                 3.1175                 1.3250
 IR Inten    --     60.9895                83.8939                10.9397

                     79                     80                     81
                      A                      A                      A
 Frequencies --   1461.4238              1464.1835              1465.3814
 Red. masses --      1.0555                 1.0645                 1.1288
 Frc consts  --      1.3282                 1.3446                 1.4281
 IR Inten    --     49.6928                24.4092                23.3638

                     82                     83                     84
                      A                      A                      A
 Frequencies --   1483.8444              1513.4165              1527.9026
 Red. masses --      3.5056                 5.2254                 6.6356
 Frc consts  --      4.5477                 7.0516                 9.1269
 IR Inten    --     42.1239              1323.5012                88.3273

                     85                     86                     87
                      A                      A                      A
 Frequencies --   1560.3641              1608.4995              1622.8379
 Red. masses --      5.7816                 8.3906                 5.8880
 Frc consts  --      8.2937                12.7905                 9.1362
 IR Inten    --    171.9589                53.8823                14.5964

                     88                     89                     90
                      A                      A                      A
 Frequencies --   1630.9906              1765.0452              1766.1602
 Red. masses --      6.6919                11.3802                11.3640
 Frc consts  --     10.4882                20.8887                20.8853
 IR Inten    --      4.9746                13.3603               944.8232

                     91                     92                     93
                      A                      A                      A
 Frequencies --   3053.9638              3054.7884              3118.7653
 Red. masses --      1.0358                 1.0356                 1.1001
 Frc consts  --      5.6918                 5.6940                 6.3045
 IR Inten    --      0.8389                 5.0458                 8.6600

                     94                     95                     96
                      A                      A                      A
 Frequencies --   3119.5744              3153.8431              3154.1941
 Red. masses --      1.1000                 1.1041                 1.1040
 Frc consts  --      6.3074                 6.4705                 6.4716
 IR Inten    --      2.5942                 8.0077                20.1488

                     97                     98                     99
                      A                      A                      A
 Frequencies --   3173.6440              3173.8142              3191.2312
 Red. masses --      1.0874                 1.0876                 1.0927
 Frc consts  --      6.4528                 6.4546                 6.5562
 IR Inten    --     27.2603                 8.3245                11.6641

                    100                    101                    102
                      A                      A                      A
 Frequencies --   3191.2888              3202.2841              3202.9956
 Red. masses --      1.0927                 1.0937                 1.0937
 Frc consts  --      6.5567                 6.6078                 6.6108
 IR Inten    --      8.0544                34.2614                 9.3827

 - Thermochemistry -
 -------------------
 Temperature   298.150 Kelvin.  Pressure   1.00000 Atm.
 Atom     1 has atomic number  6 and mass  12.00000

 Molecular mass:   324.06339 amu.
 Principal axes and moments of inertia in atomic units:
                           1         2         3
     Eigenvalues --  5949.997857085.00854**********
           X            0.94026   0.06890  -0.33342
           Y           -0.15375   0.95970  -0.23524
           Z            0.30377   0.27245   0.91296
 This molecule is an asymmetric top.
 Rotational symmetry number  1.
 Warning -- assumption of classical behavior for rotation
           may cause significant error
 Rotational temperatures (Kelvin)      0.01456     0.01222     0.00705
 Rotational constants (GHZ):           0.30332     0.25473     0.14700
 Zero-point vibrational energy     679358.4 (Joules/Mol)
                                  162.37057 (Kcal/Mol)
 Warning -- explicit consideration of  34 degrees of freedom as
           vibrations may cause significant error
 Vibrational temperatures:     34.14    49.18    77.77    82.34    91.84
          (Kelvin)            101.19   115.38   143.93   150.35   175.81
                              209.21   235.91   301.12   302.90   388.92
                              400.84   448.11   458.28   466.56   491.76
                              563.57   588.71   603.05   651.81   678.71
                              707.71   719.02   743.30   789.00   802.85
                              813.65   835.89   848.16   891.08   915.12
                              976.66   999.27  1013.85  1053.36  1062.97
                             1124.74  1135.48  1137.41  1186.87  1196.44
                             1282.35  1299.30  1333.32  1336.93  1348.57
                             1404.73  1429.70  1432.07  1452.21  1480.17
                             1509.59  1516.37  1518.14  1557.02  1566.48
                             1661.21  1686.28  1693.17  1726.38  1743.70
                             1758.55  1770.97  1780.90  1783.86  1910.02
                             1943.25  1953.95  1994.29  1996.20  2014.45
                             2047.44  2098.05  2100.53  2102.66  2106.63
                             2108.36  2134.92  2177.47  2198.31  2245.02
                             2314.27  2334.90  2346.63  2539.51  2541.11
                             4393.97  4395.16  4487.21  4488.37  4537.68
                             4538.18  4566.17  4566.41  4591.47  4591.55
                             4607.37  4608.40

 Zero-point correction=                           0.258754 (Hartree/Particle)
 Thermal correction to Energy=                    0.279396
 Thermal correction to Enthalpy=                  0.280340
 Thermal correction to Gibbs Free Energy=         0.206963
 Sum of electronic and zero-point Energies=          -1144.724843
 Sum of electronic and thermal Energies=             -1144.704202
 Sum of electronic and thermal Enthalpies=           -1144.703257
 Sum of electronic and thermal Free Energies=        -1144.776634

                     E (Thermal)             CV                S
                      KCal/Mol        Cal/Mol-Kelvin    Cal/Mol-Kelvin
 Total                  175.323             77.861            154.434
 Electronic               0.000              0.000              1.377
 Translational            0.889              2.981             43.223
 Rotational               0.889              2.981             34.603
 Vibrational            173.546             71.900             75.231
 Vibration     1          0.593              1.985              6.295
 Vibration     2          0.594              1.983              5.571
 Vibration     3          0.596              1.976              4.663
 Vibration     4          0.596              1.975              4.550
 Vibration     5          0.597              1.972              4.335
 Vibration     6          0.598              1.968              4.144
 Vibration     7          0.600              1.963              3.886
 Vibration     8          0.604              1.949              3.454
 Vibration     9          0.605              1.946              3.369
 Vibration    10          0.610              1.931              3.065
 Vibration    11          0.617              1.908              2.731
 Vibration    12          0.623              1.887              2.504
 Vibration    13          0.642              1.827              2.050
 Vibration    14          0.643              1.825              2.039
 Vibration    15          0.674              1.728              1.594
 Vibration    16          0.679              1.713              1.542
 Vibration    17          0.700              1.652              1.355
 Vibration    18          0.705              1.638              1.318
 Vibration    19          0.709              1.627              1.288
 Vibration    20          0.721              1.592              1.204
 Vibration    21          0.759              1.488              0.994
 Vibration    22          0.774              1.450              0.930
 Vibration    23          0.782              1.429              0.895
 Vibration    24          0.812              1.354              0.787
 Vibration    25          0.829              1.313              0.733
 Vibration    26          0.848              1.268              0.679
 Vibration    27          0.855              1.251              0.659
 Vibration    28          0.872              1.213              0.618
 Vibration    29          0.904              1.143              0.548
 Vibration    30          0.914              1.122              0.528
 Vibration    31          0.921              1.106              0.513
 Vibration    32          0.938              1.072              0.484
 Vibration    33          0.947              1.054              0.468
 Vibration    34          0.979              0.991              0.418

                           ! Non-Optimized Parameters !
 Normal termination of Gaussian 16 at Sat Feb 10 22:53:47 2024.
