 Gaussian 16, Revision A.03,
 Gaussian 16:  ES64L-G16RevA.03 25-Dec-2016

 ----------------------------------------------------------------
 #P UB3LYP/6-311++G(d,p) SCRF=(PCM,Solvent=n,n-DiMethylFormamide)
 ----------------------------------------------------------------

 ------------------
 Quinone PCM in DMF
 ------------------
 Symbolic Z-matrix:
 Charge = -1 Multiplicity = 1

                         Standard orientation:
 ---------------------------------------------------------------------
 Center     Atomic      Atomic             Coordinates (Angstroms)
 Number     Number       Type             X           Y           Z
 ---------------------------------------------------------------------
      1          6           0       -2.359121   -1.738096   -0.000133
      2          6           0       -3.725828   -1.480448    0.000073
      3          6           0       -4.191771   -0.162336    0.000319
      4          6           0       -1.444468   -0.681756   -0.000101
      5          6           0       -1.913195    0.639213    0.000066
      6          6           0       -3.287428    0.893720    0.000296
      7          6           0        0.032979   -0.991176   -0.000302
      8          6           0        0.964439    0.176516   -0.000372
      9          6           0        0.490259    1.437329   -0.000483
     10          6           0       -0.940134    1.774992   -0.000173
     11          8           0        0.405826   -2.146343   -0.000434
     12          8           0       -1.327246    2.938369   -0.000257
     13         16           0        2.789350   -0.093996    0.000151
     14          8           0        3.025819   -0.842944    1.252957
     15          8           0        3.026921   -0.844228   -1.251627
     16          8           0        3.332290    1.285564   -0.000327
     17          1           0       -1.973123   -2.750343   -0.000344
     18          1           0       -4.431363   -2.304675    0.000033
     19          1           0       -5.258296    0.036507    0.000500
     20          1           0       -3.619744    1.925018    0.000413
     21          1           0        1.189663    2.266341   -0.000659
 ---------------------------------------------------------------------

 SCF Done:  E(UB3LYP) =  -1158.72999614     A.U. after   16 cycles

 The electronic state is 1-A.
 Alpha  occ. eigenvalues --  -89.05525 -19.13887 -19.13881 -19.09916 -19.09915
 Alpha  occ. eigenvalues --  -19.09789 -10.29199 -10.28727 -10.22948 -10.21377
 Alpha  occ. eigenvalues --  -10.20947 -10.20791 -10.19886 -10.19852 -10.19803
 Alpha  occ. eigenvalues --  -10.19772  -8.11374  -6.07628  -6.07622  -6.07600
 Alpha  occ. eigenvalues --   -1.12072  -1.07444  -1.06762  -0.98497  -0.98303
 Alpha  occ. eigenvalues --   -0.89137  -0.84571  -0.77941  -0.77822  -0.70853
 Alpha  occ. eigenvalues --   -0.66135  -0.64733  -0.60318  -0.58306  -0.54696
 Alpha  occ. eigenvalues --   -0.52946  -0.51306  -0.49426  -0.46854  -0.46497
 Alpha  occ. eigenvalues --   -0.46300  -0.45510  -0.45228  -0.45180  -0.45039
 Alpha  occ. eigenvalues --   -0.42859  -0.42264  -0.38528  -0.38324  -0.37033
 Alpha  occ. eigenvalues --   -0.34304  -0.34267  -0.33104  -0.31523  -0.30621
 Alpha  occ. eigenvalues --   -0.29525  -0.29108  -0.27951  -0.27879  -0.27059
 Alpha  occ. eigenvalues --   -0.26322
 Alpha virt. eigenvalues --   -0.13094  -0.05811  -0.03750  -0.00277   0.00948
 Alpha virt. eigenvalues --    0.01534   0.01977   0.02558   0.03264   0.04220
 Alpha virt. eigenvalues --    0.04388   0.05135   0.05427   0.06006   0.06143

  Beta  occ. eigenvalues --  -89.05525 -19.13887 -19.13881 -19.09916 -19.09915
  Beta  occ. eigenvalues --  -19.09789 -10.29199 -10.28727 -10.22948 -10.21377
  Beta  occ. eigenvalues --  -10.20947 -10.20791 -10.19886 -10.19852 -10.19803
  Beta  occ. eigenvalues --  -10.19772  -8.11374  -6.07628  -6.07622  -6.07600
  Beta  occ. eigenvalues --   -1.12072  -1.07444  -1.06762  -0.98497  -0.98303
  Beta  occ. eigenvalues --   -0.89137  -0.84571  -0.77941  -0.77822  -0.70853
  Beta  occ. eigenvalues --   -0.66135  -0.64733  -0.60318  -0.58306  -0.54696
  Beta  occ. eigenvalues --   -0.52946  -0.51306  -0.49426  -0.46854  -0.46497
  Beta  occ. eigenvalues --   -0.46300  -0.45510  -0.45228  -0.45180  -0.45039
  Beta  occ. eigenvalues --   -0.42859  -0.42264  -0.38528  -0.38324  -0.37033
  Beta  occ. eigenvalues --   -0.34304  -0.34267  -0.33104  -0.31523  -0.30621
  Beta  occ. eigenvalues --   -0.29525  -0.29108  -0.27951  -0.27879  -0.27059
  Beta  occ. eigenvalues --   -0.26322
  Beta virt. eigenvalues --   -0.13094  -0.05811  -0.03750  -0.00277   0.00948
  Beta virt. eigenvalues --    0.01534   0.01977   0.02558   0.03264   0.04220
  Beta virt. eigenvalues --    0.04388   0.05135   0.05427   0.06006   0.06143

 Mulliken charges and spin densities:
               1          2
     1  C    0.200672   0.000000
     2  C   -0.373431   0.000000
     3  C   -0.367380  -0.000000
     4  C    0.022633   0.000000
     5  C    0.552319  -0.000000
     6  C    0.165712  -0.000000
     7  C   -0.513894   0.000000
     8  C   -0.376445  -0.000000
     9  C    0.095077   0.000000
    10  C   -0.533694   0.000000
    11  O   -0.225457   0.000000
    12  O   -0.286154  -0.000000
    13  S    0.612643   0.000000
    14  O   -0.335390   0.000000
    15  O   -0.335126   0.000000
    16  O   -0.361080  -0.000000
    17  H    0.184349  -0.000000
    18  H    0.208063   0.000000
    19  H    0.210530  -0.000000
    20  H    0.181049  -0.000000
    21  H    0.275003  -0.000000
 Sum of Mulliken charges =  -1.00000  -0.00000

 Dipole moment (field-independent basis, Debye):
    X=            -17.9631    Y=              0.0572    Z=             -0.0019  Tot=             17.9632
 Quadrupole moment (field-independent basis, Debye-Ang):
   XX=           -136.1161   YY=           -120.9551   ZZ=           -109.0537
   XY=             12.4865   XZ=             -0.0049   YZ=              0.0001

 Normal termination of Gaussian 16 at Fri Jan 26 02:09:32 2024.
