 Gaussian 16, Revision A.03,
 Gaussian 16:  ES64L-G16RevA.03 25-Dec-2016

 ----------------------------------------------------------------
 #P UB3LYP/6-311++G(d,p) SCRF=(PCM,Solvent=n,n-DiMethylFormamide)
 ----------------------------------------------------------------

 ------------------
 Quinone PCM in DMF
 ------------------
 Symbolic Z-matrix:
 Charge =  0 Multiplicity = 1

                         Standard orientation:
 ---------------------------------------------------------------------
 Center     Atomic      Atomic             Coordinates (Angstroms)
 Number     Number       Type             X           Y           Z
 ---------------------------------------------------------------------
      1         17           0       -4.677284   -0.653978    0.000031
      2          6           0       -3.042024   -0.023722    0.000025
      3          6           0       -2.844950    1.359063    0.000040
      4          6           0       -1.549970    1.857685    0.000029
      5          6           0       -0.452872    0.990249   -0.000006
      6          6           0        0.924644    1.560338   -0.000054
      7          8           0        1.109570    2.766447   -0.000047
      8          6           0        2.065646    0.598848   -0.000077
      9          6           0        3.371915    1.097378   -0.000056
     10          6           0        4.453054    0.223986    0.000081
     11          6           0        4.239307   -1.157307    0.000138
     12          6           0        2.944673   -1.662491    0.000058
     13          6           0        1.850566   -0.791513   -0.000034
     14          6           0        0.473188   -1.362342   -0.000071
     15          8           0        0.280909   -2.566249   -0.000144
     16          6           0       -0.669616   -0.397877   -0.000002
     17          6           0       -1.970927   -0.905598    0.000023
     18          1           0       -3.697046    2.026706    0.000070
     19          1           0       -1.367201    2.925095    0.000094
     20          1           0        3.514796    2.170839   -0.000101
     21          1           0        5.463835    0.615732    0.000123
     22          1           0        5.084202   -1.836452    0.000224
     23          1           0        2.756163   -2.728882    0.000028
     24          1           0       -2.120553   -1.977185    0.000010
 ---------------------------------------------------------------------

 SCF Done:  E(UB3LYP) =  -1148.58410173     A.U. after   15 cycles

 The electronic state is 1-A.
 Alpha  occ. eigenvalues -- -101.57209 -19.13755 -19.13565 -10.28963 -10.28790
 Alpha  occ. eigenvalues --  -10.26507 -10.22016 -10.21592 -10.21297 -10.21243
 Alpha  occ. eigenvalues --  -10.21209 -10.21142 -10.20882 -10.20178 -10.20137
 Alpha  occ. eigenvalues --  -10.20089 -10.20066  -9.48670  -7.25128  -7.24165
 Alpha  occ. eigenvalues --   -7.24108  -1.07292  -1.07010  -0.92001  -0.89340
 Alpha  occ. eigenvalues --   -0.86936  -0.81140  -0.78887  -0.78209  -0.76639
 Alpha  occ. eigenvalues --   -0.69569  -0.67345  -0.64646  -0.62660  -0.59359
 Alpha  occ. eigenvalues --   -0.56848  -0.55922  -0.51467  -0.50018  -0.49491
 Alpha  occ. eigenvalues --   -0.48924  -0.46457  -0.46391  -0.46217  -0.45409
 Alpha  occ. eigenvalues --   -0.45178  -0.44882  -0.42513  -0.41582  -0.41288
 Alpha  occ. eigenvalues --   -0.39049  -0.38454  -0.38373  -0.37192  -0.35165
 Alpha  occ. eigenvalues --   -0.33509  -0.29407  -0.29398  -0.28689  -0.28191
 Alpha  occ. eigenvalues --   -0.28118  -0.27368
 Alpha virt. eigenvalues --   -0.12389  -0.08091  -0.04379  -0.03405  -0.00771
 Alpha virt. eigenvalues --    0.00094   0.00279   0.01077   0.01931   0.02343
 Alpha virt. eigenvalues --    0.02406   0.02959   0.03873   0.04209   0.04539

  Beta  occ. eigenvalues -- -101.57209 -19.13755 -19.13565 -10.28963 -10.28790
  Beta  occ. eigenvalues --  -10.26507 -10.22016 -10.21592 -10.21297 -10.21243
  Beta  occ. eigenvalues --  -10.21209 -10.21142 -10.20882 -10.20178 -10.20137
  Beta  occ. eigenvalues --  -10.20089 -10.20066  -9.48670  -7.25128  -7.24165
  Beta  occ. eigenvalues --   -7.24108  -1.07292  -1.07010  -0.92001  -0.89340
  Beta  occ. eigenvalues --   -0.86936  -0.81140  -0.78887  -0.78209  -0.76639
  Beta  occ. eigenvalues --   -0.69569  -0.67345  -0.64646  -0.62660  -0.59359
  Beta  occ. eigenvalues --   -0.56848  -0.55922  -0.51467  -0.50018  -0.49491
  Beta  occ. eigenvalues --   -0.48924  -0.46457  -0.46391  -0.46217  -0.45409
  Beta  occ. eigenvalues --   -0.45178  -0.44882  -0.42513  -0.41582  -0.41288
  Beta  occ. eigenvalues --   -0.39049  -0.38454  -0.38373  -0.37192  -0.35165
  Beta  occ. eigenvalues --   -0.33509  -0.29407  -0.29398  -0.28689  -0.28191
  Beta  occ. eigenvalues --   -0.28118  -0.27368
  Beta virt. eigenvalues --   -0.12389  -0.08091  -0.04379  -0.03405  -0.00771
  Beta virt. eigenvalues --    0.00094   0.00279   0.01077   0.01931   0.02343
  Beta virt. eigenvalues --    0.02406   0.02959   0.03873   0.04209   0.04539

 Mulliken charges and spin densities:
               1          2
     1  Cl   0.513849  -0.000000
     2  C    0.570343   0.000000
     3  C   -0.455143  -0.000000
     4  C    0.115303   0.000000
     5  C    0.087855   0.000000
     6  C   -0.690412   0.000000
     7  O   -0.269240   0.000000
     8  C    0.113175   0.000000
     9  C    0.219750   0.000000
    10  C   -0.410064  -0.000000
    11  C   -0.406778   0.000000
    12  C    0.198310   0.000000
    13  C    0.226532  -0.000000
    14  C   -0.742804   0.000000
    15  O   -0.264197   0.000000
    16  C   -0.040688  -0.000000
    17  C   -0.200830  -0.000000
    18  H    0.230797   0.000000
    19  H    0.196677  -0.000000
    20  H    0.189249  -0.000000
    21  H    0.209797  -0.000000
    22  H    0.209944   0.000000
    23  H    0.187340  -0.000000
    24  H    0.211235   0.000000
 Sum of Mulliken charges =  -0.00000   0.00000

 Dipole moment (field-independent basis, Debye):
    X=              2.2383    Y=              0.6380    Z=              0.0004  Tot=              2.3274
 Quadrupole moment (field-independent basis, Debye-Ang):
   XX=            -83.4186   YY=           -114.1957   ZZ=           -106.0318
   XY=             -9.6447   XZ=              0.0005   YZ=             -0.0005

 Normal termination of Gaussian 16 at Sun Jan 14 01:03:17 2024.
