 Q-Chem 5.4, Q-Chem, Inc., Pleasanton, CA (2021)
 Q-Chem 5.4.0 for Intel X86 EM64T Linux

User input:
--------------------------------------------------------------
$molecule
0 1
O                 -2.2907030000     -2.6673530000     -0.4306210000
C                 -2.3536740000     -1.3350140000     -0.2024930000
C                 -3.5969180000     -0.7012190000     -0.0806290000
C                 -3.6836890000      0.6629790000      0.1532190000
C                 -2.5257420000      1.4241690000      0.2704640000
C                 -1.2813190000      0.8113630000      0.1521870000
C                 -0.0721210000      1.6853390000      0.2882060000
O                 -0.1902870000      2.8823960000      0.4937890000
C                  1.2644670000      1.0472030000      0.1649890000
C                  2.3990470000      1.8396440000      0.2882980000
C                  3.6638060000      1.2560590000      0.1751880000
C                  3.7979370000     -0.1018270000     -0.0581870000
C                  2.6616210000     -0.9171610000     -0.1854240000
O                  2.8553520000     -2.2216590000     -0.4103660000
C                  1.3700300000     -0.3416350000     -0.0733460000
C                  0.1791560000     -1.1996270000     -0.2071610000
O                  0.3130280000     -2.4121900000     -0.4159650000
C                 -1.1630730000     -0.5782350000     -0.0863570000
H                 -3.1859190000     -3.0219800000     -0.4813140000
H                 -4.5004160000     -1.2973940000     -0.1724970000
H                 -4.6572580000      1.1307800000      0.2437690000
H                 -2.5622560000      2.4898280000      0.4527930000
H                  2.2786330000      2.8993250000      0.4706040000
H                  4.5513480000      1.8713790000      0.2708790000
H                  4.7709540000     -0.5693560000     -0.1483820000
H                  1.9579970000     -2.6358150000     -0.4716420000
$end
$rem
MAX_SCF_CYCLES=200
BASIS  =  6-311++G(d,p)
GUI  =  2
JOB_TYPE  =  SP
METHOD  =  B3LYP
SOLVENT_METHOD = PCM
$end
$pcm
theory = CPCM
$end
$solvent
dielectric 37.219
opticaldielectric 1.43
$end

--------------------------------------------------------------

             Standard Nuclear Orientation (Angstroms)
    I     Atom           X                Y                Z
 ----------------------------------------------------------------
    1      O      -2.2907030000    -2.6673530000    -0.4306210000
    2      C      -2.3536740000    -1.3350140000    -0.2024930000
    3      C      -3.5969180000    -0.7012190000    -0.0806290000
    4      C      -3.6836890000     0.6629790000     0.1532190000
    5      C      -2.5257420000     1.4241690000     0.2704640000
    6      C      -1.2813190000     0.8113630000     0.1521870000
    7      C      -0.0721210000     1.6853390000     0.2882060000
    8      O      -0.1902870000     2.8823960000     0.4937890000
    9      C       1.2644670000     1.0472030000     0.1649890000
   10      C       2.3990470000     1.8396440000     0.2882980000
   11      C       3.6638060000     1.2560590000     0.1751880000
   12      C       3.7979370000    -0.1018270000    -0.0581870000
   13      C       2.6616210000    -0.9171610000    -0.1854240000
   14      O       2.8553520000    -2.2216590000    -0.4103660000
   15      C       1.3700300000    -0.3416350000    -0.0733460000
   16      C       0.1791560000    -1.1996270000    -0.2071610000
   17      O       0.3130280000    -2.4121900000    -0.4159650000
   18      C      -1.1630730000    -0.5782350000    -0.0863570000
   19      H      -3.1859190000    -3.0219800000    -0.4813140000
   20      H      -4.5004160000    -1.2973940000    -0.1724970000
   21      H      -4.6572580000     1.1307800000     0.2437690000
   22      H      -2.5622560000     2.4898280000     0.4527930000
   23      H       2.2786330000     2.8993250000     0.4706040000
   24      H       4.5513480000     1.8713790000     0.2708790000
   25      H       4.7709540000    -0.5693560000    -0.1483820000
   26      H       1.9579970000    -2.6358150000    -0.4716420000
 ----------------------------------------------------------------

    9    -839.4728677325      2.41e-06  Convergence criterion met
 Total energy in the final basis set =     -839.4728677325

                    Orbital Energies (a.u.)
 --------------------------------------------------------------

 Alpha MOs
 -- Occupied --
-19.1729 -19.1611 -19.1357 -19.1307 -10.2900 -10.2836 -10.2700 -10.2655
-10.2122 -10.2111 -10.2091 -10.2079 -10.2007 -10.1994 -10.1974 -10.1931
-10.1918 -10.1916  -1.0939  -1.0879  -1.0666  -1.0595  -0.8927  -0.8784
 -0.8148  -0.7774  -0.7729  -0.7679  -0.6940  -0.6735  -0.6596  -0.6287
 -0.6047  -0.5823  -0.5613  -0.5395  -0.5256  -0.5099  -0.4957  -0.4888
 -0.4776  -0.4672  -0.4627  -0.4526  -0.4519  -0.4366  -0.4280  -0.4140
 -0.4126  -0.4047  -0.3980  -0.3827  -0.3794  -0.3758  -0.3629  -0.3544
 -0.2933  -0.2905  -0.2791  -0.2751  -0.2553  -0.2483

          Ground-State Mulliken Net Atomic Charges

     Atom                 Charge (a.u.)
  ----------------------------------------
      1 O                    -0.237728
      2 C                     0.097363
      3 C                    -0.173746
      4 C                    -0.319755
      5 C                     0.056718
      6 C                     0.317750
      7 C                    -0.464303
      8 O                    -0.285402
      9 C                     0.263844
     10 C                     0.020680
     11 C                    -0.402016
     12 C                    -0.214228
     13 C                    -0.039644
     14 O                    -0.337802
     15 C                     0.418804
     16 C                    -0.333841
     17 O                    -0.333524
     18 C                    -0.024667
     19 H                     0.331683
     20 H                     0.209127
     21 H                     0.238073
     22 H                     0.185183
     23 H                     0.189339
     24 H                     0.233209
     25 H                     0.230053
     26 H                     0.374827
  ----------------------------------------
  Sum of atomic charges =     0.000000

                    Cartesian Multipole Moments
 -----------------------------------------------------------------
    Charge (ESU x 10^10)
                 0.0000
    Dipole Moment (Debye)
         X      -4.4288      Y      -0.1151      Z       0.0310
       Tot       4.4304
    Quadrupole Moments (Debye-Ang)
        XX     -65.8431     XY      16.2519     YY    -114.9437
        XZ       2.3443     YZ      -1.8287     ZZ    -105.6038

 Total job time:  44.63s(wall), 335.48s(cpu)
        *  Thank you very much for using Q-Chem.  Have a nice day.  *
