 Gaussian 16, Revision A.03,
 Gaussian 16:  ES64L-G16RevA.03 25-Dec-2016

 ----------------------------------------------
 #P UB3LYP/6-311++G(d,p) nosym opt freq SCF=YQC
 ----------------------------------------------

 -------
 Reduced
 -------
 Symbolic Z-matrix:
 Charge = -2 Multiplicity = 1

 SCF Done:  E(UB3LYP) =  -798.652148209     a.u. after   11 cycles
 SCF Done:  E(UB3LYP) =  -798.666504659     A.U. after   33 cycles
 SCF Done:  E(UB3LYP) =  -798.666504657     a.u. after    2 cycles
 SCF Done:  E(UB3LYP) =  -798.693725776     a.u. after   67 cycles
 SCF Done:  E(UB3LYP) =  -798.694877938     A.U. after   30 cycles
 SCF Done:  E(UB3LYP) =  -798.704630955     a.u. after   54 cycles
 SCF Done:  E(UB3LYP) =  -798.705152888     A.U. after   24 cycles
 SCF Done:  E(UB3LYP) =  -798.710495112     a.u. after   65 cycles
 SCF Done:  E(UB3LYP) =  -798.710747428     A.U. after   26 cycles
 SCF Done:  E(UB3LYP) =  -798.713240665     a.u. after   81 cycles
 SCF Done:  E(UB3LYP) =  -798.719852992     a.u. after   15 cycles
 SCF Done:  E(UB3LYP) =  -798.719956490     A.U. after   25 cycles
 SCF Done:  E(UB3LYP) =  -798.719869546     a.u. after    5 cycles
 SCF Done:  E(UB3LYP) =  -798.719951115     A.U. after   19 cycles
 SCF Done:  E(UB3LYP) =  -798.719907757     a.u. after    5 cycles
 SCF Done:  E(UB3LYP) =  -798.719958317     A.U. after   20 cycles
 SCF Done:  E(UB3LYP) =  -798.719956914     a.u. after    1 cycles
 SCF Done:  E(UB3LYP) =  -798.719958464     A.U. after   17 cycles
 Optimization completed.
    -- Stationary point found.
 Normal termination of Gaussian 16 at Wed Dec 27 10:48:32 2023.

 ----------------------------------------------------------------------
 #P Geom=AllCheck Guess=TCheck SCRF=Check GenChk UB3LYP/6-311++G(d,p) F
 req
 ----------------------------------------------------------------------

 Structure from the checkpoint file:  "271-an.chk"
 -------
 Reduced
 -------
 Charge = -2 Multiplicity = 1

                          Input orientation:
 ---------------------------------------------------------------------
 Center     Atomic      Atomic             Coordinates (Angstroms)
 Number     Number       Type             X           Y           Z
 ---------------------------------------------------------------------
      1          6           0       -0.986689    3.920379    0.010270
      2          6           0       -2.160877    3.205787    0.145503
      3          6           0       -2.131406    1.782824    0.128756
      4          6           0        0.273077    3.284767   -0.144116
      5          6           0        0.300766    1.832652   -0.145838
      6          6           0       -0.919686    1.130821   -0.014759
      7          6           0        1.464753    4.075219   -0.305539
      8          6           0        2.686709    3.342781   -0.463939
      9          6           0        2.715067    1.937131   -0.385560
     10          6           0        1.542295    1.120290   -0.276257
     11          8           0        1.475004    5.374533   -0.322208
     12          8           0        1.644066   -0.176918   -0.321100
     13          7           0        3.823632    4.118018   -0.750064
     14          1           0       -0.983684    5.006297    0.013206
     15          1           0       -3.109142    3.729060    0.261392
     16          1           0       -3.053975    1.214063    0.231468
     17          1           0       -0.863479    0.046208   -0.027841
     18          1           0        3.585872    5.084560   -0.534063
     19          1           0        4.671911    3.776826   -0.304875
     20          7           0        3.859901    1.106298   -0.563255
     21          6           0        5.160419    1.210883   -0.245164
     22          6           0        5.978681   -0.051432   -0.525185
     23          1           0        3.480026    0.159180   -0.704856
     24          1           0        5.379679   -0.890883   -0.888160
     25          1           0        6.497174   -0.351659    0.393004
     26          1           0        6.747303    0.179970   -1.267969
     27          8           0        5.740082    2.201585    0.234679
 ---------------------------------------------------------------------

 SCF Done:  E(UB3LYP) =  -798.719958464     a.u. after    1 cycles
 SCF Done:  E(UB3LYP) =  -798.719958464     A.U. after    2 cycles

 Alpha  occ. eigenvalues --  -18.86049 -18.79369 -18.77605 -14.10558 -14.04128
 Alpha  occ. eigenvalues --  -10.04704  -9.97208  -9.94385  -9.93501  -9.93062
 Alpha  occ. eigenvalues --   -9.93021  -9.92687  -9.92524  -9.92076  -9.91741
 Alpha  occ. eigenvalues --   -9.90409  -9.90285  -0.80368  -0.72007  -0.69330
 Alpha  occ. eigenvalues --   -0.67852  -0.62909  -0.59454  -0.53873  -0.51882
 Alpha  occ. eigenvalues --   -0.49393  -0.46682  -0.41494  -0.38356  -0.35581
 Alpha  occ. eigenvalues --   -0.32397  -0.30567  -0.28327  -0.26192  -0.25282
 Alpha  occ. eigenvalues --   -0.24245  -0.23716  -0.20757  -0.20213  -0.18893
 Alpha  occ. eigenvalues --   -0.17951  -0.17209  -0.17023  -0.16552  -0.15456
 Alpha  occ. eigenvalues --   -0.13531  -0.12460  -0.11306  -0.10378  -0.09641
 Alpha  occ. eigenvalues --   -0.08702  -0.07175  -0.05233  -0.03920  -0.03298
 Alpha  occ. eigenvalues --    0.00185   0.01394   0.02337   0.04292   0.05557
 Alpha  occ. eigenvalues --    0.13009
 Alpha virt. eigenvalues --    0.14420   0.16173   0.17819   0.17875   0.18700
 Alpha virt. eigenvalues --    0.20151   0.20981   0.21533   0.21791   0.22676
 Alpha virt. eigenvalues --    0.23404   0.24648   0.25391   0.25904   0.26283

  Beta  occ. eigenvalues --  -18.86049 -18.79369 -18.77605 -14.10558 -14.04128
  Beta  occ. eigenvalues --  -10.04704  -9.97208  -9.94385  -9.93501  -9.93062
  Beta  occ. eigenvalues --   -9.93021  -9.92687  -9.92524  -9.92076  -9.91741
  Beta  occ. eigenvalues --   -9.90409  -9.90285  -0.80368  -0.72007  -0.69330
  Beta  occ. eigenvalues --   -0.67852  -0.62909  -0.59454  -0.53873  -0.51882
  Beta  occ. eigenvalues --   -0.49393  -0.46682  -0.41494  -0.38356  -0.35581
  Beta  occ. eigenvalues --   -0.32397  -0.30567  -0.28327  -0.26192  -0.25282
  Beta  occ. eigenvalues --   -0.24245  -0.23716  -0.20757  -0.20213  -0.18893
  Beta  occ. eigenvalues --   -0.17951  -0.17209  -0.17023  -0.16552  -0.15456
  Beta  occ. eigenvalues --   -0.13531  -0.12460  -0.11306  -0.10378  -0.09641
  Beta  occ. eigenvalues --   -0.08702  -0.07175  -0.05233  -0.03920  -0.03298
  Beta  occ. eigenvalues --    0.00185   0.01394   0.02337   0.04292   0.05557
  Beta  occ. eigenvalues --    0.13009
  Beta virt. eigenvalues --    0.14420   0.16173   0.17819   0.17875   0.18700
  Beta virt. eigenvalues --    0.20151   0.20981   0.21533   0.21791   0.22676
  Beta virt. eigenvalues --    0.23404   0.24648   0.25391   0.25904   0.26283

 Mulliken charges and spin densities:
               1          2
     1  C   -0.023661   0.000000
     2  C   -0.245189   0.000000
     3  C   -0.353753   0.000000
     4  C    0.729157   0.000000
     5  C    0.189874   0.000000
     6  C   -0.063039  -0.000000
     7  C   -1.125549  -0.000000
     8  C    0.389095  -0.000000
     9  C    0.626388   0.000000
    10  C   -1.205233  -0.000000
    11  O   -0.556087   0.000000
    12  O   -0.529002   0.000000
    13  N   -0.452670   0.000000
    14  H    0.123763  -0.000000
    15  H    0.069397  -0.000000
    16  H    0.072423   0.000000
    17  H    0.119949  -0.000000
    18  H    0.253881   0.000000
    19  H    0.257036  -0.000000
    20  N   -0.038130  -0.000000
    21  C    0.003723  -0.000000
    22  C    0.090488   0.000000
    23  H    0.377818   0.000000
    24  H   -0.138082  -0.000000
    25  H   -0.137168  -0.000000
    26  H    0.026840  -0.000000
    27  O   -0.462270  -0.000000
 Sum of Mulliken charges =  -2.00000   0.00000

 Dipole moment (field-independent basis, Debye):
    X=            -18.6943    Y=            -24.0757    Z=              2.1168  Tot=             30.5548
 Quadrupole moment (field-independent basis, Debye-Ang):
   XX=           -216.7862   YY=           -223.6486   ZZ=           -116.9510
   XY=            -35.8241   XZ=              3.8596   YZ=              7.2311

  Exact polarizability:1833.235-980.641 975.255 -67.800  74.330 269.722
 Approx polarizability:2731.759********1543.466 -53.184  48.223 269.992

                      1                      2                      3
                      A                      A                      A
 Frequencies --     53.0172                68.7971               106.6042
 Red. masses --      6.1734                 3.9948                 5.6715
 Frc consts  --      0.0102                 0.0111                 0.0380
 IR Inten    --      0.9237                 3.5332                13.4515

                      4                      5                      6
                      A                      A                      A
 Frequencies --    120.8874               141.1494               145.0092
 Red. masses --      1.8932                 1.8896                 4.4495
 Frc consts  --      0.0163                 0.0222                 0.0551
 IR Inten    --      0.5787                80.0982                26.2600

                      7                      8                      9
                      A                      A                      A
 Frequencies --    186.1023               210.7694               257.4104
 Red. masses --      7.0935                 5.1759                 6.1831
 Frc consts  --      0.1447                 0.1355                 0.2414
 IR Inten    --     12.1083                 9.8296                27.4519

                     10                     11                     12
                      A                      A                      A
 Frequencies --    276.7331               305.9141               337.9449
 Red. masses --      5.6509                 4.9459                 5.1226
 Frc consts  --      0.2550                 0.2727                 0.3447
 IR Inten    --    182.6295                11.1236                 9.3407

                     13                     14                     15
                      A                      A                      A
 Frequencies --    357.0370               372.7350               388.6995
 Red. masses --      4.3086                 7.5733                 8.0018
 Frc consts  --      0.3236                 0.6199                 0.7123
 IR Inten    --     18.0529                 4.5199               149.3704

                     16                     17                     18
                      A                      A                      A
 Frequencies --    425.1252               459.3718               463.5229
 Red. masses --      7.9991                 3.5917                 4.6305
 Frc consts  --      0.8518                 0.4466                 0.5862
 IR Inten    --    589.8220               364.1258               909.9392

                     19                     20                     21
                      A                      A                      A
 Frequencies --    514.8243               527.5085               549.8976
 Red. masses --      4.7852                 3.7329                 1.4446
 Frc consts  --      0.7473                 0.6120                 0.2574
 IR Inten    --    189.7628                 2.8261               134.7009

                     22                     23                     24
                      A                      A                      A
 Frequencies --    585.4558               607.8662               657.6551
 Red. masses --      4.1012                 3.3135                 6.2988
 Frc consts  --      0.8282                 0.7214                 1.6051
 IR Inten    --    104.1045                10.4555                 3.9462

                     25                     26                     27
                      A                      A                      A
 Frequencies --    677.5771               684.2398               695.2618
 Red. masses --      4.6930                 1.9983                 4.4110
 Frc consts  --      1.2695                 0.5512                 1.2563
 IR Inten    --     22.4889                87.5838                32.6516

                     28                     29                     30
                      A                      A                      A
 Frequencies --    731.9920               740.3064               759.2873
 Red. masses --      5.2537                 2.7444                 1.8520
 Frc consts  --      1.6586                 0.8862                 0.6291
 IR Inten    --     16.2609                24.2593                 9.5732

                     31                     32                     33
                      A                      A                      A
 Frequencies --    798.6608               815.1643               841.3354
 Red. masses --      3.0492                 1.4718                 1.4136
 Frc consts  --      1.1460                 0.5762                 0.5895
 IR Inten    --     16.5021               553.2445               367.2727

                     34                     35                     36
                      A                      A                      A
 Frequencies --    869.0229               918.7352               942.4733
 Red. masses --      4.4745                 3.2226                 1.2534
 Frc consts  --      1.9909                 1.6026                 0.6560
 IR Inten    --     12.1737                54.5910                 1.4572

                     37                     38                     39
                      A                      A                      A
 Frequencies --    946.7959               985.9308              1005.5723
 Red. masses --      1.3356                 3.6633                 2.2360
 Frc consts  --      0.7054                 2.0980                 1.3321
 IR Inten    --      3.9325               357.1944               829.6953

                     40                     41                     42
                      A                      A                      A
 Frequencies --   1026.6737              1042.5158              1073.5593
 Red. masses --      1.8530                 1.6969                 3.4549
 Frc consts  --      1.1508                 1.0866                 2.3460
 IR Inten    --    132.8757                92.3367                16.9826

                     43                     44                     45
                      A                      A                      A
 Frequencies --   1101.2861              1127.6543              1159.4371
 Red. masses --      1.9188                 1.3088                 3.5895
 Frc consts  --      1.3711                 0.9806                 2.8430
 IR Inten    --     23.5526               154.0858                15.7937

                     46                     47                     48
                      A                      A                      A
 Frequencies --   1192.6539              1215.2684              1255.3394
 Red. masses --      2.1678                 2.2864                 2.9867
 Frc consts  --      1.8168                 1.9895                 2.7731
 IR Inten    --      2.6455               288.9353                 4.5975

                     49                     50                     51
                      A                      A                      A
 Frequencies --   1296.2341              1305.4838              1322.1491
 Red. masses --      2.5989                 2.0454                 3.7954
 Frc consts  --      2.5728                 2.0538                 3.9090
 IR Inten    --   5050.1604               279.4328              1086.7093

                     52                     53                     54
                      A                      A                      A
 Frequencies --   1373.7140              1409.2489              1420.7408
 Red. masses --      1.5107                 5.7021                 5.4809
 Frc consts  --      1.6797                 6.6721                 6.5182
 IR Inten    --   1819.9699               580.8836              5761.1358

                     55                     56                     57
                      A                      A                      A
 Frequencies --   1424.2809              1459.4035              1467.0167
 Red. masses --      2.6820                 2.8270                 1.0522
 Frc consts  --      3.2056                 3.5476                 1.3342
 IR Inten    --     23.9095               627.8827                52.1933

                     58                     59                     60
                      A                      A                      A
 Frequencies --   1476.1980              1493.6636              1517.4553
 Red. masses --      1.1138                 4.7186                 4.7639
 Frc consts  --      1.4301                 6.2025                 6.4631
 IR Inten    --      8.0710               336.7250                 8.9738

                     61                     62                     63
                      A                      A                      A
 Frequencies --   1551.6266              1564.4825              1580.9014
 Red. masses --      2.2813                 3.5685                 4.4201
 Frc consts  --      3.2360                 5.1461                 6.5087
 IR Inten    --   1380.3617              2289.6776                16.9666

                     64                     65                     66
                      A                      A                      A
 Frequencies --   1607.3042              1664.2693              3000.4743
 Red. masses --      1.4700                 4.6786                 1.0381
 Frc consts  --      2.2375                 7.6351                 5.5062
 IR Inten    --    588.5887               543.7177                69.1416

                     67                     68                     69
                      A                      A                      A
 Frequencies --   3060.8423              3086.7678              3087.9235
 Red. masses --      1.0956                 1.1032                 1.0825
 Frc consts  --      6.0479                 6.1930                 6.0813
 IR Inten    --    569.4812               154.5421                57.9485

                     70                     71                     72
                      A                      A                      A
 Frequencies --   3112.4181              3152.8215              3156.3580
 Red. masses --      1.0901                 1.0906                 1.0912
 Frc consts  --      6.2216                 6.3871                 6.4052
 IR Inten    --    341.8630                54.3313               268.2940

                     73                     74                     75
                      A                      A                      A
 Frequencies --   3288.3541              3424.8514              3528.7388
 Red. masses --      1.0762                 1.0454                 1.0994
 Frc consts  --      6.8565                 7.2249                 8.0655
 IR Inten    --    488.4883               179.6233               339.0957

 - Thermochemistry -
 -------------------
 Temperature   298.150 Kelvin.  Pressure   1.00000 Atm.
 Atom     1 has atomic number  6 and mass  12.00000

 Molecular mass:   230.06914 amu.
 Principal axes and moments of inertia in atomic units:
                           1         2         3
     Eigenvalues --  1962.893935553.246807414.37217
           X            0.96960   0.23818   0.05615
           Y           -0.23946   0.97075   0.01719
           Z           -0.05042  -0.03011   0.99827
 This molecule is an asymmetric top.
 Rotational symmetry number  1.
 Warning -- assumption of classical behavior for rotation
           may cause significant error
 Rotational temperatures (Kelvin)      0.04413     0.01560     0.01168
 Rotational constants (GHZ):           0.91943     0.32499     0.24341
 Zero-point vibrational energy     523728.1 (Joules/Mol)
                                  125.17402 (Kcal/Mol)
 Warning -- explicit consideration of  23 degrees of freedom as
           vibrations may cause significant error
 Vibrational temperatures:     76.28    98.98   153.38   173.93   203.08
          (Kelvin)            208.64   267.76   303.25   370.36   398.16
                              440.14   486.23   513.70   536.28   559.25
                              611.66   660.93   666.91   740.72   758.97
                              791.18   842.34   874.58   946.22   974.88
                              984.47  1000.33  1053.17  1065.14  1092.45
                             1149.09  1172.84  1210.49  1250.33  1321.86
                             1356.01  1362.23  1418.53  1446.79  1477.15
                             1499.95  1544.61  1584.51  1622.44  1668.17
                             1715.96  1748.50  1806.15  1864.99  1878.30
                             1902.28  1976.47  2027.59  2044.13  2049.22
                             2099.76  2110.71  2123.92  2149.05  2183.28
                             2232.44  2250.94  2274.56  2312.55  2394.51
                             4317.01  4403.87  4441.17  4442.83  4478.08
                             4536.21  4541.30  4731.21  4927.60  5077.07

 Zero-point correction=                           0.199478 (Hartree/Particle)
 Thermal correction to Energy=                    0.213823
 Thermal correction to Enthalpy=                  0.214768
 Thermal correction to Gibbs Free Energy=         0.158524
 Sum of electronic and zero-point Energies=           -798.520481
 Sum of electronic and thermal Energies=              -798.506135
 Sum of electronic and thermal Enthalpies=            -798.505191
 Sum of electronic and thermal Free Energies=         -798.561434

                     E (Thermal)             CV                S
                      KCal/Mol        Cal/Mol-Kelvin    Cal/Mol-Kelvin
 Total                  134.176             56.415            118.374
 Electronic               0.000              0.000              0.000
 Translational            0.889              2.981             42.202
 Rotational               0.889              2.981             32.758
 Vibrational            132.399             50.453             43.415
 Vibration     1          0.596              1.976              4.702
 Vibration     2          0.598              1.969              4.187
 Vibration     3          0.605              1.944              3.330
 Vibration     4          0.609              1.932              3.086
 Vibration     5          0.615              1.912              2.788
 Vibration     6          0.616              1.908              2.737
 Vibration     7          0.632              1.859              2.266
 Vibration     8          0.643              1.824              2.037
 Vibration     9          0.667              1.750              1.679
 Vibration    10          0.678              1.716              1.554
 Vibration    11          0.696              1.662              1.384
 Vibration    12          0.718              1.600              1.222
 Vibration    13          0.732              1.561              1.135
 Vibration    14          0.744              1.528              1.069
 Vibration    15          0.757              1.494              1.005
 Vibration    16          0.787              1.416              0.875
 Vibration    17          0.817              1.340              0.768
 Vibration    18          0.821              1.331              0.756
 Vibration    19          0.870              1.217              0.622
 Vibration    20          0.882              1.189              0.593
 Vibration    21          0.905              1.140              0.544
 Vibration    22          0.942              1.063              0.475
 Vibration    23          0.967              1.015              0.436

 Optimization completed.
    -- Stationary point found.
 Normal termination of Gaussian 16 at Wed Dec 27 11:32:44 2023.
