 Q-Chem 5.4, Q-Chem, Inc., Pleasanton, CA (2021)
 Q-Chem 5.4.0 for Intel X86 EM64T Linux

User input:
--------------------------------------------------------------
$molecule
0 1
C                 -1.4503660000      0.2148860000     -0.1893600000
C                 -0.9964210000     -1.0393270000     -0.3741520000
C                  0.4172610000     -1.3734450000     -0.0217330000
C                  1.3562800000     -0.2834760000      0.3838580000
C                  0.9636660000      1.0015230000      0.2947770000
C                 -0.4807920000      1.3201680000      0.0798220000
O                 -0.8676610000      2.4802790000      0.1238620000
O                  0.8039660000     -2.5336410000     -0.0650190000
C                  1.9161270000      2.1623160000      0.4261020000
C                  2.7274520000     -0.6923320000      0.8578220000
C                  3.6848110000      0.4744910000      1.0088710000
C                  3.3029710000      1.7540580000      0.8852450000
C                 -2.9110360000      0.5790520000     -0.2645580000
C                 -3.7859850000     -0.5460990000     -0.7834950000
C                 -3.3275560000     -1.7873440000     -1.0015930000
C                 -1.8590500000     -2.1550220000     -0.9061900000
H                  1.4921580000      2.8718590000      1.1479940000
C                  2.0073590000      2.9145150000     -0.9323270000
H                  3.1405270000     -1.4055600000      0.1332520000
C                  2.6035560000     -1.4548460000      2.2078450000
C                  5.1057680000      0.0837210000      1.3610170000
C                  4.2465360000      2.9099320000      1.1486590000
C                 -5.2391860000     -0.1712180000     -0.9918990000
C                 -4.2381440000     -2.9264290000     -1.4128630000
C                 -1.3319320000     -2.5981410000     -2.3008780000
H                  2.4208290000      2.2554140000     -1.7008160000
H                  2.6603710000      3.7850620000     -0.8447600000
H                  1.0257210000      3.2639890000     -1.2500830000
H                  2.1901000000     -0.7956740000      2.9762810000
H                  3.5838030000     -1.7968160000      2.5456730000
H                  1.9625390000     -2.3293690000      2.1029730000
H                  5.3434940000     -0.9049140000      0.9577950000
H                  5.2653350000      0.0319930000      2.4444420000
H                  5.8357500000      0.7858030000      0.9562570000
H                  4.9696520000      2.6779200000      1.9315340000
H                  3.6895600000      3.7951660000      1.4690190000
H                  4.8115420000      3.1963480000      0.2538580000
H                 -5.3304700000      0.8905570000     -1.2384640000
H                 -5.8446290000     -0.3423710000     -0.0940790000
H                 -5.6948290000     -0.7360720000     -1.8061200000
H                 -5.2347910000     -2.8304390000     -0.9803020000
H                 -3.8280870000     -3.8848600000     -1.0815340000
H                 -4.3568930000     -2.9905120000     -2.5008590000
C                 -3.4057900000      1.0311900000      1.1390640000
H                 -3.0123940000      1.4485940000     -0.9263210000
H                 -1.7468750000     -3.0203770000     -0.2406730000
H                 -1.4126980000     -1.7727360000     -3.0137120000
H                 -1.9186980000     -3.4355700000     -2.6834740000
H                 -0.2926200000     -2.9187610000     -2.2399120000
H                 -3.3246940000      0.2051450000      1.8511190000
H                 -4.4521190000      1.3398130000      1.0950900000
H                 -2.8231910000      1.8766760000      1.5030090000
$end
$rem
MAX_SCF_CYCLES=200
BASIS  =  6-311++G(d,p)
GUI  =  2
JOB_TYPE  =  SP
METHOD  =  B3LYP
SOLVENT_METHOD = COSMO
$end
$solvent
dielectric 37.219
opticaldielectric 1.43
$end

--------------------------------------------------------------

             Standard Nuclear Orientation (Angstroms)
    I     Atom           X                Y                Z
 ----------------------------------------------------------------
    1      C       1.2904213601    -0.6693886361     0.0718823888
    2      C       1.2903969706     0.6697476574    -0.0694625174
    3      C      -0.0001469308     1.4206641316     0.0009056137
    4      C      -1.2905670615     0.6695300440     0.0709529633
    5      C      -1.2903913736    -0.6696577942    -0.0700417556
    6      C       0.0000757275    -1.4205263572     0.0013043293
    7      O       0.0001793192    -2.6442356500     0.0017872360
    8      O      -0.0002553454     2.6443753294     0.0011989866
    9      C      -2.5483028652    -1.4739213023    -0.2766512659
   10      C      -2.5488140265     1.4735427986     0.2766124418
   11      C      -3.8178016764     0.6644072413     0.0874089458
   12      C      -3.8176297833    -0.6649954426    -0.0888447219
   13      C       2.5485909640    -1.4735172436     0.2773450229
   14      C       3.8176635388    -0.6647442251     0.0872473120
   15      C       3.8176490280     0.6647005875    -0.0887911097
   16      C       2.5484246017     1.4739150974    -0.2759807155
   17      H      -2.5426622146    -2.3063210460     0.4384766186
   18      C      -2.5299597727    -2.1098548794    -1.6960553585
   19      H      -2.5426488606     2.3060893955    -0.4383385881
   20      C      -2.5318877116     2.1092342847     1.6961016999
   21      C      -5.0980754017     1.4713437665     0.1621045050
   22      C      -5.0976803998    -1.4721121063    -0.1648687891
   23      C       5.0978278096    -1.4719259539     0.1607199893
   24      C       5.0978545444     1.4715873493    -0.1651831601
   25      C       2.5300421300     2.1102816509    -1.6951572886
   26      H      -2.5297463945    -1.3269364094    -2.4595902536
   27      H      -3.4141089708    -2.7319982200    -1.8482479673
   28      H      -1.6513179132    -2.7400478055    -1.8285675240
   29      H      -2.5321224572     1.3262548118     2.4595744012
   30      H      -3.4163223917     2.7311580683     1.8475662952
   31      H      -1.6534582588     2.7395539606     1.8293316169
   32      H      -4.9251411632     2.4981474134    -0.1729608849
   33      H      -5.4909958415     1.5322082136     1.1837973117
   34      H      -5.8843664054     1.0507824617    -0.4659863794
   35      H      -5.8847392025    -1.0515429949     0.4622513324
   36      H      -4.9249583899    -2.4988062768     0.1706281804
   37      H      -5.4894020665    -1.5332525938    -1.1869992658
   38      H       4.9243655329    -2.4986508839    -0.1743023608
   39      H       5.4917330788    -1.5329507791     1.1820181523
   40      H       5.8834749741    -1.0513561560    -0.4681726881
   41      H       5.8853048840     1.0502479488     0.4609345712
   42      H       4.9256598404     2.4980383601     0.1713624352
   43      H       5.4887771584     1.5335834529    -1.1875721492
   44      C       2.5322409759    -2.1085265778     1.6971551630
   45      H       2.5418837389    -2.3063778213    -0.4372214703
   46      H       2.5429879299     2.3060902127     0.4394145627
   47      H       2.5298078173     1.3275933663    -2.4589294186
   48      H       3.4142043398     2.7324692455    -1.8471479192
   49      H       1.6513899741     2.7404906054    -1.8274090696
   50      H       2.5325494077    -1.3250994847     2.4601696589
   51      H       3.4168626901    -2.7301838193     1.8487234379
   52      H       1.6540134894    -2.7390052054     1.8310854289
 ----------------------------------------------------------------

    8   -1005.8964042984      4.28e-06  Convergence criterion met
 Total energy in the final basis set =    -1005.8964042984
    3   -1005.9071229967      7.46e-06  Convergence criterion met
 Total energy in the final basis set =    -1005.9071229967

                    Orbital Energies (a.u.)
 --------------------------------------------------------------

 Alpha MOs
 -- Occupied --
-19.1342 -19.1342 -10.2795 -10.2795 -10.2049 -10.2048 -10.2041 -10.2041
-10.1886 -10.1886 -10.1886 -10.1886 -10.1734 -10.1734 -10.1726 -10.1726
-10.1601 -10.1601 -10.1601 -10.1601 -10.1597 -10.1597 -10.1597 -10.1597
 -1.0678  -1.0658  -0.8807  -0.8652  -0.8190  -0.7979  -0.7965  -0.7877
 -0.7380  -0.7180  -0.7147  -0.7115  -0.6862  -0.6773  -0.6655  -0.6567
 -0.6234  -0.6132  -0.5934  -0.5868  -0.5715  -0.5345  -0.5102  -0.5001
 -0.4793  -0.4768  -0.4726  -0.4675  -0.4649  -0.4560  -0.4393  -0.4375
 -0.4265  -0.4264  -0.4245  -0.4232  -0.4142  -0.4121  -0.4029  -0.4002
 -0.3962  -0.3929  -0.3928  -0.3918  -0.3851  -0.3797  -0.3737  -0.3734
 -0.3714  -0.3662  -0.3615  -0.3597  -0.3589  -0.3569  -0.3391  -0.3347
 -0.3253  -0.3235  -0.2933  -0.2855  -0.2665  -0.2620  -0.2314  -0.2310

          Ground-State Mulliken Net Atomic Charges

     Atom                 Charge (a.u.)
  ----------------------------------------
      1 C                     0.419432
      2 C                     0.417059
      3 C                    -0.883201
      4 C                     0.420065
      5 C                     0.418609
      6 C                    -0.887278
      7 O                    -0.231133
      8 O                    -0.231221
      9 C                     0.162142
     10 C                     0.162169
     11 C                     0.192565
     12 C                     0.190849
     13 C                     0.163068
     14 C                     0.192556
     15 C                     0.192451
     16 C                     0.161578
     17 H                     0.243376
     18 C                    -0.852231
     19 H                     0.243273
     20 C                    -0.852207
     21 C                    -0.687493
     22 C                    -0.686435
     23 C                    -0.686961
     24 C                    -0.687467
     25 C                    -0.852422
     26 H                     0.168396
     27 H                     0.172425
     28 H                     0.188336
     29 H                     0.168365
     30 H                     0.172408
     31 H                     0.188369
     32 H                     0.173933
     33 H                     0.207087
     34 H                     0.170789
     35 H                     0.170819
     36 H                     0.174007
     37 H                     0.207083
     38 H                     0.174068
     39 H                     0.207169
     40 H                     0.170744
     41 H                     0.170770
     42 H                     0.174167
     43 H                     0.206996
     44 C                    -0.851534
     45 H                     0.243222
     46 H                     0.243360
     47 H                     0.168451
     48 H                     0.172247
     49 H                     0.188238
     50 H                     0.168268
     51 H                     0.172314
     52 H                     0.188353
  ----------------------------------------
  Sum of atomic charges =    -0.000008

                    Cartesian Multipole Moments
 -----------------------------------------------------------------
    Charge (ESU x 10^10)
                -0.0000
    Dipole Moment (Debye)
         X      -0.0006      Y       0.0000      Z      -0.0029
       Tot       0.0029
    Quadrupole Moments (Debye-Ang)
        XX    -123.3093     XY       0.0008     YY    -159.2961
        XZ       0.0041     YZ       0.0012     ZZ    -146.2969

 Total job time:  209.30s(wall), 1607.99s(cpu)
        *  Thank you very much for using Q-Chem.  Have a nice day.  *
