 Gaussian 16, Revision A.03,
 Gaussian 16:  ES64L-G16RevA.03 25-Dec-2016

 ----------------------------------------------------------------
 #P UB3LYP/6-311++G(d,p) SCRF=(PCM,Solvent=n,n-DiMethylFormamide)
 ----------------------------------------------------------------

 ------------------
 Quinone PCM in DMF
 ------------------
 Symbolic Z-matrix:
 Charge =  0 Multiplicity = 1

                         Standard orientation:
 ---------------------------------------------------------------------
 Center     Atomic      Atomic             Coordinates (Angstroms)
 Number     Number       Type             X           Y           Z
 ---------------------------------------------------------------------
      1          6           0       -5.012925    0.762896   -0.703966
      2          6           0       -5.719566   -0.428757   -0.587272
      3          6           0       -5.124609   -1.536930    0.037645
      4          6           0       -3.716998    0.859101   -0.202156
      5          6           0       -3.124544   -0.243867    0.420694
      6          6           0       -3.831301   -1.438626    0.538374
      7          6           0       -2.965654    2.138564   -0.333145
      8          6           0       -1.573567    2.211267    0.206499
      9          6           0       -1.003553    1.149433    0.832419
     10          6           0       -1.739738   -0.147830    0.963823
     11          8           0       -3.472976    3.110873   -0.869796
     12          8           0       -1.217681   -1.109692    1.505195
     13          6           0       -0.903493    3.540129   -0.000496
     14          6           0        0.391838    1.151103    1.403556
     15          6           0        1.455964    0.689523    0.384448
     16          6           0        2.866168    0.650796    0.982478
     17          6           0        3.936029    0.194240   -0.015868
     18          6           0        5.348827    0.152772    0.577702
     19          6           0        6.419426   -0.306123   -0.418754
     20          6           0        7.832387   -0.349391    0.174137
     21          6           0        8.903084   -0.808974   -0.821631
     22          6           0       10.316573   -0.853137   -0.229976
     23          6           0       11.378972   -1.313874   -1.232216
     24         17           0       -5.976800   -3.047817    0.202852
     25         17           0       -7.338105   -0.512062   -1.227124
     26          1           0       -5.461845    1.622810   -1.183699
     27          1           0       -3.364266   -2.286513    1.022078
     28          1           0       -0.953115    3.823906   -1.054573
     29          1           0        0.136950    3.536099    0.314864
     30          1           0       -1.437294    4.323453    0.546252
     31          1           0        0.412903    0.471020    2.257560
     32          1           0        0.646398    2.146730    1.773265
     33          1           0        1.442264    1.357878   -0.484715
     34          1           0        1.187330   -0.306419    0.017134
     35          1           0        2.870035   -0.019618    1.850847
     36          1           0        3.127513    1.646596    1.363877
     37          1           0        3.928891    0.863088   -0.886280
     38          1           0        3.673649   -0.801471   -0.395437
     39          1           0        5.355154   -0.515317    1.448553
     40          1           0        5.611274    1.148779    0.957470
     41          1           0        6.413102    0.362054   -1.289738
     42          1           0        6.156236   -1.301755   -0.798713
     43          1           0        7.838456   -1.017443    1.045201
     44          1           0        8.095778    0.646329    0.554111
     45          1           0        8.898059   -0.141228   -1.693177
     46          1           0        8.640524   -1.804884   -1.201965
     47          1           0       10.322178   -1.520618    0.640410
     48          1           0       10.579779    0.141873    0.149322
     49          1           0       11.162368   -2.320637   -1.603447
     50          1           0       12.374192   -1.334516   -0.779364
     51          1           0       11.422210   -0.645604   -2.098169
 ---------------------------------------------------------------------

 SCF Done:  E(UB3LYP) =  -1887.08312334     A.U. after   15 cycles

 The electronic state is 1-A.
 Alpha  occ. eigenvalues -- -101.57801-101.57798 -19.13958 -19.13935 -10.28851
 Alpha  occ. eigenvalues --  -10.28780 -10.27468 -10.27418 -10.22033 -10.21980
 Alpha  occ. eigenvalues --  -10.21895 -10.21736 -10.21732 -10.21630 -10.17922
 Alpha  occ. eigenvalues --  -10.17689 -10.17166 -10.16413 -10.16169 -10.16153
 Alpha  occ. eigenvalues --  -10.16025 -10.15970 -10.15945 -10.15923 -10.15529
 Alpha  occ. eigenvalues --   -9.49263  -9.49259  -7.25740  -7.25737  -7.24753
 Alpha  occ. eigenvalues --   -7.24750  -7.24682  -7.24678  -1.07410  -1.07220
 Alpha  occ. eigenvalues --   -0.94191  -0.88253  -0.88247  -0.85213  -0.81393
 Alpha  occ. eigenvalues --   -0.80045  -0.78642  -0.78113  -0.77255  -0.75008
 Alpha  occ. eigenvalues --   -0.72431  -0.69860  -0.68422  -0.66342  -0.64667
 Alpha  occ. eigenvalues --   -0.62210  -0.60462  -0.59221  -0.58296  -0.57521
 Alpha  occ. eigenvalues --   -0.57279  -0.55825  -0.52399  -0.52240  -0.49548
 Alpha  occ. eigenvalues --   -0.48524  -0.47555  -0.47199  -0.46988  -0.46850
 Alpha  occ. eigenvalues --   -0.46660  -0.44909  -0.44220  -0.43873  -0.43388
 Alpha  occ. eigenvalues --   -0.43128  -0.42897  -0.42280  -0.41930  -0.41192
 Alpha  occ. eigenvalues --   -0.40827  -0.40237  -0.39835  -0.39664  -0.38819
 Alpha  occ. eigenvalues --   -0.38350  -0.36942  -0.36744  -0.36108  -0.35313
 Alpha  occ. eigenvalues --   -0.35004  -0.34787  -0.34490  -0.34046  -0.33084
 Alpha  occ. eigenvalues --   -0.33027  -0.32823  -0.32376  -0.32179  -0.32003
 Alpha  occ. eigenvalues --   -0.30518  -0.29558  -0.28786  -0.28561  -0.27848
 Alpha  occ. eigenvalues --   -0.27004
 Alpha virt. eigenvalues --   -0.12953  -0.07080  -0.04165  -0.02151  -0.00864
 Alpha virt. eigenvalues --   -0.00361   0.00243   0.00508   0.00624   0.01189
 Alpha virt. eigenvalues --    0.01347   0.01586   0.01793   0.02147   0.02336

  Beta  occ. eigenvalues -- -101.57801-101.57798 -19.13958 -19.13935 -10.28851
  Beta  occ. eigenvalues --  -10.28780 -10.27468 -10.27418 -10.22033 -10.21980
  Beta  occ. eigenvalues --  -10.21895 -10.21736 -10.21732 -10.21630 -10.17922
  Beta  occ. eigenvalues --  -10.17689 -10.17166 -10.16413 -10.16169 -10.16153
  Beta  occ. eigenvalues --  -10.16025 -10.15970 -10.15945 -10.15923 -10.15529
  Beta  occ. eigenvalues --   -9.49263  -9.49259  -7.25740  -7.25737  -7.24753
  Beta  occ. eigenvalues --   -7.24750  -7.24682  -7.24678  -1.07410  -1.07220
  Beta  occ. eigenvalues --   -0.94191  -0.88253  -0.88247  -0.85213  -0.81393
  Beta  occ. eigenvalues --   -0.80045  -0.78642  -0.78113  -0.77255  -0.75008
  Beta  occ. eigenvalues --   -0.72431  -0.69860  -0.68422  -0.66342  -0.64667
  Beta  occ. eigenvalues --   -0.62210  -0.60462  -0.59221  -0.58296  -0.57521
  Beta  occ. eigenvalues --   -0.57279  -0.55825  -0.52399  -0.52240  -0.49548
  Beta  occ. eigenvalues --   -0.48524  -0.47555  -0.47199  -0.46988  -0.46850
  Beta  occ. eigenvalues --   -0.46660  -0.44909  -0.44220  -0.43873  -0.43388
  Beta  occ. eigenvalues --   -0.43128  -0.42897  -0.42280  -0.41930  -0.41192
  Beta  occ. eigenvalues --   -0.40827  -0.40237  -0.39835  -0.39664  -0.38819
  Beta  occ. eigenvalues --   -0.38350  -0.36942  -0.36744  -0.36108  -0.35313
  Beta  occ. eigenvalues --   -0.35004  -0.34787  -0.34490  -0.34046  -0.33084
  Beta  occ. eigenvalues --   -0.33027  -0.32823  -0.32376  -0.32179  -0.32003
  Beta  occ. eigenvalues --   -0.30518  -0.29558  -0.28786  -0.28561  -0.27848
  Beta  occ. eigenvalues --   -0.27004
  Beta virt. eigenvalues --   -0.12953  -0.07080  -0.04165  -0.02151  -0.00864
  Beta virt. eigenvalues --   -0.00361   0.00243   0.00508   0.00624   0.01189
  Beta virt. eigenvalues --    0.01347   0.01586   0.01793   0.02147   0.02336

 Mulliken charges and spin densities:
               1          2
     1  C   -0.372591  -0.000000
     2  C    0.361181   0.000000
     3  C    0.226702   0.000000
     4  C   -0.525976   0.000000
     5  C   -0.290513  -0.000000
     6  C   -0.191019  -0.000000
     7  C   -0.257726  -0.000000
     8  C    0.314824   0.000000
     9  C    0.603291  -0.000000
    10  C   -0.863925   0.000000
    11  O   -0.273415   0.000000
    12  O   -0.244194  -0.000000
    13  C   -0.358062   0.000000
    14  C   -0.487110   0.000000
    15  C   -0.894385   0.000000
    16  C   -0.299830   0.000000
    17  C    0.025434   0.000000
    18  C    0.073212  -0.000000
    19  C   -0.012368  -0.000000
    20  C   -0.237397  -0.000000
    21  C   -0.455179   0.000000
    22  C   -0.280313  -0.000000
    23  C   -0.691897  -0.000000
    24  Cl   0.573225   0.000000
    25  Cl   0.547362  -0.000000
    26  H    0.227596   0.000000
    27  H    0.231511   0.000000
    28  H    0.191429  -0.000000
    29  H    0.142356   0.000000
    30  H    0.209847  -0.000000
    31  H    0.224965  -0.000000
    32  H    0.207901  -0.000000
    33  H    0.145056   0.000000
    34  H    0.201258   0.000000
    35  H    0.123171  -0.000000
    36  H    0.133084  -0.000000
    37  H    0.132053  -0.000000
    38  H    0.126626  -0.000000
    39  H    0.132323  -0.000000
    40  H    0.130321  -0.000000
    41  H    0.130529  -0.000000
    42  H    0.130271  -0.000000
    43  H    0.126723   0.000000
    44  H    0.126764   0.000000
    45  H    0.123450   0.000000
    46  H    0.123765   0.000000
    47  H    0.131078   0.000000
    48  H    0.131014   0.000000
    49  H    0.140035   0.000000
    50  H    0.147524   0.000000
    51  H    0.140019   0.000000
 Sum of Mulliken charges =  -0.00000   0.00000

 Dipole moment (field-independent basis, Debye):
    X=              2.7345    Y=              1.4832    Z=              0.4143  Tot=              3.1383
 Quadrupole moment (field-independent basis, Debye-Ang):
   XX=           -181.2343   YY=           -172.0041   ZZ=           -170.7129
   XY=              5.1791   XZ=             -2.3040   YZ=              5.4531

 Normal termination of Gaussian 16 at Sun Jan 21 08:05:13 2024.
