 Gaussian 16, Revision A.03,
 Gaussian 16:  ES64L-G16RevA.03 25-Dec-2016

 ----------------------------------------------------------------------
 #P UB3LYP/6-311++G(d,p) nosym opt freq SCRF=(PCM,Solvent=n,n-DiMethylF
 ormamide)
 ----------------------------------------------------------------------

 -------
 Radical
 -------
 Symbolic Z-matrix:
 Charge = -1 Multiplicity = 2

 SCF Done:  E(UB3LYP) =  -1029.46528117     A.U. after   19 cycles
 SCF Done:  E(UB3LYP) =  -1029.46537761     A.U. after   13 cycles
 SCF Done:  E(UB3LYP) =  -1029.46538292     A.U. after   13 cycles
 SCF Done:  E(UB3LYP) =  -1029.46538923     A.U. after   13 cycles
 SCF Done:  E(UB3LYP) =  -1029.46539112     A.U. after   11 cycles
 SCF Done:  E(UB3LYP) =  -1029.46539128     A.U. after   10 cycles
 Optimization completed.
    -- Stationary point found.
 Normal termination of Gaussian 16 at Sat Feb 10 23:04:20 2024.

 ----------------------------------------------------------------------
 #P Geom=AllCheck Guess=TCheck SCRF=Check GenChk UB3LYP/6-311++G(d,p) F
 req
 ----------------------------------------------------------------------

 Structure from the checkpoint file:  "206-rad.chk"
 -------
 Radical
 -------
 Charge = -1 Multiplicity = 2

                          Input orientation:
 ---------------------------------------------------------------------
 Center     Atomic      Atomic             Coordinates (Angstroms)
 Number     Number       Type             X           Y           Z
 ---------------------------------------------------------------------
      1          6           0       -4.557348    0.890177    0.346566
      2          6           0       -3.200668    0.258476    0.180115
      3          6           0       -3.063205   -1.114976   -0.059313
      4          6           0       -1.818524   -1.713810   -0.214511
      5          8           0       -1.764878   -3.051401   -0.444226
      6          6           0       -0.635363   -0.932623   -0.132268
      7          6           0        0.657882   -1.541262   -0.290857
      8          8           0        0.760771   -2.819634   -0.512922
      9          6           0        1.835952   -0.719507   -0.200805
     10          6           0        3.129556   -1.292413   -0.352515
     11          8           0        3.287910   -2.621216   -0.584838
     12          6           0        4.261135   -0.490428   -0.263752
     13          6           0        4.147303    0.882769   -0.025873
     14          6           0        2.900934    1.477996    0.127620
     15          8           0        2.840805    2.815368    0.357186
     16          6           0        1.718504    0.689763    0.043569
     17          6           0        0.423370    1.296982    0.201679
     18          8           0        0.319642    2.576266    0.423685
     19          6           0       -0.756023    0.475065    0.112087
     20          6           0       -2.047726    1.047080    0.264545
     21          8           0       -2.200107    2.377083    0.497037
     22          1           0       -4.726960    1.668940   -0.403341
     23          1           0       -4.653076    1.371744    1.324645
     24          1           0       -5.347770    0.144069    0.252127
     25          1           0       -3.946510   -1.740682   -0.127847
     26          1           0       -0.795504   -3.269156   -0.522955
     27          1           0        2.365829   -2.999210   -0.610448
     28          1           0        5.236222   -0.948351   -0.382471
     29          1           0        5.033301    1.503278    0.042291
     30          1           0        1.870002    3.028677    0.434626
     31          1           0       -1.275454    2.750935    0.521161
 ---------------------------------------------------------------------

 SCF Done:  E(UB3LYP) =  -1029.46539128     A.U. after    1 cycles

 Alpha  occ. eigenvalues --  -19.13622 -19.13597 -19.13573 -19.13531 -19.10476
 Alpha  occ. eigenvalues --  -19.10465 -10.24611 -10.24572 -10.23729 -10.23718
 Alpha  occ. eigenvalues --  -10.23695 -10.23418 -10.18632 -10.18582 -10.18563
 Alpha  occ. eigenvalues --  -10.18547 -10.18384 -10.17535 -10.17482 -10.17207
 Alpha  occ. eigenvalues --  -10.16536  -1.06339  -1.06157  -1.05346  -1.05214
 Alpha  occ. eigenvalues --   -1.01079  -1.00937  -0.86992  -0.85074  -0.80551
 Alpha  occ. eigenvalues --   -0.76648  -0.75252  -0.73775  -0.70771  -0.67833
 Alpha  occ. eigenvalues --   -0.65380  -0.63208  -0.60715  -0.59572  -0.55680
 Alpha  occ. eigenvalues --   -0.53309  -0.52797  -0.52111  -0.51778  -0.51687
 Alpha  occ. eigenvalues --   -0.47581  -0.45675  -0.45377  -0.44921  -0.43619
 Alpha  occ. eigenvalues --   -0.43458  -0.43137  -0.41637  -0.41500  -0.41259
 Alpha  occ. eigenvalues --   -0.41190  -0.40603  -0.40435  -0.39151  -0.37804
 Alpha  occ. eigenvalues --   -0.37658  -0.36983  -0.36883  -0.36754  -0.35734
 Alpha  occ. eigenvalues --   -0.35047  -0.31757  -0.30718  -0.27752  -0.27613
 Alpha  occ. eigenvalues --   -0.26101  -0.25468  -0.23251  -0.21037  -0.15021
 Alpha virt. eigenvalues --   -0.05012  -0.03036  -0.00370   0.00468   0.00946
 Alpha virt. eigenvalues --    0.01532   0.01710   0.02307   0.03350   0.03703
 Alpha virt. eigenvalues --    0.03915   0.04155   0.04802   0.05145   0.06017

  Beta  occ. eigenvalues --  -19.13563 -19.13543 -19.13514 -19.13467 -19.10101
  Beta  occ. eigenvalues --  -19.10093 -10.24390 -10.24334 -10.23674 -10.23654
  Beta  occ. eigenvalues --  -10.23629 -10.23332 -10.18638 -10.18581 -10.18580
  Beta  occ. eigenvalues --  -10.18443 -10.18402 -10.17433 -10.17378 -10.17128
  Beta  occ. eigenvalues --  -10.16542  -1.06115  -1.05935  -1.05225  -1.05091
  Beta  occ. eigenvalues --   -1.00491  -1.00328  -0.86756  -0.84890  -0.80213
  Beta  occ. eigenvalues --   -0.76491  -0.74890  -0.73523  -0.70533  -0.67352
  Beta  occ. eigenvalues --   -0.65179  -0.63015  -0.60611  -0.59429  -0.55456
  Beta  occ. eigenvalues --   -0.53177  -0.52671  -0.52036  -0.51580  -0.51572
  Beta  occ. eigenvalues --   -0.47407  -0.45499  -0.44774  -0.44652  -0.43285
  Beta  occ. eigenvalues --   -0.43227  -0.42706  -0.41414  -0.41159  -0.41091
  Beta  occ. eigenvalues --   -0.40855  -0.40342  -0.40061  -0.38674  -0.37742
  Beta  occ. eigenvalues --   -0.36913  -0.36764  -0.36651  -0.35627  -0.35421
  Beta  occ. eigenvalues --   -0.34931  -0.30883  -0.30270  -0.27461  -0.26319
  Beta  occ. eigenvalues --   -0.25830  -0.25098  -0.21935  -0.20165
  Beta virt. eigenvalues --   -0.10066  -0.03494  -0.02109  -0.00350   0.00480
  Beta virt. eigenvalues --    0.00971   0.01729   0.02068   0.02317   0.03503
  Beta virt. eigenvalues --    0.03715   0.03935   0.04180   0.05120   0.05737

 Mulliken charges and spin densities:
               1          2
     1  C   -0.138790   0.002766
     2  C    0.891177   0.074644
     3  C   -0.810236   0.044875
     4  C   -0.383187   0.057758
     5  O   -0.405005   0.018299
     6  C    0.576418  -0.020424
     7  C   -0.531259   0.126074
     8  O   -0.552819   0.126263
     9  C    0.413699  -0.005173
    10  C   -0.347046   0.048339
    11  O   -0.408660   0.017300
    12  C   -0.100336   0.072720
    13  C   -0.143094   0.065648
    14  C   -0.304600   0.056741
    15  O   -0.413611   0.018310
    16  C    0.476700  -0.008164
    17  C   -0.453266   0.136469
    18  O   -0.565150   0.132619
    19  C    0.172725  -0.037167
    20  C   -0.238204   0.071438
    21  O   -0.418655   0.021365
    22  H    0.179299   0.003222
    23  H    0.179390   0.003247
    24  H    0.170104   0.000045
    25  H    0.164126  -0.005459
    26  H    0.390443  -0.002294
    27  H    0.390681  -0.002298
    28  H    0.199958  -0.006468
    29  H    0.199378  -0.006042
    30  H    0.392326  -0.002372
    31  H    0.417492  -0.002281
 Sum of Mulliken charges =  -1.00000   1.00000

 Dipole moment (field-independent basis, Debye):
    X=             -3.5629    Y=              0.8743    Z=              0.3038  Tot=              3.6811
 Quadrupole moment (field-independent basis, Debye-Ang):
   XX=           -143.0455   YY=           -165.4273   ZZ=           -127.8317
   XY=              0.8143   XZ=              0.8328   YZ=             -6.6212

  Exact polarizability: 582.242   6.960 378.799 -17.473  39.763 151.141
 Approx polarizability: 607.186   4.743 463.960 -17.888  50.295 176.223

                      1                      2                      3
                      A                      A                      A
 Frequencies --     48.2714                65.5838               107.7618
 Red. masses --      5.5257                 8.2075                 1.1669
 Frc consts  --      0.0076                 0.0208                 0.0080
 IR Inten    --      2.4267                 0.0483                 0.0432

                      4                      5                      6
                      A                      A                      A
 Frequencies --    110.6916               125.7370               144.8362
 Red. masses --      6.6985                 5.1420                 7.6043
 Frc consts  --      0.0484                 0.0479                 0.0940
 IR Inten    --      0.1140                 0.1154                 0.9877

                      7                      8                      9
                      A                      A                      A
 Frequencies --    170.2653               196.0932               209.5083
 Red. masses --      7.7138                 4.9802                 5.5943
 Frc consts  --      0.1318                 0.1128                 0.1447
 IR Inten    --      0.6662                 0.0647                 0.7538

                     10                     11                     12
                      A                      A                      A
 Frequencies --    275.9183               278.5205               308.9774
 Red. masses --      5.6326                 4.1644                 6.9301
 Frc consts  --      0.2526                 0.1903                 0.3898
 IR Inten    --      1.3082                 4.2025                 0.4595

                     13                     14                     15
                      A                      A                      A
 Frequencies --    319.4152               372.6980               385.6715
 Red. masses --      5.1931                 6.2808                 7.9807
 Frc consts  --      0.3122                 0.5140                 0.6994
 IR Inten    --      3.5919                 0.0253                 0.8634

                     16                     17                     18
                      A                      A                      A
 Frequencies --    400.1710               418.9884               420.8805
 Red. masses --      5.5004                 6.2402                 7.2406
 Frc consts  --      0.5190                 0.6454                 0.7557
 IR Inten    --     24.7028                 1.7243                25.7898

                     19                     20                     21
                      A                      A                      A
 Frequencies --    434.5160               467.3706               470.6637
 Red. masses --      8.5655                10.9946                10.4052
 Frc consts  --      0.9528                 1.4150                 1.3581
 IR Inten    --      3.3270                45.2132                 0.5432

                     22                     23                     24
                      A                      A                      A
 Frequencies --    479.0545               487.9365               501.6771
 Red. masses --     10.4993                 9.2398                 4.8206
 Frc consts  --      1.4196                 1.2961                 0.7148
 IR Inten    --     70.5695                74.6219                 4.2874

                     25                     26                     27
                      A                      A                      A
 Frequencies --    537.0055               544.9721               564.2351
 Red. masses --      5.6874                 8.4845                 4.5593
 Frc consts  --      0.9663                 1.4846                 0.8552
 IR Inten    --      3.0792                 3.8391                 7.1662

                     28                     29                     30
                      A                      A                      A
 Frequencies --    616.2023               631.8419               658.8779
 Red. masses --      5.0916                 4.5346                 5.7865
 Frc consts  --      1.1391                 1.0666                 1.4801
 IR Inten    --      7.9019                 0.3836                 5.0278

                     31                     32                     33
                      A                      A                      A
 Frequencies --    678.0889               702.9951               725.4832
 Red. masses --      4.6359                 7.8129                 7.2534
 Frc consts  --      1.2559                 2.2749                 2.2493
 IR Inten    --     69.7450                 1.6175                65.3257

                     34                     35                     36
                      A                      A                      A
 Frequencies --    732.2151               741.7093               796.1826
 Red. masses --     10.5131                 5.7756                 1.1008
 Frc consts  --      3.3209                 1.8720                 0.4111
 IR Inten    --      0.3682                 9.1489               306.4927

                     37                     38                     39
                      A                      A                      A
 Frequencies --    797.8539               799.7900               816.7401
 Red. masses --      7.6916                 1.1306                 1.1799
 Frc consts  --      2.8848                 0.4261                 0.4637
 IR Inten    --    129.8397               339.1886                 3.9675

                     40                     41                     42
                      A                      A                      A
 Frequencies --    826.8628               836.1153               852.9448
 Red. masses --      1.0947                 1.2498                 8.9056
 Frc consts  --      0.4410                 0.5148                 3.8173
 IR Inten    --      3.8594                18.5272                25.5955

                     43                     44                     45
                      A                      A                      A
 Frequencies --    869.7327               922.6392               929.3167
 Red. masses --      1.3842                 1.3192                 5.8399
 Frc consts  --      0.6169                 0.6616                 2.9716
 IR Inten    --     15.6815                 0.0083                96.1220

                     46                     47                     48
                      A                      A                      A
 Frequencies --    967.5686               991.4512              1034.9794
 Red. masses --      9.1275                 2.5324                 2.2542
 Frc consts  --      5.0346                 1.4666                 1.4226
 IR Inten    --    574.7597                15.0233               115.5020

                     49                     50                     51
                      A                      A                      A
 Frequencies --   1048.8445              1089.4300              1138.5900
 Red. masses --      1.4875                 2.8768                 1.9054
 Frc consts  --      0.9641                 2.0117                 1.4554
 IR Inten    --      2.5494                63.2287                27.0592

                     52                     53                     54
                      A                      A                      A
 Frequencies --   1205.7596              1222.6071              1247.3697
 Red. masses --      1.8478                 2.9914                 3.0620
 Frc consts  --      1.5828                 2.6345                 2.8071
 IR Inten    --    262.4133               132.2467                15.8589

                     55                     56                     57
                      A                      A                      A
 Frequencies --   1258.4419              1265.7015              1289.0523
 Red. masses --      2.4891                 4.5120                 7.0251
 Frc consts  --      2.3225                 4.2588                 6.8777
 IR Inten    --    107.9150               426.4465               213.8049

                     58                     59                     60
                      A                      A                      A
 Frequencies --   1306.0743              1329.1740              1333.9809
 Red. masses --      7.1242                 4.1257                 4.5465
 Frc consts  --      7.1601                 4.2945                 4.7668
 IR Inten    --    355.8850                66.5284              1823.2688

                     61                     62                     63
                      A                      A                      A
 Frequencies --   1346.7565              1353.4319              1380.3274
 Red. masses --      4.2227                 4.7089                 5.4575
 Frc consts  --      4.5125                 5.0821                 6.1264
 IR Inten    --     21.7518               155.2037               179.5660

                     64                     65                     66
                      A                      A                      A
 Frequencies --   1405.3384              1409.8641              1452.5639
 Red. masses --      2.3093                 1.7001                 2.0345
 Frc consts  --      2.6872                 1.9911                 2.5292
 IR Inten    --     98.1944                56.5500               363.4926

                     67                     68                     69
                      A                      A                      A
 Frequencies --   1466.7075              1478.3335              1487.8601
 Red. masses --      1.0438                 1.6171                 1.8417
 Frc consts  --      1.3230                 2.0823                 2.4021
 IR Inten    --     11.3832               552.6801               875.5716

                     70                     71                     72
                      A                      A                      A
 Frequencies --   1490.9820              1504.3123              1529.0974
 Red. masses --      2.8259                 3.4299                 1.7664
 Frc consts  --      3.7013                 4.5731                 2.4333
 IR Inten    --    142.7673               322.9929                 0.6698

                     73                     74                     75
                      A                      A                      A
 Frequencies --   1573.3682              1590.5744              1629.1713
 Red. masses --      4.1358                 1.9738                 3.4350
 Frc consts  --      6.0321                 2.9422                 5.3717
 IR Inten    --    665.8448                 9.4198                 0.5442

                     76                     77                     78
                      A                      A                      A
 Frequencies --   1641.1057              1662.1161              3023.0721
 Red. masses --      4.5034                 2.7940                 1.0371
 Frc consts  --      7.1461                 4.5478                 5.5841
 IR Inten    --      9.3480                24.3399                83.5271

                     79                     80                     81
                      A                      A                      A
 Frequencies --   3067.8363              3094.3978              3108.0788
 Red. masses --      1.0998                 1.0695                 1.1005
 Frc consts  --      6.0987                 6.0337                 6.2634
 IR Inten    --     27.8407               762.4825                59.6764

                     82                     83                     84
                      A                      A                      A
 Frequencies --   3110.5925              3155.4186              3166.4379
 Red. masses --      1.0696                 1.0717                 1.0717
 Frc consts  --      6.0977                 6.2869                 6.3312
 IR Inten    --   1602.5775                55.8977                25.9176

                     85                     86                     87
                      A                      A                      A
 Frequencies --   3172.6746              3176.7039              3190.4905
 Red. masses --      1.0902                 1.0875                 1.0944
 Frc consts  --      6.4655                 6.4659                 6.5635
 IR Inten    --     25.4325                20.0880                18.8767

 - Thermochemistry -
 -------------------
 Temperature   298.150 Kelvin.  Pressure   1.00000 Atm.
 Atom     1 has atomic number  6 and mass  12.00000

 Molecular mass:   286.04774 amu.
 Principal axes and moments of inertia in atomic units:
                           1         2         3
     Eigenvalues --  3535.269516745.53051**********
           X            0.99844   0.03703   0.04188
           Y           -0.02953   0.98544  -0.16744
           Z           -0.04747   0.16594   0.98499
 This molecule is an asymmetric top.
 Rotational symmetry number  1.
 Warning -- assumption of classical behavior for rotation
           may cause significant error
 Rotational temperatures (Kelvin)      0.02450     0.01284     0.00843
 Rotational constants (GHZ):           0.51050     0.26755     0.17573
 Zero-point vibrational energy     581263.4 (Joules/Mol)
                                  138.92529 (Kcal/Mol)
 Warning -- explicit consideration of  28 degrees of freedom as
           vibrations may cause significant error
 Vibrational temperatures:     69.45    94.36   155.05   159.26   180.91
          (Kelvin)            208.39   244.97   282.13   301.44   396.98
                              400.73   444.55   459.57   536.23   554.90
                              575.76   602.83   605.55   625.17   672.44
                              677.18   689.25   702.03   721.80   772.63
                              784.09   811.81   886.58   909.08   947.98
                              975.62  1011.45  1043.81  1053.49  1067.15
                             1145.53  1147.93  1150.72  1175.11  1189.67
                             1202.98  1227.20  1251.35  1327.47  1337.08
                             1392.12  1426.48  1489.10  1509.05  1567.45
                             1638.18  1734.82  1759.06  1794.69  1810.62
                             1821.06  1854.66  1879.15  1912.38  1919.30
                             1937.68  1947.29  1985.98  2021.97  2028.48
                             2089.92  2110.26  2126.99  2140.70  2145.19
                             2164.37  2200.03  2263.73  2288.48  2344.01
                             2361.19  2391.41  4349.53  4413.93  4452.15
                             4471.83  4475.45  4539.94  4555.80  4564.77
                             4570.57  4590.40

 Zero-point correction=                           0.221392 (Hartree/Particle)
 Thermal correction to Energy=                    0.237684
 Thermal correction to Enthalpy=                  0.238628
 Thermal correction to Gibbs Free Energy=         0.177704
 Sum of electronic and zero-point Energies=          -1029.244000
 Sum of electronic and thermal Energies=             -1029.227708
 Sum of electronic and thermal Enthalpies=           -1029.226763
 Sum of electronic and thermal Free Energies=        -1029.287688

                     E (Thermal)             CV                S
                      KCal/Mol        Cal/Mol-Kelvin    Cal/Mol-Kelvin
 Total                  149.149             66.076            128.226
 Electronic               0.000              0.000              1.377
 Translational            0.889              2.981             42.851
 Rotational               0.889              2.981             33.859
 Vibrational            147.371             60.115             50.138
 Vibration     1          0.595              1.978              4.887
 Vibration     2          0.597              1.971              4.282
 Vibration     3          0.606              1.943              3.309
 Vibration     4          0.607              1.941              3.257
 Vibration     5          0.611              1.927              3.010
 Vibration     6          0.616              1.908              2.739
 Vibration     7          0.625              1.879              2.433
 Vibration     8          0.636              1.845              2.169
 Vibration     9          0.642              1.826              2.048
 Vibration    10          0.678              1.718              1.559
 Vibration    11          0.679              1.713              1.543
 Vibration    12          0.698              1.657              1.368
 Vibration    13          0.705              1.636              1.313
 Vibration    14          0.744              1.528              1.069
 Vibration    15          0.754              1.501              1.017
 Vibration    16          0.766              1.470              0.962
 Vibration    17          0.782              1.429              0.895
 Vibration    18          0.783              1.425              0.889
 Vibration    19          0.795              1.395              0.844
 Vibration    20          0.825              1.322              0.745
 Vibration    21          0.828              1.315              0.736
 Vibration    22          0.835              1.297              0.713
 Vibration    23          0.844              1.277              0.689
 Vibration    24          0.857              1.246              0.654
 Vibration    25          0.892              1.168              0.572
 Vibration    26          0.900              1.151              0.555
 Vibration    27          0.920              1.109              0.515
 Vibration    28          0.976              0.998              0.423

 Optimization completed.
    -- Stationary point found.
 Normal termination of Gaussian 16 at Sun Feb 11 01:01:38 2024.
