 Q-Chem 5.4, Q-Chem, Inc., Pleasanton, CA (2021)
 Q-Chem 5.4.0 for Intel X86 EM64T Linux

User input:
--------------------------------------------------------------
$molecule
0 1
O                  3.7817280000     -2.4795000000      0.3830730000
C                  3.0009030000     -1.5493650000      0.2512430000
C                  3.4020100000     -0.1567100000      0.5749910000
C                  4.6811310000      0.0983440000      1.0810400000
C                  5.0719070000      1.4021960000      1.3572670000
C                  4.1900770000      2.4607210000      1.1176670000
C                  2.9217140000      2.2134430000      0.6056510000
C                  2.5142260000      0.9020490000      0.3395370000
C                  1.1346480000      0.6691040000     -0.1976700000
O                  0.4883970000      1.6271630000     -0.6100320000
C                  0.6438960000     -0.7251840000     -0.2678300000
C                 -0.7150360000     -1.0436430000     -0.6013150000
C                 -0.9728950000     -2.3382120000     -1.1210780000
C                  0.0066990000     -3.3130450000     -1.1566910000
C                  1.2869250000     -3.0554150000     -0.6684580000
C                  1.6029520000     -1.7746180000     -0.2354680000
N                 -1.7595520000     -0.1729750000     -0.4117820000
C                 -1.7780410000      0.7898170000      0.6994740000
C                 -3.1547400000      0.8092110000      1.3686560000
C                 -4.2539650000      1.2665560000      0.3868980000
C                 -3.8878220000      0.8782790000     -1.0606050000
C                 -3.0372160000     -0.3916230000     -1.1042870000
H                  5.3491010000     -0.7387410000      1.2425380000
H                  6.0619970000      1.5996440000      1.7523830000
H                  4.4970660000      3.4789290000      1.3294280000
H                  2.2291980000      3.0209210000      0.4039330000
H                 -1.9720000000     -2.5940950000     -1.4440380000
H                 -0.2412920000     -4.2991570000     -1.5339600000
H                  2.0496910000     -3.8216950000     -0.6345280000
H                 -1.4984340000      1.7878130000      0.3489590000
H                 -1.0146280000      0.4863780000      1.4194970000
H                 -3.1127900000      1.4701470000      2.2387290000
H                 -3.3796240000     -0.1927050000      1.7490600000
H                 -4.3908580000      2.3498920000      0.4484970000
H                 -5.2096690000      0.8158440000      0.6708340000
H                 -4.7875660000      0.7235320000     -1.6619960000
H                 -3.3234580000      1.6842960000     -1.5385110000
H                 -2.8267020000     -0.6596860000     -2.1422390000
H                 -3.5979780000     -1.2279100000     -0.6576690000
$end
$rem
MAX_SCF_CYCLES=200
BASIS  =  6-311++G(d,p)
GUI  =  2
JOB_TYPE  =  SP
METHOD  =  B3LYP
SOLVENT_METHOD = PCM
$end
$pcm
theory = CPCM
$end
$solvent
dielectric 37.219
opticaldielectric 1.43
$end

--------------------------------------------------------------

             Standard Nuclear Orientation (Angstroms)
    I     Atom           X                Y                Z
 ----------------------------------------------------------------
    1      O       3.7817280000    -2.4795000000     0.3830730000
    2      C       3.0009030000    -1.5493650000     0.2512430000
    3      C       3.4020100000    -0.1567100000     0.5749910000
    4      C       4.6811310000     0.0983440000     1.0810400000
    5      C       5.0719070000     1.4021960000     1.3572670000
    6      C       4.1900770000     2.4607210000     1.1176670000
    7      C       2.9217140000     2.2134430000     0.6056510000
    8      C       2.5142260000     0.9020490000     0.3395370000
    9      C       1.1346480000     0.6691040000    -0.1976700000
   10      O       0.4883970000     1.6271630000    -0.6100320000
   11      C       0.6438960000    -0.7251840000    -0.2678300000
   12      C      -0.7150360000    -1.0436430000    -0.6013150000
   13      C      -0.9728950000    -2.3382120000    -1.1210780000
   14      C       0.0066990000    -3.3130450000    -1.1566910000
   15      C       1.2869250000    -3.0554150000    -0.6684580000
   16      C       1.6029520000    -1.7746180000    -0.2354680000
   17      N      -1.7595520000    -0.1729750000    -0.4117820000
   18      C      -1.7780410000     0.7898170000     0.6994740000
   19      C      -3.1547400000     0.8092110000     1.3686560000
   20      C      -4.2539650000     1.2665560000     0.3868980000
   21      C      -3.8878220000     0.8782790000    -1.0606050000
   22      C      -3.0372160000    -0.3916230000    -1.1042870000
   23      H       5.3491010000    -0.7387410000     1.2425380000
   24      H       6.0619970000     1.5996440000     1.7523830000
   25      H       4.4970660000     3.4789290000     1.3294280000
   26      H       2.2291980000     3.0209210000     0.4039330000
   27      H      -1.9720000000    -2.5940950000    -1.4440380000
   28      H      -0.2412920000    -4.2991570000    -1.5339600000
   29      H       2.0496910000    -3.8216950000    -0.6345280000
   30      H      -1.4984340000     1.7878130000     0.3489590000
   31      H      -1.0146280000     0.4863780000     1.4194970000
   32      H      -3.1127900000     1.4701470000     2.2387290000
   33      H      -3.3796240000    -0.1927050000     1.7490600000
   34      H      -4.3908580000     2.3498920000     0.4484970000
   35      H      -5.2096690000     0.8158440000     0.6708340000
   36      H      -4.7875660000     0.7235320000    -1.6619960000
   37      H      -3.3234580000     1.6842960000    -1.5385110000
   38      H      -2.8267020000    -0.6596860000    -2.1422390000
   39      H      -3.5979780000    -1.2279100000    -0.6576690000
 ----------------------------------------------------------------

    8    -939.7265023865      9.31e-06  Convergence criterion met
 Total energy in the final basis set =     -939.7265023865

                    Orbital Energies (a.u.)
 --------------------------------------------------------------

 Alpha MOs
 -- Occupied --
-19.1251 -19.1160 -14.3442 -10.2772 -10.2715 -10.2385 -10.2030 -10.2024
-10.2015 -10.2007 -10.1984 -10.1983 -10.1934 -10.1927 -10.1918 -10.1908
-10.1903 -10.1863 -10.1818 -10.1674 -10.1659 -10.1636  -1.0607  -1.0520
 -0.9629  -0.8857  -0.8699  -0.8102  -0.8025  -0.7727  -0.7680  -0.7574
 -0.7528  -0.6854  -0.6725  -0.6526  -0.6465  -0.6262  -0.6024  -0.5781
 -0.5557  -0.5536  -0.5372  -0.5137  -0.5073  -0.4936  -0.4854  -0.4797
 -0.4744  -0.4527  -0.4484  -0.4468  -0.4454  -0.4388  -0.4388  -0.4258
 -0.4184  -0.4118  -0.4078  -0.3919  -0.3876  -0.3812  -0.3806  -0.3691
 -0.3682  -0.3622  -0.3609  -0.3366  -0.3256  -0.3185  -0.2937  -0.2821
 -0.2809  -0.2741  -0.2684  -0.2655  -0.2118

          Ground-State Mulliken Net Atomic Charges

     Atom                 Charge (a.u.)
  ----------------------------------------
      1 O                    -0.305832
      2 C                    -0.546060
      3 C                     0.359261
      4 C                     0.102805
      5 C                    -0.617830
      6 C                    -0.478200
      7 C                    -0.006849
      8 C                     0.333879
      9 C                    -0.492698
     10 O                    -0.314707
     11 C                     0.183654
     12 C                    -0.002421
     13 C                    -0.118673
     14 C                    -0.424499
     15 C                    -0.022010
     16 C                     0.413372
     17 N                     0.458086
     18 C                    -0.224250
     19 C                    -0.561896
     20 C                    -0.496219
     21 C                    -0.465163
     22 C                    -0.104440
     23 H                     0.208728
     24 H                     0.216936
     25 H                     0.222226
     26 H                     0.203035
     27 H                     0.204385
     28 H                     0.237211
     29 H                     0.190436
     30 H                     0.205617
     31 H                     0.189133
     32 H                     0.188400
     33 H                     0.183127
     34 H                     0.160595
     35 H                     0.158518
     36 H                     0.191596
     37 H                     0.184574
     38 H                     0.199565
     39 H                     0.186611
  ----------------------------------------
  Sum of atomic charges =     0.000000

                    Cartesian Multipole Moments
 -----------------------------------------------------------------
    Charge (ESU x 10^10)
                -0.0000
    Dipole Moment (Debye)
         X      -4.9979      Y       1.2223      Z       1.0135
       Tot       5.2440
    Quadrupole Moments (Debye-Ang)
        XX    -114.5677     XY      19.6896     YY    -127.6466
        XZ       7.0889     YZ      10.6011     ZZ    -128.4517

 Total job time:  146.63s(wall), 631.15s(cpu)
        *  Thank you very much for using Q-Chem.  Have a nice day.  *
