 Gaussian 16, Revision A.03,
 Gaussian 16:  ES64L-G16RevA.03 25-Dec-2016

 ---------------------------------------------------------
 #P UB3LYP/genecp SCRF=(PCM,Solvent=n,n-DiMethylFormamide)
 ---------------------------------------------------------

 -------
 Reduced
 -------
 Symbolic Z-matrix:
 Charge = -2 Multiplicity = 1

                         Standard orientation:
 ---------------------------------------------------------------------
 Center     Atomic      Atomic             Coordinates (Angstroms)
 Number     Number       Type             X           Y           Z
 ---------------------------------------------------------------------
      1          6           0       -0.636175   -0.745978   -0.112289
      2          6           0       -1.953573   -0.140250   -0.116498
      3          6           0       -2.133174    1.239634   -0.034552
      4          6           0       -1.077384    2.196923    0.063365
      5          6           0        0.256069    1.626292    0.061447
      6          6           0        0.397074    0.239666   -0.028314
      7          8           0       -1.288041    3.473692    0.143673
      8          1           0       -3.136388    1.659662   -0.040660
      9          8           0       -0.452097   -2.017018   -0.186932
     10         53           0        2.398982   -0.644302   -0.035648
     11          6           0        1.412439    2.585107    0.159719
     12          6           0       -3.118052   -1.114457   -0.222978
     13          6           0       -3.360552   -1.834854    1.121249
     14          6           0       -4.427792   -0.502615   -0.740492
     15          1           0        0.997561    3.594563    0.217254
     16          1           0        2.084551    2.516985   -0.707095
     17          1           0        2.033414    2.395782    1.046526
     18          1           0       -2.798330   -1.893770   -0.928332
     19          1           0       -4.144162   -2.605000    1.028313
     20          1           0       -3.677544   -1.116941    1.888122
     21          1           0       -2.433794   -2.312978    1.443750
     22          1           0       -5.189054   -1.281624   -0.880662
     23          1           0       -4.277739    0.007738   -1.697289
     24          1           0       -4.836733    0.233401   -0.038485
 ---------------------------------------------------------------------

 SCF Done:  E(UB3LYP) =  -836.326707310     A.U. after   17 cycles

 The electronic state is 1-A.
 Alpha  occ. eigenvalues --  -19.01344 -19.01053 -10.17109 -10.16568 -10.16340
 Alpha  occ. eigenvalues --  -10.15077 -10.14223 -10.13828 -10.13610 -10.13294
 Alpha  occ. eigenvalues --  -10.12825 -10.11588  -6.80908  -4.83161  -4.82308
 Alpha  occ. eigenvalues --   -4.82229  -1.87981  -1.87714  -1.87652  -1.86916
 Alpha  occ. eigenvalues --   -1.86914  -0.93234  -0.92378  -0.79447  -0.77112
 Alpha  occ. eigenvalues --   -0.71624  -0.68394  -0.66610  -0.63648  -0.63171
 Alpha  occ. eigenvalues --   -0.57002  -0.51989  -0.50230  -0.45220  -0.42926
 Alpha  occ. eigenvalues --   -0.41987  -0.40355  -0.39495  -0.38706  -0.37234
 Alpha  occ. eigenvalues --   -0.36666  -0.35606  -0.34518  -0.34167  -0.33572
 Alpha  occ. eigenvalues --   -0.32186  -0.31806  -0.30803  -0.30227  -0.28937
 Alpha  occ. eigenvalues --   -0.25380  -0.23649  -0.21931  -0.19879  -0.19385
 Alpha  occ. eigenvalues --   -0.18854  -0.11368
 Alpha virt. eigenvalues --   -0.00734   0.00107   0.01054   0.01821   0.02248
 Alpha virt. eigenvalues --    0.02631   0.03310   0.03814   0.04437   0.05087
 Alpha virt. eigenvalues --    0.05323   0.05827   0.06270   0.07061   0.07984

  Beta  occ. eigenvalues --  -19.01344 -19.01053 -10.17109 -10.16568 -10.16340
  Beta  occ. eigenvalues --  -10.15077 -10.14223 -10.13828 -10.13610 -10.13294
  Beta  occ. eigenvalues --  -10.12825 -10.11588  -6.80908  -4.83161  -4.82308
  Beta  occ. eigenvalues --   -4.82229  -1.87981  -1.87714  -1.87652  -1.86916
  Beta  occ. eigenvalues --   -1.86914  -0.93234  -0.92378  -0.79447  -0.77112
  Beta  occ. eigenvalues --   -0.71624  -0.68394  -0.66610  -0.63648  -0.63171
  Beta  occ. eigenvalues --   -0.57002  -0.51989  -0.50230  -0.45220  -0.42926
  Beta  occ. eigenvalues --   -0.41987  -0.40355  -0.39495  -0.38706  -0.37234
  Beta  occ. eigenvalues --   -0.36666  -0.35606  -0.34518  -0.34167  -0.33572
  Beta  occ. eigenvalues --   -0.32186  -0.31806  -0.30803  -0.30227  -0.28937
  Beta  occ. eigenvalues --   -0.25380  -0.23649  -0.21931  -0.19879  -0.19385
  Beta  occ. eigenvalues --   -0.18854  -0.11368
  Beta virt. eigenvalues --   -0.00734   0.00107   0.01054   0.01821   0.02248
  Beta virt. eigenvalues --    0.02631   0.03310   0.03814   0.04437   0.05087
  Beta virt. eigenvalues --    0.05323   0.05827   0.06270   0.07061   0.07984

 Mulliken charges and spin densities:
               1          2
     1  C   -0.884044  -0.000000
     2  C    0.907178  -0.000000
     3  C   -0.179272   0.000000
     4  C   -1.129538  -0.000000
     5  C    0.806685   0.000000
     6  C    0.148751   0.000000
     7  O   -0.710001   0.000000
     8  H    0.112388   0.000000
     9  O   -0.611143  -0.000000
    10  I   -0.294638  -0.000000
    11  C   -0.432601   0.000000
    12  C    0.127383   0.000000
    13  C   -0.714739  -0.000000
    14  C   -0.562722  -0.000000
    15  H    0.170064   0.000000
    16  H    0.120854  -0.000000
    17  H    0.120137  -0.000000
    18  H    0.167693  -0.000000
    19  H    0.117350   0.000000
    20  H    0.129633   0.000000
    21  H    0.176169  -0.000000
    22  H    0.155750   0.000000
    23  H    0.126700   0.000000
    24  H    0.131961  -0.000000
 Sum of Mulliken charges =  -2.00000  -0.00000

 Dipole moment (field-independent basis, Debye):
    X=              4.3149    Y=             -5.9087    Z=              0.0537  Tot=              7.3166
 Quadrupole moment (field-independent basis, Debye-Ang):
   XX=           -130.5017   YY=           -172.8631   ZZ=           -110.8965
   XY=             16.1758   XZ=              1.0423   YZ=             -2.7080

 Normal termination of Gaussian 16 at Mon Jan 22 18:31:46 2024.
