 Q-Chem 5.4, Q-Chem, Inc., Pleasanton, CA (2021)
 Q-Chem 5.4.0 for Intel X86 EM64T Linux

User input:
--------------------------------------------------------------
$molecule
0 1
C                  1.0527490000      1.7081760000     -0.4877050000
C                 -0.2415340000      1.2259830000      0.0973780000
C                 -0.5344650000     -0.0965930000      0.1371740000
C                  0.4225710000     -1.0879370000     -0.4410830000
C                  1.6760830000     -0.6002340000     -1.0750420000
C                  1.9641130000      0.7022890000     -1.1027990000
O                  1.3518620000      2.8873570000     -0.4431430000
O                  0.1953640000     -2.2854760000     -0.4064750000
S                  3.4616310000      1.2379200000     -2.0080650000
C                  4.5083200000      2.0427620000     -0.7856980000
C                  4.4157230000      3.4215930000     -0.6099750000
C                  5.4204180000      1.2660760000     -0.0721590000
C                  6.2508000000      1.8914160000      0.8544970000
C                  5.2576180000      4.0330220000      0.3155560000
C                  6.1685350000      3.2705450000      1.0467030000
O                  3.0402040000      2.2213460000     -3.0047640000
O                  4.1274540000     -0.0064220000     -2.4101530000
H                  3.6996910000      3.9913210000     -1.1859390000
H                  5.4882820000      0.2015820000     -0.2578790000
H                  5.2033920000      5.1053290000      0.4623430000
H                  2.3310560000     -1.3451090000     -1.5133850000
H                  6.9686510000      1.3041690000      1.4150370000
C                 -1.7776030000     -0.7027350000      0.7228020000
C                 -1.1132010000      2.3293820000      0.6260660000
H                  6.8204850000      3.7534180000      1.7657560000
H                 -2.3666990000      0.0141360000      1.2897040000
H                 -1.5146960000     -1.5395010000      1.3734250000
H                 -2.4054730000     -1.1208740000     -0.0706900000
H                 -1.2574040000      3.0933470000     -0.1415820000
H                 -0.6246340000      2.8316830000      1.4661850000
H                 -2.0871460000      1.9709200000      0.9502700000
$end
$rem
MAX_SCF_CYCLES=200
BASIS  =  6-311++G(d,p)
GUI  =  2
JOB_TYPE  =  SP
METHOD  =  B3LYP
SOLVENT_METHOD = PCM
$end
$pcm
theory = CPCM
$end
$solvent
dielectric 37.219
opticaldielectric 1.43
$end

--------------------------------------------------------------

             Standard Nuclear Orientation (Angstroms)
    I     Atom           X                Y                Z
 ----------------------------------------------------------------
    1      C       1.0527490000     1.7081760000    -0.4877050000
    2      C      -0.2415340000     1.2259830000     0.0973780000
    3      C      -0.5344650000    -0.0965930000     0.1371740000
    4      C       0.4225710000    -1.0879370000    -0.4410830000
    5      C       1.6760830000    -0.6002340000    -1.0750420000
    6      C       1.9641130000     0.7022890000    -1.1027990000
    7      O       1.3518620000     2.8873570000    -0.4431430000
    8      O       0.1953640000    -2.2854760000    -0.4064750000
    9      S       3.4616310000     1.2379200000    -2.0080650000
   10      C       4.5083200000     2.0427620000    -0.7856980000
   11      C       4.4157230000     3.4215930000    -0.6099750000
   12      C       5.4204180000     1.2660760000    -0.0721590000
   13      C       6.2508000000     1.8914160000     0.8544970000
   14      C       5.2576180000     4.0330220000     0.3155560000
   15      C       6.1685350000     3.2705450000     1.0467030000
   16      O       3.0402040000     2.2213460000    -3.0047640000
   17      O       4.1274540000    -0.0064220000    -2.4101530000
   18      H       3.6996910000     3.9913210000    -1.1859390000
   19      H       5.4882820000     0.2015820000    -0.2578790000
   20      H       5.2033920000     5.1053290000     0.4623430000
   21      H       2.3310560000    -1.3451090000    -1.5133850000
   22      H       6.9686510000     1.3041690000     1.4150370000
   23      C      -1.7776030000    -0.7027350000     0.7228020000
   24      C      -1.1132010000     2.3293820000     0.6260660000
   25      H       6.8204850000     3.7534180000     1.7657560000
   26      H      -2.3666990000     0.0141360000     1.2897040000
   27      H      -1.5146960000    -1.5395010000     1.3734250000
   28      H      -2.4054730000    -1.1208740000    -0.0706900000
   29      H      -1.2574040000     3.0933470000    -0.1415820000
   30      H      -0.6246340000     2.8316830000     1.4661850000
   31      H      -2.0871460000     1.9709200000     0.9502700000
 ----------------------------------------------------------------

    9   -1239.9830459140      5.56e-06  Convergence criterion met
 Total energy in the final basis set =    -1239.9830459140

                    Orbital Energies (a.u.)
 --------------------------------------------------------------

 Alpha MOs
 -- Occupied --
-89.0750 -19.1514 -19.1509 -19.1414 -19.1396 -10.3015 -10.2958 -10.2476
-10.2323 -10.2257 -10.2220 -10.2200 -10.2036 -10.2023 -10.1958 -10.1937
-10.1933 -10.1752 -10.1747  -8.1387  -6.1015  -6.1006  -6.0997  -1.1364
 -1.0858  -1.0823  -1.0334  -0.8875  -0.8813  -0.8335  -0.7918  -0.7725
 -0.7578  -0.7271  -0.7025  -0.6782  -0.6316  -0.6261  -0.6084  -0.5889
 -0.5574  -0.5478  -0.5288  -0.5000  -0.4940  -0.4909  -0.4759  -0.4724
 -0.4676  -0.4624  -0.4558  -0.4450  -0.4402  -0.4324  -0.4185  -0.4147
 -0.4052  -0.3993  -0.3954  -0.3889  -0.3825  -0.3689  -0.3647  -0.3535
 -0.3392  -0.3275  -0.3264  -0.3037  -0.2912  -0.2845  -0.2802  -0.2767

          Ground-State Mulliken Net Atomic Charges

     Atom                 Charge (a.u.)
  ----------------------------------------
      1 C                    -0.474183
      2 C                    -0.170731
      3 C                     0.686592
      4 C                    -0.679759
      5 C                     0.115654
      6 C                     0.187704
      7 O                    -0.211409
      8 O                    -0.255072
      9 S                     0.518021
     10 C                     0.532236
     11 C                    -0.289434
     12 C                     0.012987
     13 C                    -0.530141
     14 C                    -0.427195
     15 C                    -0.321263
     16 O                    -0.172288
     17 O                    -0.209017
     18 H                     0.284004
     19 H                     0.267661
     20 H                     0.236320
     21 H                     0.296559
     22 H                     0.231114
     23 C                    -0.393002
     24 C                    -0.561655
     25 H                     0.214576
     26 H                     0.152777
     27 H                     0.188429
     28 H                     0.210546
     29 H                     0.193514
     30 H                     0.212928
     31 H                     0.153525
  ----------------------------------------
  Sum of atomic charges =     0.000000

                    Cartesian Multipole Moments
 -----------------------------------------------------------------
    Charge (ESU x 10^10)
                -0.0000
    Dipole Moment (Debye)
         X      -1.5868      Y       1.7464      Z       7.2470
       Tot       7.6215
    Quadrupole Moments (Debye-Ang)
        XX    -100.3394     XY       5.4381     YY    -122.7671
        XZ      27.2003     YZ      11.5496     ZZ    -134.3783

 Total job time:  66.60s(wall), 473.57s(cpu)
        *  Thank you very much for using Q-Chem.  Have a nice day.  *
