 Gaussian 16, Revision A.03,
 Gaussian 16:  ES64L-G16RevA.03 25-Dec-2016

 --------------------------------------
 #P UB3LYP/6-311++G(d,p) nosym opt freq
 --------------------------------------

 --------
 Oxidized
 --------
 Symbolic Z-matrix:
 Charge =  0 Multiplicity = 1

 SCF Done:  E(UB3LYP) =  -1239.96085475     A.U. after   18 cycles
 Optimization completed.
    -- Stationary point found.
 Normal termination of Gaussian 16 at Wed Jan 17 01:29:42 2024.

 ----------------------------------------------------------------------
 #P Geom=AllCheck Guess=TCheck SCRF=Check GenChk UB3LYP/6-311++G(d,p) F
 req
 ----------------------------------------------------------------------

 Structure from the checkpoint file:  "070.chk"
 --------
 Oxidized
 --------
 Charge =  0 Multiplicity = 1

                          Input orientation:
 ---------------------------------------------------------------------
 Center     Atomic      Atomic             Coordinates (Angstroms)
 Number     Number       Type             X           Y           Z
 ---------------------------------------------------------------------
      1          6           0        1.052749    1.708176   -0.487705
      2          6           0       -0.241534    1.225983    0.097378
      3          6           0       -0.534465   -0.096593    0.137174
      4          6           0        0.422571   -1.087937   -0.441083
      5          6           0        1.676083   -0.600234   -1.075042
      6          6           0        1.964113    0.702289   -1.102799
      7          8           0        1.351862    2.887357   -0.443143
      8          8           0        0.195364   -2.285476   -0.406475
      9         16           0        3.461631    1.237920   -2.008065
     10          6           0        4.508320    2.042762   -0.785698
     11          6           0        4.415723    3.421593   -0.609975
     12          6           0        5.420418    1.266076   -0.072159
     13          6           0        6.250800    1.891416    0.854497
     14          6           0        5.257618    4.033022    0.315556
     15          6           0        6.168535    3.270545    1.046703
     16          8           0        3.040204    2.221346   -3.004764
     17          8           0        4.127454   -0.006422   -2.410153
     18          1           0        3.699691    3.991321   -1.185939
     19          1           0        5.488282    0.201582   -0.257879
     20          1           0        5.203392    5.105329    0.462343
     21          1           0        2.331056   -1.345109   -1.513385
     22          1           0        6.968651    1.304169    1.415037
     23          6           0       -1.777603   -0.702735    0.722802
     24          6           0       -1.113201    2.329382    0.626066
     25          1           0        6.820485    3.753418    1.765756
     26          1           0       -2.366699    0.014136    1.289704
     27          1           0       -1.514696   -1.539501    1.373425
     28          1           0       -2.405473   -1.120874   -0.070690
     29          1           0       -1.257404    3.093347   -0.141582
     30          1           0       -0.624634    2.831683    1.466185
     31          1           0       -2.087146    1.970920    0.950270
 ---------------------------------------------------------------------

 SCF Done:  E(UB3LYP) =  -1239.96085475     A.U. after    2 cycles

 Alpha  occ. eigenvalues --  -89.06503 -19.15291 -19.15247 -19.12696 -19.12668
 Alpha  occ. eigenvalues --  -10.30345 -10.29764 -10.24842 -10.23470 -10.23204
 Alpha  occ. eigenvalues --  -10.23044 -10.22652 -10.20913 -10.20591 -10.20474
 Alpha  occ. eigenvalues --  -10.20229 -10.20100 -10.19223 -10.19187  -8.12861
 Alpha  occ. eigenvalues --   -6.09102  -6.09062  -6.08984  -1.12325  -1.08703
 Alpha  occ. eigenvalues --   -1.08310  -1.01881  -0.89157  -0.88751  -0.84092
 Alpha  occ. eigenvalues --   -0.79481  -0.77849  -0.77078  -0.72982  -0.71289
 Alpha  occ. eigenvalues --   -0.68120  -0.63766  -0.63133  -0.61584  -0.59255
 Alpha  occ. eigenvalues --   -0.56070  -0.55148  -0.52555  -0.50212  -0.49141
 Alpha  occ. eigenvalues --   -0.49013  -0.48068  -0.47531  -0.46980  -0.46160
 Alpha  occ. eigenvalues --   -0.45508  -0.45185  -0.44742  -0.44465  -0.42980
 Alpha  occ. eigenvalues --   -0.42645  -0.41653  -0.41164  -0.39977  -0.39667
 Alpha  occ. eigenvalues --   -0.39497  -0.37651  -0.35069  -0.34194  -0.33168
 Alpha  occ. eigenvalues --   -0.31982  -0.31773  -0.30417  -0.29836  -0.28777
 Alpha  occ. eigenvalues --   -0.28472  -0.28041
 Alpha virt. eigenvalues --   -0.14841  -0.06554  -0.04136  -0.03798  -0.02039
 Alpha virt. eigenvalues --   -0.01886  -0.01200   0.00336   0.00912   0.01125
 Alpha virt. eigenvalues --    0.01645   0.01989   0.02833   0.03409   0.03821

  Beta  occ. eigenvalues --  -89.06503 -19.15291 -19.15247 -19.12696 -19.12668
  Beta  occ. eigenvalues --  -10.30345 -10.29764 -10.24842 -10.23470 -10.23204
  Beta  occ. eigenvalues --  -10.23044 -10.22652 -10.20913 -10.20591 -10.20474
  Beta  occ. eigenvalues --  -10.20229 -10.20100 -10.19223 -10.19187  -8.12861
  Beta  occ. eigenvalues --   -6.09102  -6.09062  -6.08984  -1.12325  -1.08703
  Beta  occ. eigenvalues --   -1.08310  -1.01881  -0.89157  -0.88751  -0.84092
  Beta  occ. eigenvalues --   -0.79481  -0.77849  -0.77078  -0.72982  -0.71289
  Beta  occ. eigenvalues --   -0.68120  -0.63766  -0.63133  -0.61584  -0.59255
  Beta  occ. eigenvalues --   -0.56070  -0.55148  -0.52555  -0.50212  -0.49141
  Beta  occ. eigenvalues --   -0.49013  -0.48068  -0.47531  -0.46980  -0.46160
  Beta  occ. eigenvalues --   -0.45508  -0.45185  -0.44742  -0.44465  -0.42980
  Beta  occ. eigenvalues --   -0.42645  -0.41653  -0.41164  -0.39977  -0.39667
  Beta  occ. eigenvalues --   -0.39497  -0.37651  -0.35069  -0.34194  -0.33168
  Beta  occ. eigenvalues --   -0.31982  -0.31773  -0.30417  -0.29836  -0.28777
  Beta  occ. eigenvalues --   -0.28472  -0.28041
  Beta virt. eigenvalues --   -0.14841  -0.06554  -0.04136  -0.03798  -0.02039
  Beta virt. eigenvalues --   -0.01886  -0.01200   0.00336   0.00912   0.01125
  Beta virt. eigenvalues --    0.01645   0.01989   0.02833   0.03409   0.03821

 Mulliken charges and spin densities:
               1          2
     1  C   -0.492445  -0.000000
     2  C   -0.144485  -0.000000
     3  C    0.645485   0.000000
     4  C   -0.783777   0.000000
     5  C    0.096933   0.000000
     6  C    0.109772   0.000000
     7  O   -0.149713   0.000000
     8  O   -0.188821   0.000000
     9  S    0.423594  -0.000000
    10  C    0.545221  -0.000000
    11  C   -0.285644   0.000000
    12  C    0.022785   0.000000
    13  C   -0.511240  -0.000000
    14  C   -0.385839   0.000000
    15  C   -0.270336  -0.000000
    16  O   -0.064664   0.000000
    17  O   -0.108670   0.000000
    18  H    0.279612   0.000000
    19  H    0.245720  -0.000000
    20  H    0.191995  -0.000000
    21  H    0.286505   0.000000
    22  H    0.184198   0.000000
    23  C   -0.338704   0.000000
    24  C   -0.489847  -0.000000
    25  H    0.169138  -0.000000
    26  H    0.123913   0.000000
    27  H    0.185339   0.000000
    28  H    0.194944   0.000000
    29  H    0.187708   0.000000
    30  H    0.198132   0.000000
    31  H    0.123192   0.000000
 Sum of Mulliken charges =  -0.00000  -0.00000

 Dipole moment (field-independent basis, Debye):
    X=             -1.3160    Y=              1.5958    Z=              5.3964  Tot=              5.7792
 Quadrupole moment (field-independent basis, Debye-Ang):
   XX=           -105.1947   YY=           -121.1940   ZZ=           -131.3563
   XY=              4.7442   XZ=             20.6080   YZ=              8.1678

  Exact polarizability: 209.404  33.895 230.815   6.374  10.448 146.805
 Approx polarizability: 270.976  36.505 456.120  23.230   7.208 233.078

                      1                      2                      3
                      A                      A                      A
 Frequencies --     22.2138                27.4157                32.8245
 Red. masses --      1.5135                 2.2977                 4.9065
 Frc consts  --      0.0004                 0.0010                 0.0031
 IR Inten    --      0.2509                 0.6746                 0.8529

                      4                      5                      6
                      A                      A                      A
 Frequencies --     48.5046                55.9718                74.2654
 Red. masses --      4.7842                 1.0561                 5.1779
 Frc consts  --      0.0066                 0.0019                 0.0168
 IR Inten    --      1.2040                 0.4568                 1.5772

                      7                      8                      9
                      A                      A                      A
 Frequencies --    103.9171               131.9839               141.2086
 Red. masses --      3.4147                 7.4510                 7.3150
 Frc consts  --      0.0217                 0.0765                 0.0859
 IR Inten    --      0.0379                 8.3824                 1.3313

                     10                     11                     12
                      A                      A                      A
 Frequencies --    179.8573               204.2994               230.3378
 Red. masses --      6.6137                 5.4593                 8.9876
 Frc consts  --      0.1261                 0.1343                 0.2809
 IR Inten    --      0.7307                 0.6789                 1.2037

                     13                     14                     15
                      A                      A                      A
 Frequencies --    259.8886               274.1053               301.8681
 Red. masses --      3.5510                10.5157                 8.3921
 Frc consts  --      0.1413                 0.4655                 0.4506
 IR Inten    --      0.4913                 0.2442                 1.9990

                     16                     17                     18
                      A                      A                      A
 Frequencies --    322.6866               358.5302               363.6607
 Red. masses --      3.8884                 2.8962                 5.5625
 Frc consts  --      0.2386                 0.2193                 0.4334
 IR Inten    --      1.5006                 0.4985                 3.5930

                     19                     20                     21
                      A                      A                      A
 Frequencies --    408.7563               411.8561               422.8987
 Red. masses --      7.7474                 2.9842                 8.3101
 Frc consts  --      0.7627                 0.2982                 0.8756
 IR Inten    --     21.6481                 1.4383                 1.3028

                     22                     23                     24
                      A                      A                      A
 Frequencies --    448.9472               461.7644               486.5789
 Red. masses --      5.4827                 6.0580                 4.0097
 Frc consts  --      0.6511                 0.7611                 0.5593
 IR Inten    --      8.6872                 2.9238                 3.7876

                     25                     26                     27
                      A                      A                      A
 Frequencies --    493.3183               541.4820               591.4340
 Red. masses --      6.9510                 8.1890                 7.9150
 Frc consts  --      0.9967                 1.4146                 1.6312
 IR Inten    --      8.9952                46.6640               181.3985

                     28                     29                     30
                      A                      A                      A
 Frequencies --    626.6961               650.5367               686.7466
 Red. masses --      6.4413                 4.3717                 5.4112
 Frc consts  --      1.4905                 1.0901                 1.5036
 IR Inten    --      0.1138                 5.7030                 9.4942

                     31                     32                     33
                      A                      A                      A
 Frequencies --    698.3610               702.2860               725.7262
 Red. masses --      4.8966                 2.0546                 6.8289
 Frc consts  --      1.4070                 0.5970                 2.1191
 IR Inten    --      3.6800                53.1057                68.8404

                     34                     35                     36
                      A                      A                      A
 Frequencies --    766.7042               791.9669               807.2493
 Red. masses --      1.6549                 6.4920                 5.0159
 Frc consts  --      0.5732                 2.3991                 1.9258
 IR Inten    --     19.4315                12.2404                 7.3764

                     37                     38                     39
                      A                      A                      A
 Frequencies --    853.4488               855.9147               947.1173
 Red. masses --      3.0195                 1.2519                 1.3535
 Frc consts  --      1.2958                 0.5404                 0.7153
 IR Inten    --      7.6168                 0.1427                 0.9378

                     40                     41                     42
                      A                      A                      A
 Frequencies --    952.4503               954.7172               994.0605
 Red. masses --      1.3840                 2.0999                 1.3812
 Frc consts  --      0.7397                 1.1277                 0.8041
 IR Inten    --      9.3371                 7.1473                 0.2414

                     43                     44                     45
                      A                      A                      A
 Frequencies --   1011.9838              1014.5110              1031.4321
 Red. masses --      1.3129                 6.1026                 1.4895
 Frc consts  --      0.7922                 3.7006                 0.9336
 IR Inten    --      0.0375                 4.3967                 1.5710

                     46                     47                     48
                      A                      A                      A
 Frequencies --   1040.2051              1060.5937              1066.5517
 Red. masses --      3.6451                 1.5788                 3.2944
 Frc consts  --      2.3238                 1.0463                 2.2080
 IR Inten    --     11.7259                 1.0177                59.3103

                     49                     50                     51
                      A                      A                      A
 Frequencies --   1095.2033              1101.0445              1114.3326
 Red. masses --      2.2992                 1.5677                 4.5987
 Frc consts  --      1.6249                 1.1198                 3.3645
 IR Inten    --     77.4277                 7.6277               119.4793

                     52                     53                     54
                      A                      A                      A
 Frequencies --   1117.4274              1142.9659              1185.4471
 Red. masses --      2.2477                 3.0561                 1.1210
 Frc consts  --      1.6536                 2.3523                 0.9282
 IR Inten    --     14.8013                48.5012                 0.2324

                     55                     56                     57
                      A                      A                      A
 Frequencies --   1200.6461              1240.9634              1281.8564
 Red. masses --      1.1562                 4.9204                17.7355
 Frc consts  --      0.9820                 4.4644                17.1701
 IR Inten    --      5.7116               146.5405               156.6301

                     58                     59                     60
                      A                      A                      A
 Frequencies --   1312.1181              1332.7049              1345.6226
 Red. masses --      2.5740                 2.5956                 3.6352
 Frc consts  --      2.6110                 2.7162                 3.8781
 IR Inten    --     58.8329                 0.1869                 3.9903

                     61                     62                     63
                      A                      A                      A
 Frequencies --   1347.1520              1413.9635              1420.9302
 Red. masses --      1.9445                 1.3704                 1.1986
 Frc consts  --      2.0791                 1.6142                 1.4258
 IR Inten    --      2.3349                25.6450                 6.2852

                     64                     65                     66
                      A                      A                      A
 Frequencies --   1469.4624              1471.5474              1476.6901
 Red. masses --      1.0565                 1.0520                 2.1466
 Frc consts  --      1.3442                 1.3422                 2.7579
 IR Inten    --      0.5911                12.5170                15.7875

                     67                     68                     69
                      A                      A                      A
 Frequencies --   1479.3590              1489.9754              1506.3315
 Red. masses --      1.0441                 1.0940                 2.0160
 Frc consts  --      1.3463                 1.4310                 2.6951
 IR Inten    --     13.3783                 3.7866                 3.2815

                     70                     71                     72
                      A                      A                      A
 Frequencies --   1621.6213              1624.4571              1650.7219
 Red. masses --      5.3062                 5.7700                 7.5750
 Frc consts  --      8.2211                 8.9711                12.1613
 IR Inten    --      3.0512                 0.3086                47.3534

                     73                     74                     75
                      A                      A                      A
 Frequencies --   1687.5232              1714.7636              1719.2940
 Red. masses --      8.3858                11.2747                12.8262
 Frc consts  --     14.0701                19.5327                22.3383
 IR Inten    --      2.4586               100.9739               333.1696

                     76                     77                     78
                      A                      A                      A
 Frequencies --   3038.8471              3043.4256              3089.9381
 Red. masses --      1.0441                 1.0418                 1.0967
 Frc consts  --      5.6807                 5.6853                 6.1693
 IR Inten    --      5.0237                 5.7909                 6.2596

                     79                     80                     81
                      A                      A                      A
 Frequencies --   3091.0509              3141.9498              3157.2995
 Red. masses --      1.0927                 1.1012                 1.0962
 Frc consts  --      6.1513                 6.4051                 6.4383
 IR Inten    --      4.4426                 1.7532                22.1259

                     82                     83                     84
                      A                      A                      A
 Frequencies --   3170.1088              3182.1810              3191.4181
 Red. masses --      1.0864                 1.0901                 1.0948
 Frc consts  --      6.4328                 6.5036                 6.5700
 IR Inten    --      0.5851                 9.5657                10.4155

                     85                     86                     87
                      A                      A                      A
 Frequencies --   3192.7538              3203.4692              3221.8406
 Red. masses --      1.0925                 1.0945                 1.0933
 Frc consts  --      6.5614                 6.6176                 6.6867
 IR Inten    --      6.9175                 4.8269                 3.8776

 - Thermochemistry -
 -------------------
 Temperature   298.150 Kelvin.  Pressure   1.00000 Atm.
 Atom     1 has atomic number  6 and mass  12.00000

 Molecular mass:   276.04563 amu.
 Principal axes and moments of inertia in atomic units:
                           1         2         3
     Eigenvalues --  2969.158727872.674608739.32962
           X            0.89916  -0.34538   0.26876
           Y            0.43443   0.77857  -0.45288
           Z           -0.05283   0.52396   0.85010
 This molecule is an asymmetric top.
 Rotational symmetry number  1.
 Warning -- assumption of classical behavior for rotation
           may cause significant error
 Rotational temperatures (Kelvin)      0.02917     0.01100     0.00991
 Rotational constants (GHZ):           0.60783     0.22924     0.20651
 Zero-point vibrational energy     603684.9 (Joules/Mol)
                                  144.28417 (Kcal/Mol)
 Warning -- explicit consideration of  27 degrees of freedom as
           vibrations may cause significant error
 Vibrational temperatures:     31.96    39.45    47.23    69.79    80.53
          (Kelvin)            106.85   149.51   189.90   203.17   258.77
                              293.94   331.40   373.92   394.38   434.32
                              464.27   515.84   523.23   588.11   592.57
                              608.46   645.93   664.38   700.08   709.78
                              779.07   850.94   901.68   935.98   988.08
                             1004.79  1010.43  1044.16  1103.12  1139.46
                             1161.45  1227.92  1231.47  1362.69  1370.36
                             1373.63  1430.23  1456.02  1459.65  1484.00
                             1496.62  1525.96  1534.53  1575.75  1584.16
                             1603.28  1607.73  1644.47  1705.59  1727.46
                             1785.47  1844.31  1887.85  1917.47  1936.05
                             1938.25  2034.38  2044.40  2114.23  2117.23
                             2124.63  2128.47  2143.74  2167.28  2333.15
                             2337.23  2375.02  2427.97  2467.16  2473.68
                             4372.22  4378.81  4445.73  4447.33  4520.56
                             4542.65  4561.08  4578.45  4591.74  4593.66
                             4609.08  4635.51

 Zero-point correction=                           0.229931 (Hartree/Particle)
 Thermal correction to Energy=                    0.247985
 Thermal correction to Enthalpy=                  0.248929
 Thermal correction to Gibbs Free Energy=         0.181063
 Sum of electronic and zero-point Energies=          -1239.730923
 Sum of electronic and thermal Energies=             -1239.712869
 Sum of electronic and thermal Enthalpies=           -1239.711925
 Sum of electronic and thermal Free Energies=        -1239.779792

                     E (Thermal)             CV                S
                      KCal/Mol        Cal/Mol-Kelvin    Cal/Mol-Kelvin
 Total                  155.613             66.351            142.837
 Electronic               0.000              0.000              0.000
 Translational            0.889              2.981             42.745
 Rotational               0.889              2.981             33.679
 Vibrational            153.836             60.390             66.413
 Vibration     1          0.593              1.985              6.426
 Vibration     2          0.593              1.984              6.008
 Vibration     3          0.594              1.983              5.651
 Vibration     4          0.595              1.978              4.877
 Vibration     5          0.596              1.975              4.594
 Vibration     6          0.599              1.966              4.037
 Vibration     7          0.605              1.946              3.379
 Vibration     8          0.612              1.921              2.917
 Vibration     9          0.615              1.912              2.787
 Vibration    10          0.629              1.867              2.330
 Vibration    11          0.640              1.834              2.094
 Vibration    12          0.652              1.795              1.876
 Vibration    13          0.668              1.746              1.663
 Vibration    14          0.676              1.721              1.570
 Vibration    15          0.694              1.670              1.407
 Vibration    16          0.708              1.630              1.296
 Vibration    17          0.733              1.558              1.128
 Vibration    18          0.737              1.547              1.106
 Vibration    19          0.773              1.451              0.931
 Vibration    20          0.776              1.444              0.920
 Vibration    21          0.785              1.420              0.882
 Vibration    22          0.808              1.363              0.799
 Vibration    23          0.819              1.335              0.761
 Vibration    24          0.843              1.280              0.693
 Vibration    25          0.849              1.265              0.675
 Vibration    26          0.897              1.158              0.562
 Vibration    27          0.949              1.050              0.465

                           ! Non-Optimized Parameters !
 Normal termination of Gaussian 16 at Wed Jan 17 03:11:59 2024.
