 Q-Chem 5.4, Q-Chem, Inc., Pleasanton, CA (2021)
 Q-Chem 5.4.0 for Intel X86 EM64T Linux

User input:
--------------------------------------------------------------
$molecule
-2 1
O                  1.4522290000      2.2760530000     -0.8075100000
C                  0.8083220000      1.1971700000     -0.5047100000
C                 -0.6145630000      1.1723140000     -0.4973490000
C                 -1.4388140000      0.0708140000     -0.1940640000
C                 -0.8082850000     -1.1971970000      0.1835890000
O                 -1.4521660000     -2.2760890000      0.4864280000
C                  0.6145890000     -1.1723280000      0.1762560000
C                  1.4388270000     -0.0708500000     -0.1270920000
C                  2.9013900000     -0.2100880000     -0.0424510000
C                  3.5205640000     -1.3196280000      0.5961380000
C                  4.9016390000     -1.4691050000      0.6571350000
C                  5.7551190000     -0.5152830000      0.0908540000
C                  5.1721830000      0.5958230000     -0.5297550000
C                  3.7908330000      0.7527070000     -0.5945970000
C                 -2.9013890000      0.2100940000     -0.2785550000
C                 -3.5206200000      1.3196320000     -0.9170990000
C                 -4.9017000000      1.4691180000     -0.9779730000
C                 -5.7551410000      0.5153120000     -0.4116110000
C                 -5.1721590000     -0.5958120000      0.2089180000
C                 -3.7908060000     -0.7527090000      0.2736440000
H                 -1.0597190000      2.1327260000     -0.7383980000
H                  1.0597750000     -2.1327070000      0.4173880000
H                  2.9000930000     -2.0714240000      1.0675450000
H                  5.3187950000     -2.3383760000      1.1625800000
H                  6.8350270000     -0.6298440000      0.1421180000
H                  5.8091850000      1.3596620000     -0.9730210000
H                  3.3344960000      1.6252500000     -1.0468900000
H                 -2.9002070000      2.0714180000     -1.3885940000
H                 -5.3188910000      2.3383930000     -1.4833830000
H                 -6.8350530000      0.6298800000     -0.4627880000
H                 -5.8091270000     -1.3596570000      0.6522240000
H                 -3.3344280000     -1.6252700000      0.7258680000
$end
$rem
MAX_SCF_CYCLES=200
BASIS  =  6-311++G(d,p)
GUI  =  2
JOB_TYPE  =  SP
METHOD  =  B3LYP
SOLVENT_METHOD = PCM
$end
$pcm
theory = CPCM
$end
$solvent
dielectric 37.219
opticaldielectric 1.43
$end

--------------------------------------------------------------

             Standard Nuclear Orientation (Angstroms)
    I     Atom           X                Y                Z
 ----------------------------------------------------------------
    1      O       1.4522290000     2.2760530000    -0.8075100000
    2      C       0.8083220000     1.1971700000    -0.5047100000
    3      C      -0.6145630000     1.1723140000    -0.4973490000
    4      C      -1.4388140000     0.0708140000    -0.1940640000
    5      C      -0.8082850000    -1.1971970000     0.1835890000
    6      O      -1.4521660000    -2.2760890000     0.4864280000
    7      C       0.6145890000    -1.1723280000     0.1762560000
    8      C       1.4388270000    -0.0708500000    -0.1270920000
    9      C       2.9013900000    -0.2100880000    -0.0424510000
   10      C       3.5205640000    -1.3196280000     0.5961380000
   11      C       4.9016390000    -1.4691050000     0.6571350000
   12      C       5.7551190000    -0.5152830000     0.0908540000
   13      C       5.1721830000     0.5958230000    -0.5297550000
   14      C       3.7908330000     0.7527070000    -0.5945970000
   15      C      -2.9013890000     0.2100940000    -0.2785550000
   16      C      -3.5206200000     1.3196320000    -0.9170990000
   17      C      -4.9017000000     1.4691180000    -0.9779730000
   18      C      -5.7551410000     0.5153120000    -0.4116110000
   19      C      -5.1721590000    -0.5958120000     0.2089180000
   20      C      -3.7908060000    -0.7527090000     0.2736440000
   21      H      -1.0597190000     2.1327260000    -0.7383980000
   22      H       1.0597750000    -2.1327070000     0.4173880000
   23      H       2.9000930000    -2.0714240000     1.0675450000
   24      H       5.3187950000    -2.3383760000     1.1625800000
   25      H       6.8350270000    -0.6298440000     0.1421180000
   26      H       5.8091850000     1.3596620000    -0.9730210000
   27      H       3.3344960000     1.6252500000    -1.0468900000
   28      H      -2.9002070000     2.0714180000    -1.3885940000
   29      H      -5.3188910000     2.3383930000    -1.4833830000
   30      H      -6.8350530000     0.6298800000    -0.4627880000
   31      H      -5.8091270000    -1.3596570000     0.6522240000
   32      H      -3.3344280000    -1.6252700000     0.7258680000
 ----------------------------------------------------------------

    8    -844.0579077022      4.63e-06  Convergence criterion met
 Total energy in the final basis set =     -844.0579077022

                    Orbital Energies (a.u.)
 --------------------------------------------------------------

 Alpha MOs
 -- Occupied --
-19.0208 -19.0208 -10.1784 -10.1784 -10.1686 -10.1686 -10.1623 -10.1623
-10.1603 -10.1603 -10.1593 -10.1593 -10.1565 -10.1565 -10.1469 -10.1469
-10.1430 -10.1430 -10.1220 -10.1220  -0.9401  -0.9370  -0.8412  -0.8407
 -0.7889  -0.7607  -0.7300  -0.7298  -0.7268  -0.6840  -0.6501  -0.6118
 -0.5924  -0.5871  -0.5736  -0.5469  -0.5304  -0.5001  -0.4832  -0.4558
 -0.4483  -0.4471  -0.4308  -0.4194  -0.4098  -0.4058  -0.4036  -0.4000
 -0.3828  -0.3701  -0.3645  -0.3607  -0.3596  -0.3454  -0.3341  -0.3287
 -0.3264  -0.3213  -0.3188  -0.3122  -0.2735  -0.2590  -0.2438  -0.2436
 -0.2159  -0.1971  -0.1951  -0.1909  -0.1248

          Ground-State Mulliken Net Atomic Charges

     Atom                 Charge (a.u.)
  ----------------------------------------
      1 O                    -0.681273
      2 C                    -0.652848
      3 C                    -0.884046
      4 C                     1.199301
      5 C                    -0.653192
      6 O                    -0.681227
      7 C                    -0.883878
      8 C                     1.198440
      9 C                     1.168841
     10 C                    -0.483675
     11 C                    -0.493707
     12 C                    -0.417141
     13 C                    -0.507714
     14 C                    -0.214194
     15 C                     1.169317
     16 C                    -0.483880
     17 C                    -0.493869
     18 C                    -0.417137
     19 C                    -0.507718
     20 C                    -0.214015
     21 H                     0.093299
     22 H                     0.093284
     23 H                     0.131705
     24 H                     0.202991
     25 H                     0.170361
     26 H                     0.200087
     27 H                     0.168363
     28 H                     0.131735
     29 H                     0.202977
     30 H                     0.170359
     31 H                     0.200074
     32 H                     0.168361
  ----------------------------------------
  Sum of atomic charges =    -2.000020

                    Cartesian Multipole Moments
 -----------------------------------------------------------------
    Charge (ESU x 10^10)
                -9.6065
    Dipole Moment (Debye)
         X      -0.0002      Y       0.0002      Z       1.5422
       Tot       1.5422
    Quadrupole Moments (Debye-Ang)
        XX    -163.4817     XY     -21.3784     YY    -160.5528
        XZ       5.6207     YZ       4.4892     ZZ    -132.5162

 Total job time:  62.19s(wall), 406.66s(cpu)
        *  Thank you very much for using Q-Chem.  Have a nice day.  *
