 Q-Chem 5.4, Q-Chem, Inc., Pleasanton, CA (2021)
 Q-Chem 5.4.0 for Intel X86 EM64T Linux

User input:
--------------------------------------------------------------
$molecule
0 1
Cl                -2.5544670000      1.7869850000      0.7012950000
C                 -1.2058120000      0.7551000000      0.4278660000
C                 -1.2634520000     -0.5845490000      0.5604880000
Cl                -2.6933220000     -1.4234380000      1.0193420000
C                 -0.0629760000     -1.4484820000      0.3123130000
O                 -0.1142030000     -2.6481780000      0.4309120000
C                  1.2057510000     -0.7551130000     -0.0903110000
C                  1.2635650000      0.5844720000     -0.2229760000
Cl                 2.6934000000      1.4237650000     -0.6818440000
C                  0.0630240000      1.4485410000      0.0251910000
O                  0.1143560000      2.6481450000     -0.0934010000
Cl                 2.5541360000     -1.7872470000     -0.3636330000
$end
$rem
MAX_SCF_CYCLES=200
BASIS  =  6-311++G(d,p)
GUI  =  2
JOB_TYPE  =  SP
METHOD  =  B3LYP
SOLVENT_METHOD = PCM
$end
$pcm
theory = CPCM
$end
$solvent
dielectric 37.219
opticaldielectric 1.43
$end

--------------------------------------------------------------

             Standard Nuclear Orientation (Angstroms)
    I     Atom           X                Y                Z
 ----------------------------------------------------------------
    1      Cl     -2.5544670000     1.7869850000     0.7012950000
    2      C      -1.2058120000     0.7551000000     0.4278660000
    3      C      -1.2634520000    -0.5845490000     0.5604880000
    4      Cl     -2.6933220000    -1.4234380000     1.0193420000
    5      C      -0.0629760000    -1.4484820000     0.3123130000
    6      O      -0.1142030000    -2.6481780000     0.4309120000
    7      C       1.2057510000    -0.7551130000    -0.0903110000
    8      C       1.2635650000     0.5844720000    -0.2229760000
    9      Cl      2.6934000000     1.4237650000    -0.6818440000
   10      C       0.0630240000     1.4485410000     0.0251910000
   11      O       0.1143560000     2.6481450000    -0.0934010000
   12      Cl      2.5541360000    -1.7872470000    -0.3636330000
 ----------------------------------------------------------------

    7   -2220.0399322024      6.76e-06  Convergence criterion met
 Total energy in the final basis set =    -2220.0399322024

                    Orbital Energies (a.u.)
 --------------------------------------------------------------

 Alpha MOs
 -- Occupied --
********-101.5919-101.5918-101.5918 -19.1700 -19.1700 -10.3264 -10.3264
-10.2938 -10.2937 -10.2930 -10.2930  -9.5063  -9.5063  -9.5062  -9.5062
 -7.2713  -7.2713  -7.2712  -7.2712  -7.2614  -7.2614  -7.2613  -7.2613
 -7.2600  -7.2600  -7.2600  -7.2600  -1.1105  -1.1083  -0.9527  -0.9409
 -0.8938  -0.8915  -0.8385  -0.7657  -0.7249  -0.6388  -0.6377  -0.5848
 -0.5307  -0.5095  -0.4974  -0.4919  -0.4823  -0.4771  -0.4599  -0.4571
 -0.4275  -0.3951  -0.3733  -0.3661  -0.3657  -0.3584  -0.3454  -0.3384
 -0.3254  -0.3151  -0.3081  -0.2838

          Ground-State Mulliken Net Atomic Charges

     Atom                 Charge (a.u.)
  ----------------------------------------
      1 Cl                    0.414141
      2 C                     0.672947
      3 C                     0.681548
      4 Cl                    0.411878
      5 C                    -2.019285
      6 O                    -0.161642
      7 C                     0.672620
      8 C                     0.682280
      9 Cl                    0.411881
     10 C                    -2.018828
     11 O                    -0.161530
     12 Cl                    0.413989
  ----------------------------------------
  Sum of atomic charges =     0.000000

                    Cartesian Multipole Moments
 -----------------------------------------------------------------
    Charge (ESU x 10^10)
                 0.0000
    Dipole Moment (Debye)
         X      -0.0007      Y       0.0017      Z      -0.0000
       Tot       0.0018
    Quadrupole Moments (Debye-Ang)
        XX     -90.6986     XY      -0.9618     YY    -111.6032
        XZ      -0.2939     YZ       1.9650     ZZ     -92.1733

 Total job time:  72.12s(wall), 75.33s(cpu)
        *  Thank you very much for using Q-Chem.  Have a nice day.  *
