 Gaussian 16, Revision A.03,
 Gaussian 16:  ES64L-G16RevA.03 25-Dec-2016

 --------------------------------------
 #P UB3LYP/6-311++G(d,p) nosym opt freq
 --------------------------------------

 --------
 Oxidized
 --------
 Symbolic Z-matrix:
 Charge =  0 Multiplicity = 1

 SCF Done:  E(UB3LYP) =  -2220.02958024     A.U. after   21 cycles
 Optimization completed.
    -- Stationary point found.
 Normal termination of Gaussian 16 at Sat Jan  6 05:40:24 2024.

 ----------------------------------------------------------------------
 #P Geom=AllCheck Guess=TCheck SCRF=Check GenChk UB3LYP/6-311++G(d,p) F
 req
 ----------------------------------------------------------------------

 Structure from the checkpoint file:  "029.chk"
 --------
 Oxidized
 --------
 Charge =  0 Multiplicity = 1

                          Input orientation:
 ---------------------------------------------------------------------
 Center     Atomic      Atomic             Coordinates (Angstroms)
 Number     Number       Type             X           Y           Z
 ---------------------------------------------------------------------
      1         17           0       -2.554467    1.786985    0.701295
      2          6           0       -1.205812    0.755100    0.427866
      3          6           0       -1.263452   -0.584549    0.560488
      4         17           0       -2.693322   -1.423438    1.019342
      5          6           0       -0.062976   -1.448482    0.312313
      6          8           0       -0.114203   -2.648178    0.430912
      7          6           0        1.205751   -0.755113   -0.090311
      8          6           0        1.263565    0.584472   -0.222976
      9         17           0        2.693400    1.423765   -0.681844
     10          6           0        0.063024    1.448541    0.025191
     11          8           0        0.114356    2.648145   -0.093401
     12         17           0        2.554136   -1.787247   -0.363633
 ---------------------------------------------------------------------

 SCF Done:  E(UB3LYP) =  -2220.02958024     A.U. after    5 cycles

 Alpha  occ. eigenvalues -- -101.59829-101.59827-101.59819-101.59819 -19.17398
 Alpha  occ. eigenvalues --  -19.17397 -10.33064 -10.33062 -10.30218 -10.30216
 Alpha  occ. eigenvalues --  -10.30141 -10.30141  -9.51271  -9.51270  -9.51262
 Alpha  occ. eigenvalues --   -9.51261  -7.27774  -7.27773  -7.27765  -7.27765
 Alpha  occ. eigenvalues --   -7.26780  -7.26778  -7.26770  -7.26770  -7.26642
 Alpha  occ. eigenvalues --   -7.26641  -7.26633  -7.26633  -1.11417  -1.11179
 Alpha  occ. eigenvalues --   -0.96084  -0.94862  -0.90063  -0.89828  -0.84654
 Alpha  occ. eigenvalues --   -0.77423  -0.73221  -0.64592  -0.64497  -0.59157
 Alpha  occ. eigenvalues --   -0.53518  -0.51301  -0.50642  -0.49958  -0.48512
 Alpha  occ. eigenvalues --   -0.47970  -0.46583  -0.46258  -0.43697  -0.40059
 Alpha  occ. eigenvalues --   -0.38047  -0.37260  -0.37103  -0.36338  -0.35044
 Alpha  occ. eigenvalues --   -0.34349  -0.32758  -0.31784  -0.31536  -0.29272
 Alpha virt. eigenvalues --   -0.16653  -0.06774  -0.04953  -0.03485  -0.02219
 Alpha virt. eigenvalues --   -0.00709  -0.00014   0.01952   0.02301   0.03042
 Alpha virt. eigenvalues --    0.03412   0.04327   0.05529   0.06290   0.06461

  Beta  occ. eigenvalues -- -101.59829-101.59827-101.59819-101.59819 -19.17398
  Beta  occ. eigenvalues --  -19.17397 -10.33064 -10.33062 -10.30218 -10.30216
  Beta  occ. eigenvalues --  -10.30141 -10.30141  -9.51271  -9.51270  -9.51262
  Beta  occ. eigenvalues --   -9.51261  -7.27774  -7.27773  -7.27765  -7.27765
  Beta  occ. eigenvalues --   -7.26780  -7.26778  -7.26770  -7.26770  -7.26642
  Beta  occ. eigenvalues --   -7.26641  -7.26633  -7.26633  -1.11417  -1.11179
  Beta  occ. eigenvalues --   -0.96084  -0.94862  -0.90063  -0.89828  -0.84654
  Beta  occ. eigenvalues --   -0.77423  -0.73221  -0.64592  -0.64497  -0.59157
  Beta  occ. eigenvalues --   -0.53518  -0.51301  -0.50642  -0.49958  -0.48512
  Beta  occ. eigenvalues --   -0.47970  -0.46583  -0.46258  -0.43697  -0.40059
  Beta  occ. eigenvalues --   -0.38047  -0.37260  -0.37103  -0.36338  -0.35044
  Beta  occ. eigenvalues --   -0.34349  -0.32758  -0.31784  -0.31536  -0.29272
  Beta virt. eigenvalues --   -0.16653  -0.06774  -0.04953  -0.03485  -0.02219
  Beta virt. eigenvalues --   -0.00709  -0.00014   0.01952   0.02301   0.03042
  Beta virt. eigenvalues --    0.03412   0.04327   0.05529   0.06290   0.06461

 Mulliken charges and spin densities:
               1          2
     1  Cl   0.441883  -0.000000
     2  C    0.650501   0.000000
     3  C    0.655216  -0.000000
     4  Cl   0.441151   0.000000
     5  C   -2.097112  -0.000000
     6  O   -0.092012  -0.000000
     7  C    0.650283   0.000000
     8  C    0.655795   0.000000
     9  Cl   0.441165  -0.000000
    10  C   -2.096594  -0.000000
    11  O   -0.092013   0.000000
    12  Cl   0.441738  -0.000000
 Sum of Mulliken charges =  -0.00000   0.00000

 Dipole moment (field-independent basis, Debye):
    X=             -0.0006    Y=              0.0005    Z=              0.0001  Tot=              0.0007
 Quadrupole moment (field-independent basis, Debye-Ang):
   XX=            -90.3834   YY=           -107.6461   ZZ=            -92.3126
   XY=             -0.8114   XZ=             -0.4449   YZ=              1.5596

  Exact polarizability: 143.999  -0.988 170.749 -21.714  -9.137  69.789
 Approx polarizability: 196.444   4.147 354.618 -26.816 -23.513 107.610

                      1                      2                      3
                      A                      A                      A
 Frequencies --     47.9726                60.2585                85.0507
 Red. masses --     18.2246                33.5395                20.2830
 Frc consts  --      0.0247                 0.0718                 0.0864
 IR Inten    --      2.1188                 0.0002                 0.0000

                      4                      5                      6
                      A                      A                      A
 Frequencies --    178.7159               199.5461               203.3585
 Red. masses --     13.9142                34.3744                25.1526
 Frc consts  --      0.2618                 0.8064                 0.6129
 IR Inten    --      5.0873                 0.0000                 0.0285

                      7                      8                      9
                      A                      A                      A
 Frequencies --    213.8012               264.6803               301.6346
 Red. masses --     31.8237                23.9764                12.5837
 Frc consts  --      0.8571                 0.9896                 0.6746
 IR Inten    --      0.1559                 0.0000                 0.0000

                     10                     11                     12
                      A                      A                      A
 Frequencies --    322.3863               338.6443               380.7120
 Red. masses --     27.1371                18.3800                17.8454
 Frc consts  --      1.6618                 1.2419                 1.5239
 IR Inten    --      0.0000                 0.0000                 4.6509

                     13                     14                     15
                      A                      A                      A
 Frequencies --    434.0408               465.8745               488.2004
 Red. masses --     12.5164                21.6717                14.7294
 Frc consts  --      1.3893                 2.7713                 2.0684
 IR Inten    --      0.0000                 5.0116                 0.0000

                     16                     17                     18
                      A                      A                      A
 Frequencies --    550.4422               729.3751               733.5049
 Red. masses --     12.1779                12.6711                14.8585
 Frc consts  --      2.1739                 3.9716                 4.7101
 IR Inten    --      0.0000                 0.0063               204.9007

                     19                     20                     21
                      A                      A                      A
 Frequencies --    736.7416               783.3612               844.7759
 Red. masses --     12.2198                12.1347                13.5259
 Frc consts  --      3.9079                 4.3874                 5.6872
 IR Inten    --     11.6188                 0.0000                 0.0001

                     22                     23                     24
                      A                      A                      A
 Frequencies --    905.5764               986.0296              1101.2870
 Red. masses --     12.9583                12.9081                12.1871
 Frc consts  --      6.2610                 7.3942                 8.7086
 IR Inten    --     17.1618                 0.0007               400.7420

                     25                     26                     27
                      A                      A                      A
 Frequencies --   1216.1924              1228.4981              1594.5132
 Red. masses --     12.1118                12.0254                12.0219
 Frc consts  --     10.5551                10.6930                18.0086
 IR Inten    --    111.0033                 0.0344               258.5805

                     28                     29                     30
                      A                      A                      A
 Frequencies --   1633.6819              1752.5146              1753.6878
 Red. masses --     12.0128                13.3022                13.2676
 Frc consts  --     18.8899                24.0712                24.0407
 IR Inten    --      0.0018                17.0185               396.7183

 - Thermochemistry -
 -------------------
 Temperature   298.150 Kelvin.  Pressure   1.00000 Atm.
 Atom     1 has atomic number 17 and mass  34.96885

 Molecular mass:   243.86524 amu.
 Principal axes and moments of inertia in atomic units:
                           1         2         3
     Eigenvalues --  2372.560263974.890306347.45056
           X            0.96482   0.04276   0.25939
           Y           -0.06666   0.99423   0.08408
           Z           -0.25430  -0.09841   0.96211
 This molecule is an asymmetric top.
 Rotational symmetry number  1.
 Warning -- assumption of classical behavior for rotation
           may cause significant error
 Rotational temperatures (Kelvin)      0.03651     0.02179     0.01365
 Rotational constants (GHZ):           0.76067     0.45404     0.28433
 Zero-point vibrational energy     122826.9 (Joules/Mol)
                                   29.35634 (Kcal/Mol)
 Warning -- explicit consideration of  16 degrees of freedom as
           vibrations may cause significant error
 Vibrational temperatures:     69.02    86.70   122.37   257.13   287.10
          (Kelvin)            292.59   307.61   380.82   433.98   463.84
                              487.23   547.76   624.49   670.29   702.41
                              791.96  1049.41  1055.35  1060.01  1127.08
                             1215.44  1302.92  1418.68  1584.51  1749.83
                             1767.53  2294.15  2350.50  2521.48  2523.17

 Zero-point correction=                           0.046782 (Hartree/Particle)
 Thermal correction to Energy=                    0.057819
 Thermal correction to Enthalpy=                  0.058764
 Thermal correction to Gibbs Free Energy=         0.007658
 Sum of electronic and zero-point Energies=          -2219.982798
 Sum of electronic and thermal Energies=             -2219.971761
 Sum of electronic and thermal Enthalpies=           -2219.970817
 Sum of electronic and thermal Free Energies=        -2220.021923

                     E (Thermal)             CV                S
                      KCal/Mol        Cal/Mol-Kelvin    Cal/Mol-Kelvin
 Total                   36.282             37.788            107.561
 Electronic               0.000              0.000              0.000
 Translational            0.889              2.981             42.375
 Rotational               0.889              2.981             32.459
 Vibrational             34.505             31.826             32.727
 Vibration     1          0.595              1.978              4.899
 Vibration     2          0.597              1.973              4.449
 Vibration     3          0.601              1.960              3.771
 Vibration     4          0.629              1.868              2.342
 Vibration     5          0.638              1.841              2.137
 Vibration     6          0.639              1.835              2.102
 Vibration     7          0.644              1.820              2.011
 Vibration     8          0.671              1.738              1.631
 Vibration     9          0.694              1.671              1.408
 Vibration    10          0.707              1.631              1.298
 Vibration    11          0.719              1.598              1.219
 Vibration    12          0.750              1.511              1.036
 Vibration    13          0.795              1.396              0.846
 Vibration    14          0.823              1.326              0.749
 Vibration    15          0.844              1.276              0.688
 Vibration    16          0.906              1.139              0.543

 Optimization completed.
    -- Stationary point found.
 Normal termination of Gaussian 16 at Sat Jan  6 05:50:43 2024.
