 Gaussian 16, Revision A.03,
 Gaussian 16:  ES64L-G16RevA.03 25-Dec-2016

 ----------------------------------------------------------------------
 #P UB3LYP/6-311++G(d,p) nosym opt freq SCRF=(PCM,Solvent=n,n-DiMethylF
 ormamide)
 ----------------------------------------------------------------------

 -------
 Radical
 -------
 Symbolic Z-matrix:
 Charge = -1 Multiplicity = 2

 SCF Done:  E(UB3LYP) =  -817.400610502     A.U. after   24 cycles
 SCF Done:  E(UB3LYP) =  -817.394022123     A.U. after   22 cycles
 SCF Done:  E(UB3LYP) =  -817.400916654     A.U. after   21 cycles
 SCF Done:  E(UB3LYP) =  -817.401304716     A.U. after   18 cycles
 SCF Done:  E(UB3LYP) =  -817.401413119     A.U. after   18 cycles
 SCF Done:  E(UB3LYP) =  -817.401427731     A.U. after   17 cycles
 SCF Done:  E(UB3LYP) =  -817.401436162     A.U. after   14 cycles
 SCF Done:  E(UB3LYP) =  -817.401437089     A.U. after   14 cycles
 SCF Done:  E(UB3LYP) =  -817.401437242     A.U. after   11 cycles
 Optimization completed.
    -- Stationary point found.
 Normal termination of Gaussian 16 at Sat Feb 10 12:11:15 2024.

 ----------------------------------------------------------------------
 #P Geom=AllCheck Guess=TCheck SCRF=Check GenChk UB3LYP/6-311++G(d,p) F
 req
 ----------------------------------------------------------------------

 Structure from the checkpoint file:  "099-rad.chk"
 -------
 Radical
 -------
 Charge = -1 Multiplicity = 2

                          Input orientation:
 ---------------------------------------------------------------------
 Center     Atomic      Atomic             Coordinates (Angstroms)
 Number     Number       Type             X           Y           Z
 ---------------------------------------------------------------------
      1          6           0       -0.024655   -0.833592    1.470129
      2          6           0       -0.082112   -0.803994    0.009952
      3          6           0       -0.681144   -1.829313   -0.686436
      4          6           0       -1.294012   -2.967197   -0.044811
      5          6           0       -1.233823   -2.984679    1.399710
      6          6           0       -0.632578   -1.980754    2.105578
      7          8           0        0.535576    0.082333    2.141470
      8          8           0       -1.852244   -3.895092   -0.711078
      9          6           0        0.588775    0.298155   -0.721593
     10          1           0       -1.684989   -3.830728    1.909495
     11          1           0       -0.726113   -1.798704   -1.770759
     12          1           0       -0.591093   -2.011928    3.190103
     13          6           0        0.429621    1.667545   -0.444004
     14          6           0        1.146151    2.663915   -1.103412
     15          6           0        2.041499    2.312698   -2.106141
     16          6           0        2.217664    0.966371   -2.421983
     17          6           0        1.512523   -0.015387   -1.731317
     18          7           0       -0.577459    2.138550    0.521952
     19          8           0       -0.304843    3.125568    1.200015
     20          8           0       -1.657688    1.561232    0.562529
     21          1           0        0.978104    3.700064   -0.842390
     22          1           0        2.590864    3.082291   -2.634061
     23          1           0        2.916474    0.676479   -3.198014
     24          1           0        1.692348   -1.059883   -1.954707
 ---------------------------------------------------------------------

 SCF Done:  E(UB3LYP) =  -817.401437242     A.U. after    2 cycles

 Alpha  occ. eigenvalues --  -19.16927 -19.16861 -19.08252 -19.08058 -14.56099
 Alpha  occ. eigenvalues --  -10.24190 -10.22768 -10.22294 -10.21376 -10.20089
 Alpha  occ. eigenvalues --  -10.19418 -10.19212 -10.19185 -10.18589 -10.16943
 Alpha  occ. eigenvalues --  -10.16847 -10.16781  -1.24484  -1.06996  -1.00430
 Alpha  occ. eigenvalues --   -0.99735  -0.89609  -0.83354  -0.81149  -0.78836
 Alpha  occ. eigenvalues --   -0.74148  -0.70611  -0.68547  -0.64042  -0.60952
 Alpha  occ. eigenvalues --   -0.59853  -0.57922  -0.55407  -0.54472  -0.53013
 Alpha  occ. eigenvalues --   -0.50715  -0.48346  -0.47350  -0.46860  -0.46200
 Alpha  occ. eigenvalues --   -0.44620  -0.42839  -0.41374  -0.40781  -0.39377
 Alpha  occ. eigenvalues --   -0.39151  -0.38318  -0.37616  -0.36961  -0.36242
 Alpha  occ. eigenvalues --   -0.33074  -0.32778  -0.31782  -0.29221  -0.27998
 Alpha  occ. eigenvalues --   -0.27747  -0.25326  -0.24772  -0.24308  -0.16807
 Alpha virt. eigenvalues --   -0.09899  -0.04035  -0.02416  -0.00329  -0.00171
 Alpha virt. eigenvalues --    0.00779   0.01503   0.02026   0.02461   0.02641
 Alpha virt. eigenvalues --    0.03737   0.04473   0.04931   0.05226   0.05773

  Beta  occ. eigenvalues --  -19.16926 -19.16857 -19.07571 -19.07324 -14.56101
  Beta  occ. eigenvalues --  -10.24174 -10.22632 -10.22170 -10.21390 -10.20094
  Beta  occ. eigenvalues --  -10.19422 -10.19200 -10.19172 -10.18473 -10.16818
  Beta  occ. eigenvalues --  -10.16746 -10.16679  -1.24482  -1.06991  -0.99244
  Beta  occ. eigenvalues --   -0.98437  -0.89567  -0.82818  -0.81132  -0.78637
  Beta  occ. eigenvalues --   -0.73960  -0.70474  -0.67637  -0.63855  -0.60862
  Beta  occ. eigenvalues --   -0.59553  -0.57730  -0.55279  -0.54415  -0.53000
  Beta  occ. eigenvalues --   -0.50621  -0.48207  -0.46957  -0.46721  -0.46052
  Beta  occ. eigenvalues --   -0.44463  -0.42708  -0.40219  -0.40072  -0.39136
  Beta  occ. eigenvalues --   -0.38518  -0.37982  -0.36783  -0.36044  -0.34864
  Beta  occ. eigenvalues --   -0.32911  -0.32718  -0.31714  -0.28495  -0.27708
  Beta  occ. eigenvalues --   -0.25323  -0.24419  -0.24127  -0.23645
  Beta virt. eigenvalues --   -0.09893  -0.09613  -0.03560  -0.02223  -0.00199
  Beta virt. eigenvalues --    0.00583   0.00881   0.01544   0.02233   0.02656
  Beta virt. eigenvalues --    0.03328   0.04284   0.04596   0.05090   0.05516

 Mulliken charges and spin densities:
               1          2
     1  C   -1.377742   0.081219
     2  C    1.884425   0.078776
     3  C   -0.271419   0.057790
     4  C   -0.423914   0.118710
     5  C    0.039672   0.075442
     6  C   -0.121938   0.069441
     7  O   -0.430964   0.247463
     8  O   -0.505282   0.257264
     9  C    1.011327   0.006823
    10  H    0.194482  -0.005886
    11  H    0.207399  -0.008520
    12  H    0.193415  -0.007264
    13  C   -0.511468   0.024932
    14  C   -0.071573  -0.005321
    15  C   -0.399789   0.009282
    16  C   -0.418729  -0.005206
    17  C   -0.600435   0.004516
    18  N   -0.193428   0.000449
    19  O   -0.026465   0.001059
    20  O   -0.037018   0.000432
    21  H    0.241646   0.000208
    22  H    0.203413  -0.000633
    23  H    0.205160   0.000466
    24  H    0.209224  -0.001442
 Sum of Mulliken charges =  -1.00000   1.00000

 Dipole moment (field-independent basis, Debye):
    X=              6.8219    Y=              6.4364    Z=             -6.5260  Tot=             11.4260
 Quadrupole moment (field-independent basis, Debye-Ang):
   XX=           -110.6940   YY=           -140.0456   ZZ=           -107.4989
   XY=            -11.9505   XZ=            -12.4428   YZ=            -19.8107

  Exact polarizability: 213.809  82.348 325.565 -29.079  21.618 259.347
 Approx polarizability: 248.032  92.093 366.354 -20.592  48.766 294.035

                      1                      2                      3
                      A                      A                      A
 Frequencies --     47.2769                74.8335                80.3772
 Red. masses --     10.0610                 4.8423                 8.2911
 Frc consts  --      0.0132                 0.0160                 0.0316
 IR Inten    --      1.5051                 4.3146                 1.1840

                      4                      5                      6
                      A                      A                      A
 Frequencies --    106.7151               130.6976               146.1638
 Red. masses --      7.9872                10.2164                 6.6454
 Frc consts  --      0.0536                 0.1028                 0.0836
 IR Inten    --      2.0938                16.7707                 1.0557

                      7                      8                      9
                      A                      A                      A
 Frequencies --    192.8398               249.1414               264.7310
 Red. masses --      7.8684                 7.0968                 7.1026
 Frc consts  --      0.1724                 0.2595                 0.2933
 IR Inten    --      2.1311                 8.6587                 8.8585

                     10                     11                     12
                      A                      A                      A
 Frequencies --    305.0475               343.6519               389.7132
 Red. masses --      7.3096                 5.0902                 8.2863
 Frc consts  --      0.4008                 0.3542                 0.7415
 IR Inten    --      7.1806                 0.9083                12.0075

                     13                     14                     15
                      A                      A                      A
 Frequencies --    412.1796               422.1733               467.6320
 Red. masses --      4.0318                 7.2259                 4.4372
 Frc consts  --      0.4036                 0.7588                 0.5717
 IR Inten    --      5.3942                 6.2257                 4.1476

                     16                     17                     18
                      A                      A                      A
 Frequencies --    480.7204               509.7385               570.5887
 Red. masses --     10.3188                 3.5540                 4.4945
 Frc consts  --      1.4050                 0.5441                 0.8621
 IR Inten    --      0.9830                 0.7973                 4.5756

                     19                     20                     21
                      A                      A                      A
 Frequencies --    575.1887               627.5045               640.1575
 Red. masses --      4.8744                 3.4194                 5.5185
 Frc consts  --      0.9502                 0.7933                 1.3324
 IR Inten    --      4.5398                 8.2204                 1.2043

                     22                     23                     24
                      A                      A                      A
 Frequencies --    673.9091               720.6678               728.4915
 Red. masses --      6.6583                 4.6920                 6.8991
 Frc consts  --      1.7816                 1.4357                 2.1572
 IR Inten    --      4.2532                43.8084                17.5221

                     25                     26                     27
                      A                      A                      A
 Frequencies --    753.1853               764.9383               798.4300
 Red. masses --      2.4089                 2.4248                 2.3385
 Frc consts  --      0.8051                 0.8359                 0.8783
 IR Inten    --     69.6400                19.9788                22.5993

                     28                     29                     30
                      A                      A                      A
 Frequencies --    821.6653               829.8256               862.4735
 Red. masses --      5.0106                 2.0291                 9.5669
 Frc consts  --      1.9931                 0.8232                 4.1929
 IR Inten    --     70.1823                47.2926                30.2387

                     31                     32                     33
                      A                      A                      A
 Frequencies --    889.4910               894.4442               902.1824
 Red. masses --      1.6489                 2.9881                 1.9115
 Frc consts  --      0.7686                 1.4085                 0.9167
 IR Inten    --     23.5403                42.0462                 9.2086

                     34                     35                     36
                      A                      A                      A
 Frequencies --    967.9461               978.7017              1004.2030
 Red. masses --      1.2908                 1.3906                 3.3191
 Frc consts  --      0.7125                 0.7848                 1.9720
 IR Inten    --      0.3132                 2.1275                59.7534

                     37                     38                     39
                      A                      A                      A
 Frequencies --   1011.6001              1063.0844              1095.8666
 Red. masses --      1.3322                 2.5763                 2.7459
 Frc consts  --      0.8033                 1.7155                 1.9429
 IR Inten    --      2.0468                 4.3336                 5.5528

                     40                     41                     42
                      A                      A                      A
 Frequencies --   1116.1946              1159.0204              1180.9463
 Red. masses --      1.7046                 1.8791                 1.1068
 Frc consts  --      1.2512                 1.4873                 0.9095
 IR Inten    --     17.6704                12.5416                 3.5050

                     43                     44                     45
                      A                      A                      A
 Frequencies --   1205.3181              1251.5781              1256.5611
 Red. masses --      2.0278                 3.3683                 1.5029
 Frc consts  --      1.7357                 3.1087                 1.3982
 IR Inten    --     18.3456                28.3418                20.9809

                     46                     47                     48
                      A                      A                      A
 Frequencies --   1285.7800              1333.2348              1353.8505
 Red. masses --      2.0051                 4.1844                 2.2216
 Frc consts  --      1.9531                 4.3822                 2.3992
 IR Inten    --      6.8783                69.2568                23.1028

                     49                     50                     51
                      A                      A                      A
 Frequencies --   1373.3734              1427.7512              1465.9677
 Red. masses --     12.9359                 4.6918                 2.3142
 Frc consts  --     14.3755                 5.6350                 2.9303
 IR Inten    --    444.4662               210.5848                33.8070

                     52                     53                     54
                      A                      A                      A
 Frequencies --   1475.9700              1491.7544              1508.0456
 Red. masses --     10.9096                 3.0469                 4.6484
 Frc consts  --     14.0028                 3.9948                 6.2285
 IR Inten    --     37.7909               149.5376               833.9867

                     55                     56                     57
                      A                      A                      A
 Frequencies --   1519.5994              1542.2627              1600.4136
 Red. masses --      4.8965                 9.3426                 5.6881
 Frc consts  --      6.6618                13.0929                 8.5838
 IR Inten    --    291.5817               563.7848                55.5536

                     58                     59                     60
                      A                      A                      A
 Frequencies --   1634.1699              1643.4959              3149.0218
 Red. masses --      6.4917                 6.9560                 1.0861
 Frc consts  --     10.2142                11.0700                 6.3453
 IR Inten    --     85.1135                 4.2069                27.3560

                     61                     62                     63
                      A                      A                      A
 Frequencies --   3158.1691              3167.9596              3177.9691
 Red. masses --      1.0901                 1.0953                 1.0871
 Frc consts  --      6.4059                 6.4767                 6.4689
 IR Inten    --     22.4414                30.8140                 3.1442

                     64                     65                     66
                      A                      A                      A
 Frequencies --   3190.8664              3198.1529              3213.8367
 Red. masses --      1.0907                 1.0953                 1.0945
 Frc consts  --      6.5427                 6.6005                 6.6609
 IR Inten    --      7.7324                14.8899                 3.9948

 - Thermochemistry -
 -------------------
 Temperature   298.150 Kelvin.  Pressure   1.00000 Atm.
 Atom     1 has atomic number  6 and mass  12.00000

 Molecular mass:   229.03751 amu.
 Principal axes and moments of inertia in atomic units:
                           1         2         3
     Eigenvalues --  2218.239704842.133976103.72973
           X            0.37516  -0.38594   0.84280
           Y            0.89649   0.38226  -0.22401
           Z           -0.23571   0.83960   0.48940
 This molecule is an asymmetric top.
 Rotational symmetry number  1.
 Warning -- assumption of classical behavior for rotation
           may cause significant error
 Rotational temperatures (Kelvin)      0.03905     0.01789     0.01419
 Rotational constants (GHZ):           0.81359     0.37272     0.29568
 Zero-point vibrational energy     435915.9 (Joules/Mol)
                                  104.18639 (Kcal/Mol)
 Warning -- explicit consideration of  19 degrees of freedom as
           vibrations may cause significant error
 Vibrational temperatures:     68.02   107.67   115.64   153.54   188.04
          (Kelvin)            210.30   277.45   358.46   380.89   438.90
                              494.44   560.71   593.03   607.41   672.82
                              691.65   733.40   820.95   827.57   902.84
                              921.04   969.60  1036.88  1048.14  1083.67
                             1100.58  1148.76  1182.19  1193.93  1240.91
                             1279.78  1286.91  1298.04  1392.66  1408.13
                             1444.82  1455.47  1529.54  1576.71  1605.96
                             1667.57  1699.12  1734.18  1800.74  1807.91
                             1849.95  1918.23  1947.89  1975.98  2054.22
                             2109.20  2123.59  2146.30  2169.74  2186.36
                             2218.97  2302.64  2351.21  2364.62  4530.74
                             4543.90  4557.99  4572.39  4590.95  4601.43
                             4623.99

 Zero-point correction=                           0.166032 (Hartree/Particle)
 Thermal correction to Energy=                    0.179222
 Thermal correction to Enthalpy=                  0.180166
 Thermal correction to Gibbs Free Energy=         0.124906
 Sum of electronic and zero-point Energies=           -817.235406
 Sum of electronic and thermal Energies=              -817.222216
 Sum of electronic and thermal Enthalpies=            -817.221271
 Sum of electronic and thermal Free Energies=         -817.276531

                     E (Thermal)             CV                S
                      KCal/Mol        Cal/Mol-Kelvin    Cal/Mol-Kelvin
 Total                  112.463             51.010            116.303
 Electronic               0.000              0.000              1.377
 Translational            0.889              2.981             42.188
 Rotational               0.889              2.981             32.550
 Vibrational            110.686             45.048             40.188
 Vibration     1          0.595              1.979              4.928
 Vibration     2          0.599              1.966              4.022
 Vibration     3          0.600              1.962              3.882
 Vibration     4          0.606              1.944              3.328
 Vibration     5          0.612              1.923              2.936
 Vibration     6          0.617              1.907              2.722
 Vibration     7          0.635              1.850              2.200
 Vibration     8          0.662              1.764              1.737
 Vibration     9          0.671              1.738              1.630
 Vibration    10          0.696              1.664              1.389
 Vibration    11          0.722              1.588              1.195
 Vibration    12          0.758              1.492              1.001
 Vibration    13          0.776              1.444              0.919
 Vibration    14          0.785              1.422              0.885
 Vibration    15          0.825              1.322              0.744
 Vibration    16          0.837              1.293              0.708
 Vibration    17          0.865              1.228              0.634
 Vibration    18          0.927              1.095              0.503
 Vibration    19          0.932              1.085              0.494

 Optimization completed.
    -- Stationary point found.
 Normal termination of Gaussian 16 at Sat Feb 10 13:00:33 2024.
