 Gaussian 16, Revision A.03,
 Gaussian 16:  ES64L-G16RevA.03 25-Dec-2016

 ----------------------------------------------------------------
 #P UB3LYP/6-311++G(d,p) SCRF=(PCM,Solvent=n,n-DiMethylFormamide)
 ----------------------------------------------------------------

 ------------------
 Radical PCM in DMF
 ------------------
 Symbolic Z-matrix:
 Charge = -1 Multiplicity = 2

                         Standard orientation:
 ---------------------------------------------------------------------
 Center     Atomic      Atomic             Coordinates (Angstroms)
 Number     Number       Type             X           Y           Z
 ---------------------------------------------------------------------
      1          6           0        2.989388   -1.918141   -0.545474
      2          6           0        4.291751   -2.127761   -0.126068
      3          6           0        5.006298   -1.085606    0.492806
      4          6           0        2.361302   -0.671471   -0.363358
      5          6           0        3.081980    0.377775    0.259668
      6          6           0        4.405380    0.146720    0.680343
      7          6           0        0.966420   -0.496880   -0.837327
      8          6           0        0.400836    0.815888   -0.594497
      9          6           0        1.110727    1.836814    0.020734
     10          6           0        2.465199    1.701949    0.474137
     11         16           0       -1.230366    1.185364   -1.232659
     12          6           0       -2.365065    0.309262   -0.170782
     13          6           0       -1.983787   -0.351101    1.000639
     14          6           0       -3.719483    0.324357   -0.534858
     15          6           0       -4.692025   -0.299781    0.246589
     16          6           0       -2.950486   -0.975251    1.783751
     17          6           0       -4.296091   -0.952212    1.420181
     18          6           0       -6.140200   -0.301383   -0.188060
     19          8           0        0.348470   -1.431657   -1.390923
     20          8           0        3.091399    2.644419    1.027154
     21          1           0        2.414742   -2.702006   -1.025252
     22          1           0        4.761970   -3.095450   -0.273777
     23          1           0        6.028112   -1.249423    0.822329
     24          1           0        4.929859    0.968935    1.153762
     25          1           0        0.641594    2.801306    0.180833
     26          1           0       -0.941111   -0.374474    1.289729
     27          1           0       -4.015184    0.830654   -1.449518
     28          1           0       -2.646718   -1.485443    2.692514
     29          1           0       -5.037824   -1.442395    2.043654
     30          1           0       -6.366916    0.559176   -0.822819
     31          1           0       -6.814476   -0.273805    0.672820
     32          1           0       -6.380002   -1.204048   -0.762136
 ---------------------------------------------------------------------

 SCF Done:  E(UB3LYP) =  -1204.06186799     A.U. after   22 cycles

 The electronic state is 2-A.
 Alpha  occ. eigenvalues --  -88.85161 -19.08327 -19.08234 -10.23316 -10.22703
 Alpha  occ. eigenvalues --  -10.20907 -10.19775 -10.18728 -10.17946 -10.17827
 Alpha  occ. eigenvalues --  -10.17723 -10.17722 -10.17666 -10.17460 -10.17378
 Alpha  occ. eigenvalues --  -10.17362 -10.17318 -10.17225 -10.16985 -10.16608
 Alpha  occ. eigenvalues --   -7.93768  -5.90162  -5.89759  -5.89179  -1.01184
 Alpha  occ. eigenvalues --   -1.00543  -0.86973  -0.86282  -0.82522  -0.78833
 Alpha  occ. eigenvalues --   -0.76803  -0.75415  -0.74855  -0.70739  -0.68738
 Alpha  occ. eigenvalues --   -0.67077  -0.62150  -0.61191  -0.60253  -0.57563
 Alpha  occ. eigenvalues --   -0.55758  -0.51448  -0.50999  -0.49938  -0.47429
 Alpha  occ. eigenvalues --   -0.46854  -0.45419  -0.44374  -0.42976  -0.42860
 Alpha  occ. eigenvalues --   -0.42318  -0.42186  -0.42070  -0.41163  -0.40726
 Alpha  occ. eigenvalues --   -0.39593  -0.38913  -0.38338  -0.37101  -0.36582
 Alpha  occ. eigenvalues --   -0.35783  -0.35106  -0.34627  -0.34300  -0.33073
 Alpha  occ. eigenvalues --   -0.29416  -0.28106  -0.26008  -0.25664  -0.25275
 Alpha  occ. eigenvalues --   -0.25114  -0.24298  -0.21492  -0.16126
 Alpha virt. eigenvalues --   -0.03898  -0.02796  -0.01735  -0.01432  -0.00417
 Alpha virt. eigenvalues --    0.00138   0.01232   0.01263   0.01721   0.02309
 Alpha virt. eigenvalues --    0.02776   0.03153   0.03494   0.03859   0.04226

  Beta  occ. eigenvalues --  -88.85163 -19.07760 -19.07568 -10.23191 -10.22570
  Beta  occ. eigenvalues --  -10.20892 -10.19599 -10.18728 -10.17909 -10.17800
  Beta  occ. eigenvalues --  -10.17723 -10.17703 -10.17639 -10.17459 -10.17376
  Beta  occ. eigenvalues --  -10.17350 -10.17315 -10.16996 -10.16983 -10.16608
  Beta  occ. eigenvalues --   -7.93769  -5.90168  -5.89764  -5.89176  -1.00198
  Beta  occ. eigenvalues --   -0.99376  -0.86935  -0.86107  -0.82125  -0.78655
  Beta  occ. eigenvalues --   -0.76769  -0.75261  -0.74717  -0.70377  -0.68712
  Beta  occ. eigenvalues --   -0.66381  -0.61963  -0.60957  -0.60237  -0.57465
  Beta  occ. eigenvalues --   -0.55534  -0.51318  -0.50825  -0.49707  -0.47318
  Beta  occ. eigenvalues --   -0.46677  -0.45310  -0.44318  -0.42873  -0.42490
  Beta  occ. eigenvalues --   -0.42188  -0.41817  -0.41577  -0.40786  -0.40125
  Beta  occ. eigenvalues --   -0.39314  -0.38872  -0.37143  -0.36501  -0.35833
  Beta  occ. eigenvalues --   -0.35091  -0.34931  -0.34567  -0.34175  -0.32681
  Beta  occ. eigenvalues --   -0.29254  -0.25686  -0.25407  -0.25106  -0.25071
  Beta  occ. eigenvalues --   -0.24545  -0.23749  -0.21371
  Beta virt. eigenvalues --   -0.09411  -0.03139  -0.02035  -0.01472  -0.01317
  Beta virt. eigenvalues --   -0.00407   0.00147   0.01247   0.01275   0.01731
  Beta virt. eigenvalues --    0.02424   0.02800   0.03176   0.03692   0.03886

 Mulliken charges and spin densities:
               1          2
     1  C    0.110259   0.026881
     2  C   -0.425841   0.020221
     3  C   -0.485873   0.012034
     4  C   -0.133408  -0.013769
     5  C    0.587856   0.024792
     6  C   -0.075836   0.027789
     7  C   -0.862113   0.103530
     8  C    1.563616   0.095473
     9  C   -0.242549   0.163154
    10  C   -0.619711   0.098456
    11  S   -0.267249  -0.002089
    12  C    0.225114   0.007487
    13  C    0.086486   0.005726
    14  C   -0.743337   0.000880
    15  C    0.191235  -0.001343
    16  C   -0.229930  -0.007792
    17  C   -0.524655   0.002848
    18  C   -0.432101   0.000007
    19  O   -0.409439   0.211803
    20  O   -0.479714   0.240998
    21  H    0.183369  -0.002234
    22  H    0.185152  -0.001762
    23  H    0.185273  -0.001146
    24  H    0.175399  -0.003183
    25  H    0.209479  -0.013685
    26  H    0.183686   0.004888
    27  H    0.190952   0.000236
    28  H    0.207066  -0.000169
    29  H    0.164391  -0.000020
    30  H    0.151798   0.000015
    31  H    0.150872   0.000003
    32  H    0.179751  -0.000028
 Sum of Mulliken charges =  -1.00000   1.00000

 Dipole moment (field-independent basis, Debye):
    X=             -6.5798    Y=             -4.2846    Z=              1.8842  Tot=              8.0747
 Quadrupole moment (field-independent basis, Debye-Ang):
   XX=           -135.5077   YY=           -149.3743   ZZ=           -135.9833
   XY=            -18.4192   XZ=             -5.9369   YZ=            -12.4207

 Normal termination of Gaussian 16 at Thu Jan 25 05:52:54 2024.
