 Q-Chem 5.4, Q-Chem, Inc., Pleasanton, CA (2021)
 Q-Chem 5.4.0 for Intel X86 EM64T Linux

User input:
--------------------------------------------------------------
$molecule
-1 2
C                 -1.1308510000      2.9739070000     -0.5394750000
C                 -2.4469130000      2.5514870000     -0.3956550000
C                 -2.7348750000      1.2470080000      0.0177990000
C                 -0.0732070000      2.0827680000     -0.2607130000
C                 -0.3650120000      0.7557140000      0.1421650000
C                 -1.7100600000      0.3478060000      0.2679410000
C                  1.3238420000      2.5646460000     -0.4074890000
C                  2.3691290000      1.6036170000     -0.1071500000
C                  2.0571140000      0.3040090000      0.2789200000
C                  0.7279290000     -0.1825710000      0.4582690000
O                  1.5176570000      3.7364220000     -0.7835180000
O                  0.4813240000     -1.3435600000      0.8809660000
H                 -3.7666320000      0.9307200000      0.1270240000
H                  2.8531130000     -0.3950650000      0.5010530000
C                 -2.0886470000     -1.0486910000      0.6720980000
O                 -2.5569700000     -1.3521830000      1.7448140000
O                 -1.9985460000     -1.9034040000     -0.3715980000
C                 -2.1578260000     -3.2888290000     -0.0446240000
H                 -3.2569120000      3.2362180000     -0.6218140000
H                 -2.0650240000     -3.8253910000     -0.9878930000
H                 -3.1335900000     -3.4760200000      0.4087460000
H                 -1.3678690000     -3.5908130000      0.6455920000
C                  3.7837780000      2.0278180000     -0.1663870000
O                  4.2282290000      3.1434260000     -0.0177570000
O                  4.6228360000      0.9579950000     -0.3924420000
C                 -0.9502940000      4.3777730000     -1.0783310000
O                 -1.1533680000      4.6367040000     -2.2382830000
O                 -0.8184880000      5.4006320000     -0.1939380000
C                 -0.3609710000      5.1582940000      1.1427770000
C                  6.0160280000      1.2683090000     -0.3953910000
H                 -0.5317740000      6.0904810000      1.6814470000
H                  0.7023670000      4.9187700000      1.1282670000
H                 -0.9232770000      4.3531020000      1.6217080000
H                  6.5271490000      0.3250210000     -0.5874940000
H                  6.3295440000      1.6798200000      0.5675050000
H                  6.2537960000      1.9946700000     -1.1760690000
$end
$rem
MAX_SCF_CYCLES=200
BASIS  =  6-311++G(d,p)
GUI  =  2
JOB_TYPE  =  SP
METHOD  =  B3LYP
SOLVENT_METHOD = PCM
$end
$pcm
theory = CPCM
$end
$solvent
dielectric 37.219
opticaldielectric 1.43
$end

--------------------------------------------------------------

             Standard Nuclear Orientation (Angstroms)
    I     Atom           X                Y                Z
 ----------------------------------------------------------------
    1      C      -1.1308510000     2.9739070000    -0.5394750000
    2      C      -2.4469130000     2.5514870000    -0.3956550000
    3      C      -2.7348750000     1.2470080000     0.0177990000
    4      C      -0.0732070000     2.0827680000    -0.2607130000
    5      C      -0.3650120000     0.7557140000     0.1421650000
    6      C      -1.7100600000     0.3478060000     0.2679410000
    7      C       1.3238420000     2.5646460000    -0.4074890000
    8      C       2.3691290000     1.6036170000    -0.1071500000
    9      C       2.0571140000     0.3040090000     0.2789200000
   10      C       0.7279290000    -0.1825710000     0.4582690000
   11      O       1.5176570000     3.7364220000    -0.7835180000
   12      O       0.4813240000    -1.3435600000     0.8809660000
   13      H      -3.7666320000     0.9307200000     0.1270240000
   14      H       2.8531130000    -0.3950650000     0.5010530000
   15      C      -2.0886470000    -1.0486910000     0.6720980000
   16      O      -2.5569700000    -1.3521830000     1.7448140000
   17      O      -1.9985460000    -1.9034040000    -0.3715980000
   18      C      -2.1578260000    -3.2888290000    -0.0446240000
   19      H      -3.2569120000     3.2362180000    -0.6218140000
   20      H      -2.0650240000    -3.8253910000    -0.9878930000
   21      H      -3.1335900000    -3.4760200000     0.4087460000
   22      H      -1.3678690000    -3.5908130000     0.6455920000
   23      C       3.7837780000     2.0278180000    -0.1663870000
   24      O       4.2282290000     3.1434260000    -0.0177570000
   25      O       4.6228360000     0.9579950000    -0.3924420000
   26      C      -0.9502940000     4.3777730000    -1.0783310000
   27      O      -1.1533680000     4.6367040000    -2.2382830000
   28      O      -0.8184880000     5.4006320000    -0.1939380000
   29      C      -0.3609710000     5.1582940000     1.1427770000
   30      C       6.0160280000     1.2683090000    -0.3953910000
   31      H      -0.5317740000     6.0904810000     1.6814470000
   32      H       0.7023670000     4.9187700000     1.1282670000
   33      H      -0.9232770000     4.3531020000     1.6217080000
   34      H       6.5271490000     0.3250210000    -0.5874940000
   35      H       6.3295440000     1.6798200000     0.5675050000
   36      H       6.2537960000     1.9946700000    -1.1760690000
 ----------------------------------------------------------------

    8   -1219.2413885029      7.94e-06  Convergence criterion met
 Total energy in the final basis set =    -1219.2413885029

                    Orbital Energies (a.u.)
 --------------------------------------------------------------

 Alpha MOs
 -- Occupied --
-19.1703 -19.1696 -19.1647 -19.1237 -19.1210 -19.1161 -19.0990 -19.0951
-10.3195 -10.3163 -10.3063 -10.2512 -10.2395 -10.2174 -10.2171 -10.2153
-10.2094 -10.2067 -10.2016 -10.2010 -10.1954 -10.1946 -10.1925 -10.1831
 -1.1150  -1.1101  -1.1063  -1.0332  -1.0323  -1.0310  -1.0212  -1.0198
 -0.8873  -0.8331  -0.8003  -0.7756  -0.7350  -0.7253  -0.7224  -0.6992
 -0.6655  -0.6477  -0.6175  -0.5884  -0.5715  -0.5570  -0.5408  -0.5302
 -0.5248  -0.5075  -0.4983  -0.4898  -0.4860  -0.4834  -0.4831  -0.4807
 -0.4694  -0.4605  -0.4487  -0.4385  -0.4356  -0.4283  -0.4246  -0.4192
 -0.4113  -0.4071  -0.4006  -0.3956  -0.3936  -0.3866  -0.3746  -0.3710
 -0.3633  -0.3602  -0.3553  -0.3135  -0.3105  -0.3076  -0.3031  -0.3003
 -0.2965  -0.2930  -0.2719  -0.2680  -0.2632  -0.2528  -0.1760

 Beta MOs
 -- Occupied --
-19.1703 -19.1696 -19.1646 -19.1237 -19.1210 -19.1155 -19.0942 -19.0883
-10.3195 -10.3163 -10.3063 -10.2501 -10.2381 -10.2174 -10.2171 -10.2153
-10.2094 -10.2065 -10.2012 -10.2007 -10.1953 -10.1943 -10.1910 -10.1803
 -1.1149  -1.1100  -1.1058  -1.0331  -1.0310  -1.0260  -1.0184  -1.0080
 -0.8858  -0.8274  -0.7994  -0.7738  -0.7344  -0.7241  -0.7213  -0.6908
 -0.6650  -0.6449  -0.6151  -0.5879  -0.5706  -0.5563  -0.5396  -0.5285
 -0.5237  -0.5055  -0.4967  -0.4896  -0.4855  -0.4824  -0.4819  -0.4803
 -0.4688  -0.4595  -0.4483  -0.4329  -0.4306  -0.4254  -0.4201  -0.4158
 -0.4100  -0.4037  -0.3977  -0.3934  -0.3897  -0.3725  -0.3698  -0.3642
 -0.3629  -0.3596  -0.3540  -0.3126  -0.3086  -0.3075  -0.3015  -0.2982
 -0.2953  -0.2680  -0.2653  -0.2635  -0.2577  -0.2481

          Ground-State Mulliken Net Atomic Charges

     Atom                 Charge (a.u.)    Spin (a.u.)
  --------------------------------------------------------
      1 C                     0.114134      -0.009487
      2 C                     0.271120       0.028487
      3 C                    -0.057648       0.005855
      4 C                     0.277204       0.017031
      5 C                     0.476291       0.016125
      6 C                     0.597834       0.020813
      7 C                    -0.804344       0.050321
      8 C                     0.229046       0.085645
      9 C                    -0.233790       0.202502
     10 C                    -0.629255       0.094106
     11 O                    -0.377067       0.188556
     12 O                    -0.401303       0.259078
     13 H                     0.231872      -0.000603
     14 H                     0.221355      -0.015392
     15 C                    -0.840483       0.000302
     16 O                    -0.250834       0.001094
     17 O                     0.020326      -0.001344
     18 C                    -0.264192       0.001399
     19 H                     0.249260      -0.001847
     20 H                     0.180772       0.000102
     21 H                     0.172827      -0.000103
     22 H                     0.189700      -0.000418
     23 C                     0.299330       0.033442
     24 O                    -0.317754       0.021414
     25 O                    -0.111109       0.000636
     26 C                    -0.357474       0.001237
     27 O                    -0.305916       0.000363
     28 O                    -0.050137       0.000189
     29 C                    -0.384398       0.000212
     30 C                    -0.263045      -0.000314
     31 H                     0.180235      -0.000732
     32 H                     0.220621       0.000017
     33 H                     0.168241       0.000955
     34 H                     0.171414       0.000040
     35 H                     0.193130       0.000025
     36 H                     0.184036       0.000295
  --------------------------------------------------------
  Sum of atomic charges =    -1.000000

                    Cartesian Multipole Moments
 -----------------------------------------------------------------
    Charge (ESU x 10^10)
                -4.8032
    Dipole Moment (Debye)
         X      -3.3104      Y     -11.0796      Z       2.7614
       Tot      11.8887
    Quadrupole Moments (Debye-Ang)
        XX    -139.9334     XY     -17.5753     YY    -201.6002
        XZ       2.9469     YZ      38.1945     ZZ    -158.8985

 Total job time:  114.15s(wall), 729.36s(cpu)
        *  Thank you very much for using Q-Chem.  Have a nice day.  *
