 Gaussian 16, Revision A.03,
 Gaussian 16:  ES64L-G16RevA.03 25-Dec-2016

 ----------------------------------------------------------------
 #P UB3LYP/6-311++G(d,p) SCRF=(PCM,Solvent=n,n-DiMethylFormamide)
 ----------------------------------------------------------------

 ------------------
 Quinone PCM in DMF
 ------------------
 Symbolic Z-matrix:
 Charge =  0 Multiplicity = 1

                         Standard orientation:
 ---------------------------------------------------------------------
 Center     Atomic      Atomic             Coordinates (Angstroms)
 Number     Number       Type             X           Y           Z
 ---------------------------------------------------------------------
      1          6           0        1.290421   -0.669389    0.071882
      2          6           0        1.290397    0.669748   -0.069463
      3          6           0       -0.000147    1.420664    0.000906
      4          6           0       -1.290567    0.669530    0.070953
      5          6           0       -1.290391   -0.669658   -0.070042
      6          6           0        0.000076   -1.420526    0.001304
      7          8           0        0.000179   -2.644236    0.001787
      8          8           0       -0.000255    2.644375    0.001199
      9          6           0       -2.548303   -1.473921   -0.276651
     10          6           0       -2.548814    1.473543    0.276612
     11          6           0       -3.817802    0.664407    0.087409
     12          6           0       -3.817630   -0.664995   -0.088845
     13          6           0        2.548591   -1.473517    0.277345
     14          6           0        3.817664   -0.664744    0.087247
     15          6           0        3.817649    0.664701   -0.088791
     16          6           0        2.548425    1.473915   -0.275981
     17          1           0       -2.542662   -2.306321    0.438477
     18          6           0       -2.529960   -2.109855   -1.696055
     19          1           0       -2.542649    2.306089   -0.438339
     20          6           0       -2.531888    2.109234    1.696102
     21          6           0       -5.098075    1.471344    0.162105
     22          6           0       -5.097680   -1.472112   -0.164869
     23          6           0        5.097828   -1.471926    0.160720
     24          6           0        5.097855    1.471587   -0.165183
     25          6           0        2.530042    2.110282   -1.695157
     26          1           0       -2.529746   -1.326936   -2.459590
     27          1           0       -3.414109   -2.731998   -1.848248
     28          1           0       -1.651318   -2.740048   -1.828568
     29          1           0       -2.532122    1.326255    2.459574
     30          1           0       -3.416322    2.731158    1.847566
     31          1           0       -1.653458    2.739554    1.829332
     32          1           0       -4.925141    2.498147   -0.172961
     33          1           0       -5.490996    1.532208    1.183797
     34          1           0       -5.884366    1.050782   -0.465986
     35          1           0       -5.884739   -1.051543    0.462251
     36          1           0       -4.924958   -2.498806    0.170628
     37          1           0       -5.489402   -1.533253   -1.186999
     38          1           0        4.924366   -2.498651   -0.174302
     39          1           0        5.491733   -1.532951    1.182018
     40          1           0        5.883475   -1.051356   -0.468173
     41          1           0        5.885305    1.050248    0.460935
     42          1           0        4.925660    2.498038    0.171362
     43          1           0        5.488777    1.533583   -1.187572
     44          6           0        2.532241   -2.108527    1.697155
     45          1           0        2.541884   -2.306378   -0.437221
     46          1           0        2.542988    2.306090    0.439415
     47          1           0        2.529808    1.327593   -2.458929
     48          1           0        3.414204    2.732469   -1.847148
     49          1           0        1.651390    2.740491   -1.827409
     50          1           0        2.532549   -1.325099    2.460170
     51          1           0        3.416863   -2.730184    1.848723
     52          1           0        1.654013   -2.739005    1.831085
 ---------------------------------------------------------------------

 SCF Done:  E(UB3LYP) =  -1005.90270258     A.U. after   13 cycles

 The electronic state is 1-A.
 Alpha  occ. eigenvalues --  -19.13439 -19.13439 -10.27994 -10.27993 -10.20620
 Alpha  occ. eigenvalues --  -10.20618 -10.20541 -10.20541 -10.19105 -10.19104
 Alpha  occ. eigenvalues --  -10.19104 -10.19103 -10.17564 -10.17564 -10.17484
 Alpha  occ. eigenvalues --  -10.17484 -10.16307 -10.16307 -10.16307 -10.16307
 Alpha  occ. eigenvalues --  -10.16289 -10.16288 -10.16288 -10.16287  -1.06782
 Alpha  occ. eigenvalues --   -1.06586  -0.88233  -0.86726  -0.82106  -0.80026
 Alpha  occ. eigenvalues --   -0.79880  -0.78984  -0.74045  -0.72032  -0.71721
 Alpha  occ. eigenvalues --   -0.71434  -0.68793  -0.67990  -0.66819  -0.65897
 Alpha  occ. eigenvalues --   -0.62568  -0.61551  -0.59584  -0.58887  -0.57282
 Alpha  occ. eigenvalues --   -0.53587  -0.51223  -0.50155  -0.48157  -0.47913
 Alpha  occ. eigenvalues --   -0.47398  -0.46993  -0.46684  -0.45544  -0.44099
 Alpha  occ. eigenvalues --   -0.43996  -0.42936  -0.42814  -0.42578  -0.42541
 Alpha  occ. eigenvalues --   -0.41687  -0.41477  -0.40601  -0.40320  -0.39905
 Alpha  occ. eigenvalues --   -0.39592  -0.39586  -0.39431  -0.38781  -0.38177
 Alpha  occ. eigenvalues --   -0.37701  -0.37589  -0.37446  -0.36849  -0.36421
 Alpha  occ. eigenvalues --   -0.36237  -0.36174  -0.35935  -0.34164  -0.33720
 Alpha  occ. eigenvalues --   -0.32792  -0.32556  -0.29406  -0.28561  -0.26829
 Alpha  occ. eigenvalues --   -0.26277  -0.23372  -0.23329
 Alpha virt. eigenvalues --   -0.12547  -0.02019  -0.01074  -0.00456  -0.00297
 Alpha virt. eigenvalues --    0.00404   0.00609   0.00810   0.00942   0.01471
 Alpha virt. eigenvalues --    0.01479   0.01796   0.02341   0.02820   0.03078

  Beta  occ. eigenvalues --  -19.13439 -19.13439 -10.27994 -10.27993 -10.20620
  Beta  occ. eigenvalues --  -10.20618 -10.20541 -10.20541 -10.19105 -10.19104
  Beta  occ. eigenvalues --  -10.19104 -10.19103 -10.17564 -10.17564 -10.17484
  Beta  occ. eigenvalues --  -10.17484 -10.16307 -10.16307 -10.16307 -10.16307
  Beta  occ. eigenvalues --  -10.16289 -10.16288 -10.16288 -10.16287  -1.06782
  Beta  occ. eigenvalues --   -1.06586  -0.88233  -0.86726  -0.82106  -0.80026
  Beta  occ. eigenvalues --   -0.79880  -0.78984  -0.74045  -0.72032  -0.71721
  Beta  occ. eigenvalues --   -0.71434  -0.68793  -0.67990  -0.66819  -0.65897
  Beta  occ. eigenvalues --   -0.62568  -0.61551  -0.59584  -0.58887  -0.57282
  Beta  occ. eigenvalues --   -0.53587  -0.51223  -0.50155  -0.48157  -0.47913
  Beta  occ. eigenvalues --   -0.47398  -0.46993  -0.46684  -0.45544  -0.44099
  Beta  occ. eigenvalues --   -0.43996  -0.42936  -0.42814  -0.42578  -0.42541
  Beta  occ. eigenvalues --   -0.41687  -0.41477  -0.40601  -0.40320  -0.39905
  Beta  occ. eigenvalues --   -0.39592  -0.39586  -0.39431  -0.38781  -0.38177
  Beta  occ. eigenvalues --   -0.37701  -0.37589  -0.37446  -0.36849  -0.36421
  Beta  occ. eigenvalues --   -0.36237  -0.36174  -0.35935  -0.34164  -0.33720
  Beta  occ. eigenvalues --   -0.32792  -0.32556  -0.29406  -0.28561  -0.26829
  Beta  occ. eigenvalues --   -0.26277  -0.23372  -0.23329
  Beta virt. eigenvalues --   -0.12547  -0.02019  -0.01074  -0.00456  -0.00297
  Beta virt. eigenvalues --    0.00404   0.00609   0.00810   0.00942   0.01471
  Beta virt. eigenvalues --    0.01479   0.01796   0.02341   0.02820   0.03078

 Mulliken charges and spin densities:
               1          2
     1  C    0.395244   0.000000
     2  C    0.393752   0.000000
     3  C   -0.969852   0.000000
     4  C    0.395330  -0.000000
     5  C    0.394267  -0.000000
     6  C   -0.973402  -0.000000
     7  O   -0.213721   0.000000
     8  O   -0.213733  -0.000000
     9  C    0.194360  -0.000000
    10  C    0.194120  -0.000000
    11  C    0.207152   0.000000
    12  C    0.206434  -0.000000
    13  C    0.195049   0.000000
    14  C    0.206443  -0.000000
    15  C    0.207418   0.000000
    16  C    0.194294   0.000000
    17  H    0.234630  -0.000000
    18  C   -0.837982   0.000000
    19  H    0.234515  -0.000000
    20  C   -0.837864  -0.000000
    21  C   -0.641986  -0.000000
    22  C   -0.641362   0.000000
    23  C   -0.640816   0.000000
    24  C   -0.642222  -0.000000
    25  C   -0.838197   0.000000
    26  H    0.159937  -0.000000
    27  H    0.166485   0.000000
    28  H    0.183797   0.000000
    29  H    0.159913  -0.000000
    30  H    0.166469  -0.000000
    31  H    0.183809   0.000000
    32  H    0.167534   0.000000
    33  H    0.198078  -0.000000
    34  H    0.165855   0.000000
    35  H    0.165854   0.000000
    36  H    0.167542   0.000000
    37  H    0.198060  -0.000000
    38  H    0.167521   0.000000
    39  H    0.198060  -0.000000
    40  H    0.165859  -0.000000
    41  H    0.165829  -0.000000
    42  H    0.167559   0.000000
    43  H    0.198018   0.000000
    44  C   -0.837627  -0.000000
    45  H    0.234516   0.000000
    46  H    0.234667  -0.000000
    47  H    0.159968  -0.000000
    48  H    0.166447  -0.000000
    49  H    0.183746  -0.000000
    50  H    0.159870   0.000000
    51  H    0.166518   0.000000
    52  H    0.183842   0.000000
 Sum of Mulliken charges =  -0.00000  -0.00000

 Dipole moment (field-independent basis, Debye):
    X=             -0.0001    Y=              0.0003    Z=             -0.0037  Tot=              0.0037
 Quadrupole moment (field-independent basis, Debye-Ang):
   XX=           -124.5526   YY=           -159.1773   ZZ=           -146.5685
   XY=              0.0029   XZ=             -0.0006   YZ=              0.0032

 Normal termination of Gaussian 16 at Sun Jan 21 07:11:41 2024.
