 Gaussian 16, Revision A.03,
 Gaussian 16:  ES64L-G16RevA.03 25-Dec-2016

 --------------------------------------
 #P UB3LYP/6-311++G(d,p) nosym opt freq
 --------------------------------------

 -------
 Radical
 -------
 Symbolic Z-matrix:
 Charge = -1 Multiplicity = 2

 SCF Done:  E(UB3LYP) =  -610.571084883     A.U. after   23 cycles
 SCF Done:  E(UB3LYP) =  -610.591022452     A.U. after   18 cycles
 SCF Done:  E(UB3LYP) =  -610.594313460     A.U. after   17 cycles
 SCF Done:  E(UB3LYP) =  -610.594537737     A.U. after   16 cycles
 SCF Done:  E(UB3LYP) =  -610.594565407     A.U. after   16 cycles
 SCF Done:  E(UB3LYP) =  -610.594568760     A.U. after   14 cycles
 SCF Done:  E(UB3LYP) =  -610.594569446     A.U. after   12 cycles
 Optimization completed.
    -- Stationary point found.
 Normal termination of Gaussian 16 at Tue Dec 26 20:29:55 2023.

 ----------------------------------------------------------------------
 #P Geom=AllCheck Guess=TCheck SCRF=Check GenChk UB3LYP/6-311++G(d,p) F
 req
 ----------------------------------------------------------------------

 Structure from the checkpoint file:  "279-rad.chk"
 -------
 Radical
 -------
 Charge = -1 Multiplicity = 2

                          Input orientation:
 ---------------------------------------------------------------------
 Center     Atomic      Atomic             Coordinates (Angstroms)
 Number     Number       Type             X           Y           Z
 ---------------------------------------------------------------------
      1          8           0       -1.270077    2.519454    0.334921
      2          6           0       -1.244927    1.268381    0.218366
      3          6           0       -2.437954    0.467258    0.193736
      4          6           0       -2.386203   -0.899009    0.063793
      5          8           0       -3.509227   -1.669569    0.039328
      6          6           0       -1.157243   -1.649662   -0.058364
      7          8           0       -1.233721   -2.917146   -0.174509
      8          6           0        0.073358   -0.884065   -0.039876
      9          6           0        1.323301   -1.531567   -0.154365
     10          6           0        2.501335   -0.808145   -0.137574
     11          6           0        2.467351    0.594513   -0.005020
     12          6           0        1.249620    1.246292    0.108467
     13          6           0        0.038299    0.534880    0.094296
     14          1           0       -3.392447    0.974651    0.281502
     15          1           0        1.325037   -2.611095   -0.255322
     16          1           0        3.454862   -1.320932   -0.226638
     17          1           0        3.393445    1.161534    0.008006
     18          1           0        1.191343    2.324138    0.211709
     19          1           0       -3.136676   -2.572784   -0.060628
 ---------------------------------------------------------------------

 SCF Done:  E(UB3LYP) =  -610.594569446     A.U. after    1 cycles

 Alpha  occ. eigenvalues --  -19.01599 -18.95348 -18.93851 -10.09518 -10.09227
 Alpha  occ. eigenvalues --  -10.08919 -10.05631 -10.05434 -10.04994 -10.04928
 Alpha  occ. eigenvalues --  -10.04809 -10.04637 -10.02557  -0.93515  -0.86390
 Alpha  occ. eigenvalues --   -0.86258  -0.73465  -0.67356  -0.62812  -0.61270
 Alpha  occ. eigenvalues --   -0.54599  -0.49951  -0.48310  -0.44401  -0.41099
 Alpha  occ. eigenvalues --   -0.38523  -0.35569  -0.33477  -0.33171  -0.30452
 Alpha  occ. eigenvalues --   -0.30194  -0.29058  -0.27444  -0.26664  -0.25700
 Alpha  occ. eigenvalues --   -0.25274  -0.23742  -0.22501  -0.21470  -0.21264
 Alpha  occ. eigenvalues --   -0.14015  -0.13344  -0.12631  -0.10692  -0.10345
 Alpha  occ. eigenvalues --   -0.02044
 Alpha virt. eigenvalues --    0.08401   0.09117   0.10341   0.10973   0.11277
 Alpha virt. eigenvalues --    0.12308   0.12510   0.14245   0.15769   0.16561
 Alpha virt. eigenvalues --    0.17631   0.17925   0.18284   0.18740   0.19184

  Beta  occ. eigenvalues --  -19.01557 -18.94662 -18.93284 -10.09415 -10.09155
  Beta  occ. eigenvalues --  -10.08647 -10.05635 -10.05329 -10.04952 -10.04899
  Beta  occ. eigenvalues --  -10.04856 -10.04501 -10.02474  -0.93318  -0.85377
  Beta  occ. eigenvalues --   -0.85141  -0.73244  -0.66889  -0.62615  -0.61075
  Beta  occ. eigenvalues --   -0.53654  -0.49794  -0.47994  -0.44187  -0.40944
  Beta  occ. eigenvalues --   -0.38291  -0.35198  -0.33372  -0.33063  -0.30391
  Beta  occ. eigenvalues --   -0.28876  -0.28771  -0.27031  -0.26302  -0.25056
  Beta  occ. eigenvalues --   -0.24985  -0.22351  -0.21786  -0.21060  -0.19804
  Beta  occ. eigenvalues --   -0.12716  -0.12011  -0.11904  -0.09802  -0.09533
  Beta virt. eigenvalues --    0.04597   0.08393   0.09739   0.10335   0.10988
  Beta virt. eigenvalues --    0.12317   0.12408   0.12511   0.14236   0.15833
  Beta virt. eigenvalues --    0.16594   0.17653   0.18277   0.18815   0.19217

 Mulliken charges and spin densities:
               1          2
     1  O   -0.399615   0.205297
     2  C   -0.562554   0.024482
     3  C    0.481285   0.077375
     4  C   -0.226592   0.073605
     5  O   -0.272861   0.014553
     6  C   -0.852111   0.146777
     7  O   -0.451835   0.252897
     8  C    0.326006  -0.000854
     9  C    0.146197   0.074361
    10  C   -0.310772  -0.006129
    11  C   -0.311623   0.083918
    12  C    0.190562  -0.020838
    13  C    0.268467   0.096023
    14  H    0.161706  -0.007274
    15  H    0.153105  -0.004190
    16  H    0.124737  -0.000390
    17  H    0.123543  -0.006110
    18  H    0.151650   0.000276
    19  H    0.260704  -0.003777
 Sum of Mulliken charges =  -1.00000   1.00000

 Dipole moment (field-independent basis, Debye):
    X=              5.6413    Y=              0.3597    Z=             -0.4245  Tot=              5.6687
 Quadrupole moment (field-independent basis, Debye-Ang):
   XX=            -95.6595   YY=           -107.6341   ZZ=            -80.9834
   XY=             -0.6141   XZ=              0.8348   YZ=             -2.4751

  Exact polarizability: 196.219   7.160 179.710  -4.629   9.679  73.933
 Approx polarizability: 300.477  12.851 332.926  -6.905  20.121 113.896

                      1                      2                      3
                      A                      A                      A
 Frequencies --     91.7516               138.0683               171.9357
 Red. masses --      8.5746                 4.4758                 8.0364
 Frc consts  --      0.0425                 0.0503                 0.1400
 IR Inten    --      4.3765                 0.2471                 1.6801

                      4                      5                      6
                      A                      A                      A
 Frequencies --    240.4253               258.0407               328.5836
 Red. masses --      5.5850                 5.9201                 5.8968
 Frc consts  --      0.1902                 0.2322                 0.3751
 IR Inten    --      0.0570                 1.8599                10.7642

                      7                      8                      9
                      A                      A                      A
 Frequencies --    367.8211               385.5518               418.4782
 Red. masses --     11.0028                 4.9870                 9.6636
 Frc consts  --      0.8771                 0.4368                 0.9971
 IR Inten    --     11.0728                 0.1975                 2.2544

                     10                     11                     12
                      A                      A                      A
 Frequencies --    442.1588               471.9781               499.3193
 Red. masses --      4.0369                 9.1681                 3.7101
 Frc consts  --      0.4650                 1.2033                 0.5450
 IR Inten    --      1.8073                 5.0432                 0.4013

                     13                     14                     15
                      A                      A                      A
 Frequencies --    533.2370               652.2475               658.0871
 Red. masses --      8.8836                 6.3997                 3.7413
 Frc consts  --      1.4883                 1.6041                 0.9546
 IR Inten    --      0.3885                11.0393                 0.1293

                     16                     17                     18
                      A                      A                      A
 Frequencies --    682.4412               690.0543               720.5256
 Red. masses --      5.4853                 3.4153                 1.1832
 Frc consts  --      1.5051                 0.9582                 0.3619
 IR Inten    --      2.2668                 0.0171               136.9301

                     19                     20                     21
                      A                      A                      A
 Frequencies --    727.4405               744.7695               768.8101
 Red. masses --      6.5862                 3.3865                 1.6652
 Frc consts  --      2.0534                 1.1067                 0.5799
 IR Inten    --     15.8387                 0.0325                34.3694

                     22                     23                     24
                      A                      A                      A
 Frequencies --    829.3181               831.1567               859.8280
 Red. masses --      4.4237                 1.5292                 1.3633
 Frc consts  --      1.7926                 0.6224                 0.5938
 IR Inten    --     16.5724                26.3486                 0.1926

                     25                     26                     27
                      A                      A                      A
 Frequencies --    966.9760               975.8278              1004.2447
 Red. masses --      1.3085                 1.2891                 6.5931
 Frc consts  --      0.7209                 0.7232                 3.9176
 IR Inten    --      1.2836                 1.4046                57.3276

                     28                     29                     30
                      A                      A                      A
 Frequencies --   1040.6972              1092.4896              1132.5391
 Red. masses --      2.0461                 2.9470                 1.7445
 Frc consts  --      1.3057                 2.0724                 1.3183
 IR Inten    --      4.0531                 2.3299                18.4417

                     31                     32                     33
                      A                      A                      A
 Frequencies --   1156.0376              1204.7384              1221.0171
 Red. masses --      1.2729                 3.3059                 1.5322
 Frc consts  --      1.0023                 2.8270                 1.3459
 IR Inten    --      0.1972                83.2578               114.5579

                     34                     35                     36
                      A                      A                      A
 Frequencies --   1245.3736              1262.7877              1331.4347
 Red. masses --      4.3972                 1.8588                 2.1539
 Frc consts  --      4.0182                 1.7464                 2.2497
 IR Inten    --     37.0335                 1.4300                36.7982

                     37                     38                     39
                      A                      A                      A
 Frequencies --   1349.3875              1450.2421              1466.0400
 Red. masses --      8.7241                 2.3197                 2.5727
 Frc consts  --      9.3593                 2.8745                 3.2578
 IR Inten    --     25.3754               317.3720                 3.4652

                     40                     41                     42
                      A                      A                      A
 Frequencies --   1478.1769              1525.2711              1551.6464
 Red. masses --      4.0192                 5.6367                 5.8748
 Frc consts  --      5.1742                 7.7262                 8.3335
 IR Inten    --    200.4740               336.3382               259.2942

                     43                     44                     45
                      A                      A                      A
 Frequencies --   1573.1488              1621.2509              1642.3655
 Red. masses --      4.8239                 5.7814                 6.3931
 Frc consts  --      7.0337                 8.9533                10.1602
 IR Inten    --     17.9269                15.6069                46.0122

                     46                     47                     48
                      A                      A                      A
 Frequencies --   3132.3978              3151.8216              3171.8422
 Red. masses --      1.0845                 1.0908                 1.0899
 Frc consts  --      6.2696                 6.3844                 6.4603
 IR Inten    --     16.2049                45.9663                19.5926

                     49                     50                     51
                      A                      A                      A
 Frequencies --   3178.2316              3180.9357              3497.4594
 Red. masses --      1.0913                 1.0931                 1.0635
 Frc consts  --      6.4950                 6.5166                 7.6644
 IR Inten    --     14.2919                22.9864                81.9954

 - Thermochemistry -
 -------------------
 Temperature   298.150 Kelvin.  Pressure   1.00000 Atm.
 Atom     1 has atomic number  8 and mass  15.99491

 Molecular mass:   174.03169 amu.
 Principal axes and moments of inertia in atomic units:
                           1         2         3
     Eigenvalues --  1426.318182291.466353717.78429
           X            0.94068  -0.33661   0.04264
           Y            0.33919   0.93611  -0.09299
           Z           -0.00862   0.10194   0.99475
 This molecule is an asymmetric top.
 Rotational symmetry number  1.
 Warning -- assumption of classical behavior for rotation
           may cause significant error
 Rotational temperatures (Kelvin)      0.06073     0.03780     0.02330
 Rotational constants (GHZ):           1.26531     0.78759     0.48543
 Zero-point vibrational energy     353594.6 (Joules/Mol)
                                   84.51115 (Kcal/Mol)
 Warning -- explicit consideration of  13 degrees of freedom as
           vibrations may cause significant error
 Vibrational temperatures:    132.01   198.65   247.38   345.92   371.26
          (Kelvin)            472.76   529.21   554.72   602.10   636.17
                              679.07   718.41   767.21   938.44   946.84
                              981.88   992.83  1036.68  1046.62  1071.56
                             1106.15  1193.20  1195.85  1237.10  1391.26
                             1404.00  1444.88  1497.33  1571.85  1629.47
                             1663.28  1733.35  1756.77  1791.81  1816.87
                             1915.64  1941.47  2086.57  2109.30  2126.77
                             2194.52  2232.47  2263.41  2332.62  2363.00
                             4506.82  4534.77  4563.57  4572.77  4576.66
                             5032.06

 Zero-point correction=                           0.134677 (Hartree/Particle)
 Thermal correction to Energy=                    0.144215
 Thermal correction to Enthalpy=                  0.145159
 Thermal correction to Gibbs Free Energy=         0.099164
 Sum of electronic and zero-point Energies=           -610.459892
 Sum of electronic and thermal Energies=              -610.450354
 Sum of electronic and thermal Enthalpies=            -610.449410
 Sum of electronic and thermal Free Energies=         -610.495405

                     E (Thermal)             CV                S
                      KCal/Mol        Cal/Mol-Kelvin    Cal/Mol-Kelvin
 Total                   90.496             38.604             96.804
 Electronic               0.000              0.000              1.377
 Translational            0.889              2.981             41.370
 Rotational               0.889              2.981             30.875
 Vibrational             88.719             32.643             23.182
 Vibration     1          0.602              1.955              3.622
 Vibration     2          0.614              1.915              2.830
 Vibration     3          0.626              1.877              2.414
 Vibration     4          0.658              1.779              1.800
 Vibration     5          0.667              1.749              1.675
 Vibration     6          0.712              1.618              1.267
 Vibration     7          0.740              1.538              1.089
 Vibration     8          0.754              1.501              1.017
 Vibration     9          0.781              1.430              0.897
 Vibration    10          0.802              1.378              0.820
 Vibration    11          0.829              1.312              0.732
 Vibration    12          0.855              1.252              0.660
 Vibration    13          0.888              1.176              0.580

 Optimization completed.
    -- Stationary point found.
 Normal termination of Gaussian 16 at Tue Dec 26 20:49:21 2023.
