 Gaussian 16, Revision A.03,
 Gaussian 16:  ES64L-G16RevA.03 25-Dec-2016

 ----------------------------------------------------------------
 #P UB3LYP/6-311++G(d,p) SCRF=(PCM,Solvent=n,n-DiMethylFormamide)
 ----------------------------------------------------------------

 ------------------
 Radical PCM in DMF
 ------------------
 Symbolic Z-matrix:
 Charge = -1 Multiplicity = 2

                         Standard orientation:
 ---------------------------------------------------------------------
 Center     Atomic      Atomic             Coordinates (Angstroms)
 Number     Number       Type             X           Y           Z
 ---------------------------------------------------------------------
      1          6           0       -2.620199   -2.167021   -0.000102
      2          6           0       -1.817175   -0.893082   -0.000019
      3          6           0       -2.413712    0.339556   -0.000051
      4          6           0       -1.672360    1.583604    0.000012
      5          8           0       -2.235671    2.713549    0.000047
      6          6           0       -0.228832    1.445519    0.000041
      7          6           0        0.361689    0.213500    0.000048
      8         35           0        2.299741    0.102453   -0.000040
      9          6           0       -0.360226   -1.046154    0.000082
     10          8           0        0.186324   -2.177267    0.000177
     11          1           0       -2.378868   -2.781333   -0.873856
     12          1           0       -3.692514   -1.952782   -0.000809
     13          1           0       -2.379954   -2.780868    0.874289
     14          1           0       -3.497411    0.427070   -0.000140
     15          1           0        0.357479    2.356249    0.000056
 ---------------------------------------------------------------------

 SCF Done:  E(UB3LYP) =  -2994.59940223     A.U. after   19 cycles

 The electronic state is 2-A.
 Alpha  occ. eigenvalues -- -482.82358 -62.47636 -56.29653 -56.29301 -56.29276
 Alpha  occ. eigenvalues --  -19.08500 -19.08276 -10.23137 -10.22678 -10.22085
 Alpha  occ. eigenvalues --  -10.18086 -10.17314 -10.16347 -10.16063  -8.68594
 Alpha  occ. eigenvalues --   -6.51672  -6.50498  -6.50428  -2.62776  -2.62451
 Alpha  occ. eigenvalues --   -2.62399  -2.61464  -2.61463  -1.01053  -1.00337
 Alpha  occ. eigenvalues --   -0.84393  -0.80066  -0.74848  -0.69577  -0.67364
 Alpha  occ. eigenvalues --   -0.58158  -0.56377  -0.49184  -0.47339  -0.43230
 Alpha  occ. eigenvalues --   -0.43194  -0.41244  -0.40691  -0.39562  -0.39406
 Alpha  occ. eigenvalues --   -0.37896  -0.37087  -0.35734  -0.32180  -0.28811
 Alpha  occ. eigenvalues --   -0.27837  -0.25130  -0.24891  -0.24416  -0.16823
 Alpha virt. eigenvalues --   -0.01436  -0.01270  -0.00003   0.01288   0.01863
 Alpha virt. eigenvalues --    0.02214   0.03563   0.03724   0.04090   0.05494
 Alpha virt. eigenvalues --    0.05702   0.06642   0.07522   0.07595   0.08047

  Beta  occ. eigenvalues -- -482.82357 -62.47635 -56.29655 -56.29298 -56.29276
  Beta  occ. eigenvalues --  -19.07818 -19.07573 -10.22981 -10.22561 -10.21964
  Beta  occ. eigenvalues --  -10.17992 -10.17158 -10.16267 -10.16071  -8.68593
  Beta  occ. eigenvalues --   -6.51676  -6.50492  -6.50428  -2.62778  -2.62449
  Beta  occ. eigenvalues --   -2.62401  -2.61460  -2.61460  -0.99861  -0.99100
  Beta  occ. eigenvalues --   -0.83854  -0.79884  -0.74564  -0.69199  -0.66540
  Beta  occ. eigenvalues --   -0.57772  -0.55953  -0.48965  -0.46895  -0.42760
  Beta  occ. eigenvalues --   -0.42164  -0.41035  -0.40267  -0.39189  -0.38375
  Beta  occ. eigenvalues --   -0.36836  -0.35532  -0.35256  -0.31098  -0.28778
  Beta  occ. eigenvalues --   -0.25075  -0.24484  -0.24199  -0.23797
  Beta virt. eigenvalues --   -0.09599  -0.01154  -0.00036   0.00029   0.01298
  Beta virt. eigenvalues --    0.01895   0.03581   0.03745   0.04122   0.04547
  Beta virt. eigenvalues --    0.05546   0.05808   0.06649   0.07551   0.07866

 Mulliken charges and spin densities:
               1          2
     1  C   -0.416827   0.003314
     2  C    1.476654   0.088506
     3  C   -0.729268   0.036282
     4  C   -0.413064   0.129602
     5  O   -0.495219   0.244513
     6  C    0.060293   0.104276
     7  C    0.780403   0.103032
     8  Br  -0.188147   0.004094
     9  C   -1.528423   0.042846
    10  O   -0.422299   0.251884
    11  H    0.167192   0.003767
    12  H    0.148826  -0.000411
    13  H    0.167229   0.003774
    14  H    0.163086  -0.005740
    15  H    0.229563  -0.009738
 Sum of Mulliken charges =  -1.00000   1.00000

 Dipole moment (field-independent basis, Debye):
    X=              1.9839    Y=             -1.9673    Z=             -0.0005  Tot=              2.7939
 Quadrupole moment (field-independent basis, Debye-Ang):
   XX=            -86.9821   YY=           -104.1227   ZZ=            -74.7348
   XY=             19.4924   XZ=              0.0003   YZ=              0.0007

 Normal termination of Gaussian 16 at Sun Jan 21 07:06:42 2024.
