 Gaussian 16, Revision A.03,
 Gaussian 16:  ES64L-G16RevA.03 25-Dec-2016

 --------------------------------------
 #P UB3LYP/6-311++G(d,p) nosym opt freq
 --------------------------------------

 -------
 Radical
 -------
 Symbolic Z-matrix:
 Charge = -1 Multiplicity = 2

 SCF Done:  E(UB3LYP) =  -2994.52154539     A.U. after   21 cycles
 Optimization completed.
    -- Stationary point found.
 Normal termination of Gaussian 16 at Sat Jan  6 05:39:01 2024.

 ----------------------------------------------------------------------
 #P Geom=AllCheck Guess=TCheck SCRF=Check GenChk UB3LYP/6-311++G(d,p) F
 req
 ----------------------------------------------------------------------

 Structure from the checkpoint file:  "005-rad.chk"
 -------
 Radical
 -------
 Charge = -1 Multiplicity = 2

                          Input orientation:
 ---------------------------------------------------------------------
 Center     Atomic      Atomic             Coordinates (Angstroms)
 Number     Number       Type             X           Y           Z
 ---------------------------------------------------------------------
      1          6           0        2.255176   -0.070282    0.079192
      2          6           0        0.753946    0.037805    0.030261
      3          6           0        0.112375    1.246519    0.081729
      4          6           0       -1.328342    1.386498    0.037042
      5          8           0       -1.906734    2.507759    0.085342
      6          6           0       -2.069338    0.144404   -0.067677
      7          6           0       -1.424716   -1.059110   -0.118683
      8         35           0       -2.479505   -2.682751   -0.258634
      9          6           0        0.017111   -1.223940   -0.075598
     10          8           0        0.606346   -2.332410   -0.122831
     11          1           0        2.575702   -0.681890    0.929054
     12          1           0        2.715568    0.918413    0.158442
     13          1           0        2.640510   -0.572288   -0.814449
     14          1           0        0.681681    2.169438    0.160300
     15          1           0       -3.149782    0.211836   -0.103492
 ---------------------------------------------------------------------

 SCF Done:  E(UB3LYP) =  -2994.52154539     A.U. after    1 cycles

 Alpha  occ. eigenvalues -- -482.69298 -62.34577 -56.16590 -56.16245 -56.16219
 Alpha  occ. eigenvalues --  -18.94445 -18.94191 -10.09433 -10.08895 -10.08722
 Alpha  occ. eigenvalues --  -10.05013 -10.04606 -10.03985 -10.03337  -8.55533
 Alpha  occ. eigenvalues --   -6.38603  -6.37446  -6.37371  -2.49710  -2.49390
 Alpha  occ. eigenvalues --   -2.49333  -2.48411  -2.48411  -0.87015  -0.86211
 Alpha  occ. eigenvalues --   -0.71042  -0.67131  -0.61963  -0.56767  -0.54198
 Alpha  occ. eigenvalues --   -0.45100  -0.43186  -0.35850  -0.33814  -0.30509
 Alpha  occ. eigenvalues --   -0.29923  -0.28369  -0.27190  -0.26722  -0.26658
 Alpha  occ. eigenvalues --   -0.23998  -0.23981  -0.22701  -0.18767  -0.15641
 Alpha  occ. eigenvalues --   -0.14329  -0.11795  -0.11001  -0.10349  -0.03000
 Alpha virt. eigenvalues --    0.09095   0.10352   0.11365   0.11511   0.11792
 Alpha virt. eigenvalues --    0.13360   0.13515   0.14817   0.15622   0.15807
 Alpha virt. eigenvalues --    0.16339   0.16625   0.17699   0.18543   0.19046

  Beta  occ. eigenvalues -- -482.69298 -62.34577 -56.16592 -56.16242 -56.16220
  Beta  occ. eigenvalues --  -18.93731 -18.93434 -10.09312 -10.08814 -10.08602
  Beta  occ. eigenvalues --  -10.04916 -10.04614 -10.03828 -10.03239  -8.55533
  Beta  occ. eigenvalues --   -6.38607  -6.37441  -6.37371  -2.49712  -2.49389
  Beta  occ. eigenvalues --   -2.49336  -2.48409  -2.48409  -0.85790  -0.84898
  Beta  occ. eigenvalues --   -0.70508  -0.66959  -0.61699  -0.56495  -0.53286
  Beta  occ. eigenvalues --   -0.44718  -0.42790  -0.35649  -0.33387  -0.29944
  Beta  occ. eigenvalues --   -0.29578  -0.28257  -0.26992  -0.26096  -0.25278
  Beta  occ. eigenvalues --   -0.23591  -0.22488  -0.21246  -0.17799  -0.15612
  Beta  occ. eigenvalues --   -0.11352  -0.10933  -0.10324  -0.09664
  Beta virt. eigenvalues --    0.04286   0.09099   0.10410   0.11529   0.11804
  Beta virt. eigenvalues --    0.12450   0.13525   0.13592   0.14855   0.15943
  Beta virt. eigenvalues --    0.16347   0.16668   0.17399   0.17701   0.18579

 Mulliken charges and spin densities:
               1          2
     1  C   -0.424495   0.002332
     2  C    1.698563   0.086028
     3  C   -0.674305   0.056859
     4  C   -0.619651   0.098755
     5  O   -0.407214   0.267174
     6  C    0.109836   0.110690
     7  C    0.881018   0.100422
     8  Br  -0.255026   0.003590
     9  C   -1.725743   0.018297
    10  O   -0.331495   0.265542
    11  H    0.152775   0.004035
    12  H    0.118501  -0.000457
    13  H    0.152726   0.004044
    14  H    0.120425  -0.007069
    15  H    0.204087  -0.010241
 Sum of Mulliken charges =  -1.00000   1.00000

 Dipole moment (field-independent basis, Debye):
    X=              4.9993    Y=              1.6268    Z=              0.2868  Tot=              5.2652
 Quadrupole moment (field-independent basis, Debye-Ang):
   XX=            -89.2073   YY=           -109.1463   ZZ=            -75.2132
   XY=              8.5538   XZ=              0.0101   YZ=             -1.8016

  Exact polarizability: 146.407  -2.806 173.936   2.620   6.311  71.320
 Approx polarizability: 209.913 -35.267 295.080   1.613  10.398 107.690

                      1                      2                      3
                      A                      A                      A
 Frequencies --     88.4502               130.9997               156.2492
 Red. masses --      5.9720                 1.0778                 8.0145
 Frc consts  --      0.0275                 0.0109                 0.1153
 IR Inten    --      7.3737                 0.1035                 3.8224

                      4                      5                      6
                      A                      A                      A
 Frequencies --    168.7265               209.6201               252.8161
 Red. masses --      9.5160                 3.2780                15.5379
 Frc consts  --      0.1596                 0.0849                 0.5851
 IR Inten    --      2.3590                 0.0827                 0.0241

                      7                      8                      9
                      A                      A                      A
 Frequencies --    295.0769               332.3169               404.3798
 Red. masses --      3.4847                 5.9714                 8.8083
 Frc consts  --      0.1788                 0.3885                 0.8486
 IR Inten    --      0.9028                 0.8504                14.2792

                     10                     11                     12
                      A                      A                      A
 Frequencies --    464.6065               465.0625               526.9314
 Red. masses --      4.1454                 8.6632                 6.1772
 Frc consts  --      0.5272                 1.1040                 1.0105
 IR Inten    --      0.0088                 2.3280                 3.2078

                     13                     14                     15
                      A                      A                      A
 Frequencies --    621.1207               633.3098               744.0828
 Red. masses --      4.5843                 2.8063                 6.7099
 Frc consts  --      1.0420                 0.6632                 2.1888
 IR Inten    --      0.4868                 0.1599                 3.7711

                     16                     17                     18
                      A                      A                      A
 Frequencies --    781.8067               809.4798               840.1393
 Red. masses --      8.0700                 5.6703                 1.3347
 Frc consts  --      2.9062                 2.1891                 0.5551
 IR Inten    --     99.7738                12.1339                 4.4873

                     19                     20                     21
                      A                      A                      A
 Frequencies --    873.1119               945.2625              1015.6124
 Red. masses --      1.5837                 3.0766                 1.6905
 Frc consts  --      0.7113                 1.6197                 1.0273
 IR Inten    --     33.8715                10.0079                22.2987

                     22                     23                     24
                      A                      A                      A
 Frequencies --   1051.7372              1087.4933              1178.2380
 Red. masses --      1.4894                 2.8665                 3.6051
 Frc consts  --      0.9707                 1.9973                 2.9487
 IR Inten    --      0.7697                49.8816                21.9425

                     25                     26                     27
                      A                      A                      A
 Frequencies --   1235.9620              1310.1029              1392.4757
 Red. masses --      1.6774                 1.9446                 1.9311
 Frc consts  --      1.5097                 1.9665                 2.2062
 IR Inten    --      7.5794                 7.5715                32.1568

                     28                     29                     30
                      A                      A                      A
 Frequencies --   1405.2570              1464.6220              1478.3947
 Red. masses --      2.2828                 1.0461                 1.3319
 Frc consts  --      2.6560                 1.3221                 1.7152
 IR Inten    --     33.1587                 4.6257                11.6976

                     31                     32                     33
                      A                      A                      A
 Frequencies --   1490.6028              1523.6322              1532.3630
 Red. masses --      5.0709                 4.3853                 9.1885
 Frc consts  --      6.6384                 5.9980                12.7121
 IR Inten    --     10.4841               143.9203               339.0466

                     34                     35                     36
                      A                      A                      A
 Frequencies --   1635.4163              3010.9205              3055.5460
 Red. masses --      6.9319                 1.0341                 1.0989
 Frc consts  --     10.9234                 5.5237                 6.0450
 IR Inten    --     23.7415                73.8967                29.3874

                     37                     38                     39
                      A                      A                      A
 Frequencies --   3082.1421              3137.0633              3185.9057
 Red. masses --      1.1027                 1.0893                 1.0908
 Frc consts  --      6.1717                 6.3159                 6.5231
 IR Inten    --     25.3548                37.6532                 5.0652

 - Thermochemistry -
 -------------------
 Temperature   298.150 Kelvin.  Pressure   1.00000 Atm.
 Atom     1 has atomic number  6 and mass  12.00000

 Molecular mass:   199.94729 amu.
 Principal axes and moments of inertia in atomic units:
                           1         2         3
     Eigenvalues --  1272.518922721.091243982.61153
           X            0.55322   0.83221  -0.03692
           Y            0.82991  -0.55444  -0.06204
           Z            0.07210  -0.00368   0.99739
 This molecule is an asymmetric top.
 Rotational symmetry number  1.
 Warning -- assumption of classical behavior for rotation
           may cause significant error
 Rotational temperatures (Kelvin)      0.06806     0.03183     0.02175
 Rotational constants (GHZ):           1.41824     0.66324     0.45316
 Zero-point vibrational energy     263280.3 (Joules/Mol)
                                   62.92551 (Kcal/Mol)
 Warning -- explicit consideration of  12 degrees of freedom as
           vibrations may cause significant error
 Vibrational temperatures:    127.26   188.48   224.81   242.76   301.60
          (Kelvin)            363.75   424.55   478.13   581.81   668.47
                              669.12   758.14   893.65   911.19  1070.57
                             1124.85  1164.66  1208.77  1256.21  1360.02
                             1461.24  1513.22  1564.66  1695.22  1778.27
                             1884.95  2003.46  2021.85  2107.26  2127.08
                             2144.65  2192.17  2204.73  2353.00  4332.04
                             4396.25  4434.52  4513.53  4583.81

 Zero-point correction=                           0.100278 (Hartree/Particle)
 Thermal correction to Energy=                    0.109534
 Thermal correction to Enthalpy=                  0.110479
 Thermal correction to Gibbs Free Energy=         0.064055
 Sum of electronic and zero-point Energies=          -2994.421267
 Sum of electronic and thermal Energies=             -2994.412011
 Sum of electronic and thermal Enthalpies=           -2994.411067
 Sum of electronic and thermal Free Energies=        -2994.457490

                     E (Thermal)             CV                S
                      KCal/Mol        Cal/Mol-Kelvin    Cal/Mol-Kelvin
 Total                   68.734             33.541             97.706
 Electronic               0.000              0.000              1.377
 Translational            0.889              2.981             41.783
 Rotational               0.889              2.981             31.001
 Vibrational             66.956             27.579             23.545
 Vibration     1          0.601              1.957              3.694
 Vibration     2          0.612              1.922              2.931
 Vibration     3          0.620              1.896              2.595
 Vibration     4          0.625              1.881              2.450
 Vibration     5          0.642              1.826              2.047
 Vibration     6          0.664              1.758              1.711
 Vibration     7          0.689              1.683              1.445
 Vibration     8          0.714              1.611              1.249
 Vibration     9          0.770              1.461              0.947
 Vibration    10          0.822              1.329              0.753
 Vibration    11          0.823              1.328              0.752
 Vibration    12          0.882              1.190              0.594

 Optimization completed.
    -- Stationary point found.
 Normal termination of Gaussian 16 at Sat Jan  6 05:49:46 2024.
