 Q-Chem 5.4, Q-Chem, Inc., Pleasanton, CA (2021)
 Q-Chem 5.4.0 for Intel X86 EM64T Linux

User input:
--------------------------------------------------------------
$molecule
-2 1
C                  4.7652990000     -3.0783630000      0.3361300000
C                  5.6767100000     -2.2857210000     -0.3207360000
C                  5.2549490000     -1.0814170000     -0.9522380000
C                  3.3846610000     -2.7245030000      0.4061700000
C                  2.9576650000     -1.5036020000     -0.2339830000
C                  3.9272720000     -0.7149960000     -0.9006540000
C                  2.4475060000     -3.5317320000      1.0776180000
C                  1.0887980000     -3.1514920000      1.1258550000
C                  0.6562700000     -1.9330070000      0.4910060000
C                  1.5816040000     -1.0823460000     -0.2036450000
C                  0.1318010000     -4.0107710000      1.8420290000
C                 -1.2115050000     -3.5853210000      1.8266400000
C                 -0.7395180000     -1.5638350000      0.5614690000
C                 -1.6407410000     -2.3623970000      1.2088500000
O                  2.8853220000     -4.6855510000      1.6723610000
O                  1.2036010000      0.0205340000     -0.7818970000
O                  0.5443280000     -5.0724510000      2.4558110000
H                  5.0752980000     -3.9977070000      0.8199090000
H                  6.7235950000     -2.5790660000     -0.3587850000
H                  5.9786310000     -0.4573500000     -1.4710480000
H                  2.0457020000     -5.0647630000      2.0925050000
O                 -1.1530130000     -0.4019020000     -0.0323260000
H                 -2.6824160000     -2.0764490000      1.2511090000
H                 -0.3041360000     -0.0202040000     -0.4382030000
H                  3.5726800000      0.1959600000     -1.3710630000
S                 -2.4427200000     -4.5815310000      2.5778580000
O                 -3.7120250000     -3.8440440000      2.5987890000
O                 -2.4775950000     -5.9696800000      2.0916620000
O                 -2.0537270000     -4.6909680000      4.2129750000
C                 -1.3819570000     -5.8773110000      4.6678410000
H                 -0.4694940000     -6.0370850000      4.0924450000
H                 -2.0434880000     -6.7465450000      4.5936840000
H                 -1.1476900000     -5.6787760000      5.7175090000
$end
$rem
MAX_SCF_CYCLES=200
BASIS  =  6-311++G(d,p)
GUI  =  2
JOB_TYPE  =  SP
METHOD  =  B3LYP
SOLVENT_METHOD = PCM
$end
$pcm
theory = CPCM
$end
$solvent
dielectric 37.219
opticaldielectric 1.43
$end

--------------------------------------------------------------

             Standard Nuclear Orientation (Angstroms)
    I     Atom           X                Y                Z
 ----------------------------------------------------------------
    1      C       4.7652990000    -3.0783630000     0.3361300000
    2      C       5.6767100000    -2.2857210000    -0.3207360000
    3      C       5.2549490000    -1.0814170000    -0.9522380000
    4      C       3.3846610000    -2.7245030000     0.4061700000
    5      C       2.9576650000    -1.5036020000    -0.2339830000
    6      C       3.9272720000    -0.7149960000    -0.9006540000
    7      C       2.4475060000    -3.5317320000     1.0776180000
    8      C       1.0887980000    -3.1514920000     1.1258550000
    9      C       0.6562700000    -1.9330070000     0.4910060000
   10      C       1.5816040000    -1.0823460000    -0.2036450000
   11      C       0.1318010000    -4.0107710000     1.8420290000
   12      C      -1.2115050000    -3.5853210000     1.8266400000
   13      C      -0.7395180000    -1.5638350000     0.5614690000
   14      C      -1.6407410000    -2.3623970000     1.2088500000
   15      O       2.8853220000    -4.6855510000     1.6723610000
   16      O       1.2036010000     0.0205340000    -0.7818970000
   17      O       0.5443280000    -5.0724510000     2.4558110000
   18      H       5.0752980000    -3.9977070000     0.8199090000
   19      H       6.7235950000    -2.5790660000    -0.3587850000
   20      H       5.9786310000    -0.4573500000    -1.4710480000
   21      H       2.0457020000    -5.0647630000     2.0925050000
   22      O      -1.1530130000    -0.4019020000    -0.0323260000
   23      H      -2.6824160000    -2.0764490000     1.2511090000
   24      H      -0.3041360000    -0.0202040000    -0.4382030000
   25      H       3.5726800000     0.1959600000    -1.3710630000
   26      S      -2.4427200000    -4.5815310000     2.5778580000
   27      O      -3.7120250000    -3.8440440000     2.5987890000
   28      O      -2.4775950000    -5.9696800000     2.0916620000
   29      O      -2.0537270000    -4.6909680000     4.2129750000
   30      C      -1.3819570000    -5.8773110000     4.6678410000
   31      H      -0.4694940000    -6.0370850000     4.0924450000
   32      H      -2.0434880000    -6.7465450000     4.5936840000
   33      H      -1.1476900000    -5.6787760000     5.7175090000
 ----------------------------------------------------------------

    9   -1502.9588012703      4.46e-06  Convergence criterion met
 Total energy in the final basis set =    -1502.9588012703

                    Orbital Energies (a.u.)
 --------------------------------------------------------------

 Alpha MOs
 -- Occupied --
-89.0700 -19.1551 -19.1199 -19.1194 -19.1124 -19.1079 -19.0710 -19.0574
-10.2289 -10.2096 -10.2088 -10.2075 -10.2059 -10.1804 -10.1687 -10.1670
-10.1655 -10.1641 -10.1633 -10.1621 -10.1619 -10.1608 -10.1526  -8.1304
 -6.0941  -6.0929  -6.0905  -1.1323  -1.0326  -1.0263  -1.0229  -1.0085
 -0.9846  -0.9689  -0.8523  -0.8294  -0.7888  -0.7498  -0.7427  -0.7217
 -0.7059  -0.6752  -0.6471  -0.6221  -0.6001  -0.5723  -0.5683  -0.5381
 -0.5310  -0.5107  -0.5059  -0.4851  -0.4821  -0.4728  -0.4587  -0.4516
 -0.4427  -0.4360  -0.4260  -0.4206  -0.4173  -0.4154  -0.4055  -0.3940
 -0.3876  -0.3843  -0.3809  -0.3758  -0.3688  -0.3500  -0.3488  -0.3448
 -0.3351  -0.3333  -0.3272  -0.3235  -0.3162  -0.3072  -0.3025  -0.2836
 -0.2628  -0.2486  -0.2474  -0.2372  -0.2299  -0.1939  -0.1398

          Ground-State Mulliken Net Atomic Charges

     Atom                 Charge (a.u.)
  ----------------------------------------
      1 C                    -0.262615
      2 C                    -0.406973
      3 C                    -0.502358
      4 C                     0.246304
      5 C                     0.125123
      6 C                    -0.134795
      7 C                    -0.132547
      8 C                     0.624660
      9 C                     0.843332
     10 C                    -0.282456
     11 C                    -0.702859
     12 C                    -1.028211
     13 C                    -0.345363
     14 C                    -0.299263
     15 O                    -0.499930
     16 O                    -0.631546
     17 O                    -0.521938
     18 H                     0.163462
     19 H                     0.194480
     20 H                     0.190276
     21 H                     0.449903
     22 O                    -0.472984
     23 H                     0.222971
     24 H                     0.378609
     25 H                     0.171301
     26 S                     1.200998
     27 O                    -0.289959
     28 O                    -0.288766
     29 O                    -0.210754
     30 C                    -0.359173
     31 H                     0.228853
     32 H                     0.175807
     33 H                     0.156409
  ----------------------------------------
  Sum of atomic charges =    -2.000001

                    Cartesian Multipole Moments
 -----------------------------------------------------------------
    Charge (ESU x 10^10)
                -9.6064
    Dipole Moment (Debye)
         X       1.4385      Y      26.9423      Z      -9.4925
       Tot      28.6018
    Quadrupole Moments (Debye-Ang)
        XX    -205.3596     XY     -16.1848     YY    -271.2501
        XZ      17.2073     YZ      45.6758     ZZ    -172.6894

 Total job time:  92.76s(wall), 597.67s(cpu)
        *  Thank you very much for using Q-Chem.  Have a nice day.  *
