 Q-Chem 5.4, Q-Chem, Inc., Pleasanton, CA (2021)
 Q-Chem 5.4.0 for Intel X86 EM64T Linux

User input:
--------------------------------------------------------------
$molecule
-2 1
Cl                -3.1048820000      0.6513360000      0.1062150000
C                 -1.3128600000      0.3223360000      0.0448720000
C                 -0.9248800000     -1.0159300000      0.0326190000
C                  0.4424000000     -1.4568420000     -0.0140090000
O                  0.7951820000     -2.6970270000     -0.0253070000
C                  1.3128210000     -0.3223260000     -0.0448700000
C                  0.9248740000      1.0159310000     -0.0326180000
C                 -0.4424120000      1.4568150000      0.0140140000
O                 -0.7951770000      2.6970350000      0.0253070000
Cl                 3.1049370000     -0.6513190000     -0.1062220000
H                 -1.6805630000     -1.7948410000      0.0592440000
H                  1.6805610000      1.7948320000     -0.0592450000
$end

$rem
BASIS  =  6-311++G(d,p)
GUI  =  2
JOB_TYPE  =  SP
METHOD  =  B3LYP
SCF_CONVERGENCE  = 8
SOLVENT_METHOD = sm12
$end

$smx
solvent dimethylformamide
charges CM5
$end

--------------------------------------------------------------

             Standard Nuclear Orientation (Angstroms)
    I     Atom           X                Y                Z
 ----------------------------------------------------------------
    1      Cl     -3.1048820000     0.6513360000     0.1062150000
    2      C      -1.3128600000     0.3223360000     0.0448720000
    3      C      -0.9248800000    -1.0159300000     0.0326190000
    4      C       0.4424000000    -1.4568420000    -0.0140090000
    5      O       0.7951820000    -2.6970270000    -0.0253070000
    6      C       1.3128210000    -0.3223260000    -0.0448700000
    7      C       0.9248740000     1.0159310000    -0.0326180000
    8      C      -0.4424120000     1.4568150000     0.0140140000
    9      O      -0.7951770000     2.6970350000     0.0253070000
   10      Cl      3.1049370000    -0.6513190000    -0.1062220000
   11      H      -1.6805630000    -1.7948410000     0.0592440000
   12      H       1.6805610000     1.7948320000    -0.0592450000
 ----------------------------------------------------------------

   16   -1300.8092893195      2.01e-09  Convergence criterion met
 Total energy in the final basis set =    -1301.0876447352

                    Orbital Energies (a.u.)
 --------------------------------------------------------------

 Alpha MOs
 -- Occupied --
********-101.5292 -19.0206 -19.0206 -10.1935 -10.1934 -10.1909 -10.1909
-10.1479 -10.1479  -9.4418  -9.4418  -7.2057  -7.2057  -7.1973  -7.1973
 -7.1969  -7.1969  -0.9385  -0.9342  -0.8398  -0.8299  -0.7726  -0.6975
 -0.6587  -0.5805  -0.5325  -0.4577  -0.4438  -0.4256  -0.3923  -0.3839
 -0.3629  -0.3480  -0.3439  -0.3385  -0.3084  -0.3000  -0.2908  -0.2871
 -0.2292  -0.2204  -0.2003  -0.1992  -0.1285

          Ground-State Mulliken Net Atomic Charges

     Atom                 Charge (a.u.)
  ----------------------------------------
      1 Cl                    0.688297
      2 C                     1.640390
      3 C                    -1.400729
      4 C                    -1.517543
      5 O                    -0.436017
      6 C                     1.640345
      7 C                    -1.400762
      8 C                    -1.517769
      9 O                    -0.436041
     10 Cl                    0.688218
     11 H                     0.025809
     12 H                     0.025801
  ----------------------------------------
  Sum of atomic charges =    -2.000000

                    Cartesian Multipole Moments
 -----------------------------------------------------------------
    Charge (ESU x 10^10)
                -9.6064
    Dipole Moment (Debye)
         X      -0.0004      Y      -0.0002      Z       0.0000
       Tot       0.0004
    Quadrupole Moments (Debye-Ang)
        XX    -110.0748     XY      18.1102     YY    -131.9725
        XZ       1.0004     YZ      -0.5846     ZZ     -80.5778

 Total job time:  113.18s(wall), 776.02s(cpu)
        *  Thank you very much for using Q-Chem.  Have a nice day.  *
