 Gaussian 16, Revision A.03,
 Gaussian 16:  ES64L-G16RevA.03 25-Dec-2016

 --------------------------------------
 #P UB3LYP/6-311++G(d,p) nosym opt freq
 --------------------------------------

 -------
 Radical
 -------
 Symbolic Z-matrix:
 Charge = -1 Multiplicity = 2

 SCF Done:  E(UB3LYP) =  -653.309275418     A.U. after   23 cycles
 SCF Done:  E(UB3LYP) =  -653.309247076     A.U. after   11 cycles
 SCF Done:  E(UB3LYP) =  -653.309248230     A.U. after   12 cycles
 SCF Done:  E(UB3LYP) =  -653.309248371     A.U. after   11 cycles
 SCF Done:  E(UB3LYP) =  -653.309248401     A.U. after   10 cycles
 Optimization completed.
    -- Stationary point found.
 Normal termination of Gaussian 16 at Sun Jan  7 20:45:26 2024.

 ----------------------------------------------------------------------
 #P Geom=AllCheck Guess=TCheck SCRF=Check GenChk UB3LYP/6-311++G(d,p) F
 req
 ----------------------------------------------------------------------

 Structure from the checkpoint file:  "247-rad.chk"
 -------
 Radical
 -------
 Charge = -1 Multiplicity = 2

                          Input orientation:
 ---------------------------------------------------------------------
 Center     Atomic      Atomic             Coordinates (Angstroms)
 Number     Number       Type             X           Y           Z
 ---------------------------------------------------------------------
      1          6           0       -3.149800    1.423071    0.195088
      2          6           0       -2.412232    0.654251   -0.917760
      3          6           0       -1.049653    0.156234   -0.489507
      4          6           0       -0.859690   -1.129187    0.008350
      5          6           0       -2.003908   -2.109150    0.135001
      6          6           0        0.443814   -1.608018    0.426059
      7          8           0        0.627413   -2.775058    0.873703
      8          6           0        1.564449   -0.662937    0.307476
      9          6           0        2.859361   -1.059653    0.697385
     10          6           0        3.932124   -0.191679    0.596483
     11          6           0        3.736919    1.111437    0.097213
     12          6           0        2.472523    1.518734   -0.289824
     13          6           0        1.368402    0.648544   -0.194382
     14          6           0        0.035915    1.106987   -0.612052
     15          8           0       -0.142557    2.276642   -1.054866
     16          1           0       -4.124786    1.785708   -0.153235
     17          1           0       -2.556538    2.285655    0.507038
     18          1           0       -3.317826    0.789591    1.071990
     19          1           0       -3.034950   -0.179094   -1.257007
     20          1           0       -2.273145    1.333551   -1.763322
     21          1           0       -1.645265   -3.009574    0.634276
     22          1           0       -2.840597   -1.694880    0.708617
     23          1           0       -2.401958   -2.399167   -0.846091
     24          1           0        2.979078   -2.067808    1.077400
     25          1           0        4.924042   -0.513289    0.901339
     26          1           0        4.578232    1.794055    0.017353
     27          1           0        2.290635    2.515036   -0.676725
 ---------------------------------------------------------------------

 SCF Done:  E(UB3LYP) =  -653.309248401     A.U. after    1 cycles

 Alpha  occ. eigenvalues --  -18.93672 -18.93634 -10.08373 -10.08328 -10.05260
 Alpha  occ. eigenvalues --  -10.05211 -10.04579 -10.04462 -10.04451 -10.04307
 Alpha  occ. eigenvalues --  -10.04202 -10.04149 -10.03962 -10.03593 -10.03574
 Alpha  occ. eigenvalues --   -0.86142  -0.85858  -0.73017  -0.69227  -0.64334
 Alpha  occ. eigenvalues --   -0.62294  -0.62213  -0.57109  -0.53132  -0.51044
 Alpha  occ. eigenvalues --   -0.47249  -0.45544  -0.42285  -0.38778  -0.36649
 Alpha  occ. eigenvalues --   -0.33744  -0.33294  -0.31703  -0.30156  -0.29867
 Alpha  occ. eigenvalues --   -0.29388  -0.28146  -0.27499  -0.27092  -0.25651
 Alpha  occ. eigenvalues --   -0.25598  -0.24796  -0.23802  -0.23277  -0.22353
 Alpha  occ. eigenvalues --   -0.21676  -0.20733  -0.20437  -0.13542  -0.12870
 Alpha  occ. eigenvalues --   -0.11409  -0.10710  -0.09693  -0.01572
 Alpha virt. eigenvalues --    0.08344   0.08577   0.09476   0.10093   0.10502
 Alpha virt. eigenvalues --    0.11062   0.11234   0.11944   0.13208   0.13608
 Alpha virt. eigenvalues --    0.13906   0.14262   0.15330   0.16124   0.16556

  Beta  occ. eigenvalues --  -18.93006 -18.92994 -10.08240 -10.08193 -10.05222
  Beta  occ. eigenvalues --  -10.05173 -10.04565 -10.04469 -10.04458 -10.04319
  Beta  occ. eigenvalues --  -10.04134 -10.04081 -10.03812 -10.03587 -10.03455
  Beta  occ. eigenvalues --   -0.85028  -0.84709  -0.72825  -0.68852  -0.64116
  Beta  occ. eigenvalues --   -0.62144  -0.62026  -0.56834  -0.52575  -0.50797
  Beta  occ. eigenvalues --   -0.47147  -0.45229  -0.42049  -0.38589  -0.36431
  Beta  occ. eigenvalues --   -0.33554  -0.33141  -0.31542  -0.30019  -0.29622
  Beta  occ. eigenvalues --   -0.29163  -0.27886  -0.27025  -0.26360  -0.25369
  Beta  occ. eigenvalues --   -0.25210  -0.24658  -0.23710  -0.22342  -0.20864
  Beta  occ. eigenvalues --   -0.20766  -0.20329  -0.20180  -0.12248  -0.11426
  Beta  occ. eigenvalues --   -0.10148  -0.09963  -0.09087
  Beta virt. eigenvalues --    0.05039   0.08387   0.08574   0.10010   0.10191
  Beta virt. eigenvalues --    0.10508   0.11090   0.11915   0.12227   0.13204
  Beta virt. eigenvalues --    0.13612   0.13964   0.14257   0.15348   0.16144

 Mulliken charges and spin densities:
               1          2
     1  C   -0.654866   0.007593
     2  C   -0.434964   0.000103
     3  C    0.922161   0.101879
     4  C    0.728579   0.111725
     5  C   -0.522974  -0.001615
     6  C   -0.774231   0.073182
     7  O   -0.389605   0.245546
     8  C    0.323713   0.022266
     9  C    0.081465   0.020585
    10  C   -0.379561   0.028341
    11  C   -0.356893   0.028228
    12  C    0.017660   0.021399
    13  C    0.102275   0.019174
    14  C   -0.979303   0.075574
    15  O   -0.380811   0.238247
    16  H    0.088041   0.004893
    17  H    0.181850  -0.001120
    18  H    0.106111  -0.001496
    19  H    0.129769   0.001537
    20  H    0.186223   0.002378
    21  H    0.191791  -0.001767
    22  H    0.130319   0.005820
    23  H    0.130201   0.006279
    24  H    0.159229  -0.001922
    25  H    0.116112  -0.002465
    26  H    0.116632  -0.002445
    27  H    0.161079  -0.001919
 Sum of Mulliken charges =  -1.00000   1.00000

 Dipole moment (field-independent basis, Debye):
    X=             -2.1834    Y=              0.7836    Z=              0.1553  Tot=              2.3249
 Quadrupole moment (field-independent basis, Debye-Ang):
   XX=           -104.4401   YY=           -122.7935   ZZ=            -99.5593
   XY=              4.4366   XZ=             -1.4063   YZ=              9.7816

  Exact polarizability: 252.381   5.463 199.015  19.571 -30.070 115.095
 Approx polarizability: 348.891   4.396 355.594  32.663 -67.682 187.938

                      1                      2                      3
                      A                      A                      A
 Frequencies --     60.5721                68.4680                92.6313
 Red. masses --      3.8366                 3.1334                 2.9202
 Frc consts  --      0.0083                 0.0087                 0.0148
 IR Inten    --      4.6203                 1.2031                 3.0827

                      4                      5                      6
                      A                      A                      A
 Frequencies --    117.2762               138.2655               165.6929
 Red. masses --      1.1445                 4.2722                 5.0815
 Frc consts  --      0.0093                 0.0481                 0.0822
 IR Inten    --      0.0649                 0.3275                 1.3101

                      7                      8                      9
                      A                      A                      A
 Frequencies --    214.2461               215.0255               258.9344
 Red. masses --      3.4663                 1.2135                 3.4324
 Frc consts  --      0.0937                 0.0331                 0.1356
 IR Inten    --      0.2775                 0.5307                 3.6036

                     10                     11                     12
                      A                      A                      A
 Frequencies --    326.8158               340.7683               352.8782
 Red. masses --      3.9198                 2.5505                 3.3992
 Frc consts  --      0.2467                 0.1745                 0.2494
 IR Inten    --      0.1697                 0.4764                 0.9091

                     13                     14                     15
                      A                      A                      A
 Frequencies --    387.8380               415.7142               427.9634
 Red. masses --      8.3976                 6.1695                 6.2029
 Frc consts  --      0.7442                 0.6282                 0.6694
 IR Inten    --      9.4983                 1.7805                 2.5782

                     16                     17                     18
                      A                      A                      A
 Frequencies --    441.8912               467.3040               516.3349
 Red. masses --      3.8071                 4.3377                 8.3506
 Frc consts  --      0.4380                 0.5581                 1.3117
 IR Inten    --      1.1395                 1.0232                 0.0736

                     19                     20                     21
                      A                      A                      A
 Frequencies --    559.6459               614.7873               668.6960
 Red. masses --      4.6252                 4.6553                 5.6404
 Frc consts  --      0.8535                 1.0367                 1.4860
 IR Inten    --      2.7581                15.1711                 1.4884

                     22                     23                     24
                      A                      A                      A
 Frequencies --    676.0601               690.2083               714.5008
 Red. masses --      3.5132                 3.7460                 2.7416
 Frc consts  --      0.9461                 1.0514                 0.8246
 IR Inten    --      0.7773                16.9974                39.9135

                     25                     26                     27
                      A                      A                      A
 Frequencies --    774.1872               779.6082               799.9864
 Red. masses --      1.5556                 1.8725                 4.3871
 Frc consts  --      0.5494                 0.6705                 1.6542
 IR Inten    --      2.8081                20.7699                 0.1029

                     28                     29                     30
                      A                      A                      A
 Frequencies --    846.4674               872.5661               880.4372
 Red. masses --      2.6880                 1.5034                 3.0077
 Frc consts  --      1.1347                 0.6744                 1.3737
 IR Inten    --      6.6590                 0.0103                10.9730

                     31                     32                     33
                      A                      A                      A
 Frequencies --    958.2909               978.7156               981.2450
 Red. masses --      3.3723                 1.3657                 1.2541
 Frc consts  --      1.8246                 0.7708                 0.7114
 IR Inten    --      6.0946                 2.9287                 0.0087

                     34                     35                     36
                      A                      A                      A
 Frequencies --    998.9773              1033.7811              1039.9419
 Red. masses --      2.5871                 2.1456                 1.4872
 Frc consts  --      1.5212                 1.3510                 0.9476
 IR Inten    --      3.3105                20.3778                 1.3035

                     37                     38                     39
                      A                      A                      A
 Frequencies --   1049.4619              1076.5073              1104.8055
 Red. masses --      1.7406                 1.9325                 2.0937
 Frc consts  --      1.1295                 1.3195                 1.5057
 IR Inten    --      1.7353                 9.4238                 4.0477

                     40                     41                     42
                      A                      A                      A
 Frequencies --   1129.2817              1145.2588              1181.8839
 Red. masses --      1.9757                 1.4390                 2.5958
 Frc consts  --      1.4845                 1.1120                 2.1364
 IR Inten    --     25.4361                 6.3008                 0.3145

                     43                     44                     45
                      A                      A                      A
 Frequencies --   1210.7366              1235.6999              1271.4955
 Red. masses --      2.0791                 3.5191                 2.0332
 Frc consts  --      1.7957                 3.1660                 1.9367
 IR Inten    --      0.7758                24.9117                32.3375

                     46                     47                     48
                      A                      A                      A
 Frequencies --   1300.1107              1346.5925              1357.2792
 Red. masses --      1.2669                 1.4521                10.2229
 Frc consts  --      1.2617                 1.5514                11.0959
 IR Inten    --      1.3736                 7.1166                 7.4357

                     49                     50                     51
                      A                      A                      A
 Frequencies --   1375.9462              1388.1864              1406.1257
 Red. masses --      1.3475                 1.2396                 2.6122
 Frc consts  --      1.5031                 1.4075                 3.0430
 IR Inten    --     11.6374                 6.7815                65.2684

                     52                     53                     54
                      A                      A                      A
 Frequencies --   1456.5023              1470.9666              1479.4048
 Red. masses --      1.7414                 2.6661                 1.2993
 Frc consts  --      2.1765                 3.3988                 1.6755
 IR Inten    --    134.5355                49.0939                 1.1855

                     55                     56                     57
                      A                      A                      A
 Frequencies --   1485.3124              1491.0218              1500.2397
 Red. masses --      1.6426                 1.0660                 1.0907
 Frc consts  --      2.1350                 1.3962                 1.4464
 IR Inten    --      4.5643                 8.8107                 3.2528

                     58                     59                     60
                      A                      A                      A
 Frequencies --   1506.9624              1510.7152              1522.2658
 Red. masses --      1.0847                 3.7224                 4.4775
 Frc consts  --      1.4514                 5.0055                 6.1132
 IR Inten    --     23.2461                 8.5015               394.1485

                     61                     62                     63
                      A                      A                      A
 Frequencies --   1543.8566              1612.7207              1625.7415
 Red. masses --      5.2418                 8.0914                 5.9940
 Frc consts  --      7.3612                12.3991                 9.3340
 IR Inten    --     31.9167                 3.5603                 5.7798

                     64                     65                     66
                      A                      A                      A
 Frequencies --   2991.4298              2999.0212              3026.0988
 Red. masses --      1.0453                 1.0411                 1.0626
 Frc consts  --      5.5112                 5.5171                 5.7331
 IR Inten    --     88.4466               117.2789                62.7340

                     67                     68                     69
                      A                      A                      A
 Frequencies --   3032.5660              3053.3377              3067.5142
 Red. masses --      1.0902                 1.0987                 1.0970
 Frc consts  --      5.9072                 6.0348                 6.0820
 IR Inten    --     52.5354                51.4416                39.6721

                     70                     71                     72
                      A                      A                      A
 Frequencies --   3095.9971              3110.4619              3129.8173
 Red. masses --      1.1010                 1.0947                 1.0845
 Frc consts  --      6.2179                 6.2402                 6.2594
 IR Inten    --     31.8940                 6.9064                16.7452

                     73                     74                     75
                      A                      A                      A
 Frequencies --   3149.4980              3180.0174              3182.7653
 Red. masses --      1.0913                 1.0912                 1.0925
 Frc consts  --      6.3780                 6.5017                 6.5208
 IR Inten    --     55.1846                12.8925                26.2919

 - Thermochemistry -
 -------------------
 Temperature   298.150 Kelvin.  Pressure   1.00000 Atm.
 Atom     1 has atomic number  6 and mass  12.00000

 Molecular mass:   200.08373 amu.
 Principal axes and moments of inertia in atomic units:
                           1         2         3
     Eigenvalues --  1864.035573474.301555148.89576
           X            0.99319   0.05836  -0.10080
           Y           -0.02818   0.96009   0.27826
           Z            0.11301  -0.27352   0.95520
 This molecule is an asymmetric top.
 Rotational symmetry number  1.
 Warning -- assumption of classical behavior for rotation
           may cause significant error
 Rotational temperatures (Kelvin)      0.04647     0.02493     0.01682
 Rotational constants (GHZ):           0.96819     0.51945     0.35051
 Zero-point vibrational energy     560332.8 (Joules/Mol)
                                  133.92275 (Kcal/Mol)
 Warning -- explicit consideration of  20 degrees of freedom as
           vibrations may cause significant error
 Vibrational temperatures:     87.15    98.51   133.28   168.73   198.93
          (Kelvin)            238.40   308.25   309.37   372.55   470.22
                              490.29   507.71   558.01   598.12   615.74
                              635.78   672.35   742.89   805.21   884.54
                              962.10   972.70   993.06  1028.01  1113.88
                             1121.68  1151.00  1217.88  1255.43  1266.75
                             1378.77  1408.15  1411.79  1437.31  1487.38
                             1496.24  1509.94  1548.85  1589.57  1624.78
                             1647.77  1700.47  1741.98  1777.90  1829.40
                             1870.57  1937.45  1952.82  1979.68  1997.29
                             2023.10  2095.58  2116.39  2128.53  2137.03
                             2145.25  2158.51  2168.18  2173.58  2190.20
                             2221.27  2320.35  2339.08  4304.00  4314.92
                             4353.88  4363.19  4393.07  4413.47  4454.45
                             4475.26  4503.11  4531.43  4575.34  4579.29

 Zero-point correction=                           0.213419 (Hartree/Particle)
 Thermal correction to Energy=                    0.226652
 Thermal correction to Enthalpy=                  0.227596
 Thermal correction to Gibbs Free Energy=         0.173104
 Sum of electronic and zero-point Energies=           -653.095829
 Sum of electronic and thermal Energies=              -653.082597
 Sum of electronic and thermal Enthalpies=            -653.081652
 Sum of electronic and thermal Free Energies=         -653.136144

                     E (Thermal)             CV                S
                      KCal/Mol        Cal/Mol-Kelvin    Cal/Mol-Kelvin
 Total                  142.226             51.256            114.688
 Electronic               0.000              0.000              1.377
 Translational            0.889              2.981             41.785
 Rotational               0.889              2.981             31.878
 Vibrational            140.449             45.295             39.647
 Vibration     1          0.597              1.973              4.438
 Vibration     2          0.598              1.969              4.197
 Vibration     3          0.602              1.954              3.604
 Vibration     4          0.608              1.935              3.145
 Vibration     5          0.614              1.915              2.828
 Vibration     6          0.624              1.885              2.484
 Vibration     7          0.644              1.819              2.007
 Vibration     8          0.645              1.818              2.001
 Vibration     9          0.668              1.748              1.669
 Vibration    10          0.710              1.622              1.276
 Vibration    11          0.720              1.594              1.209
 Vibration    12          0.729              1.569              1.153
 Vibration    13          0.756              1.496              1.008
 Vibration    14          0.779              1.436              0.907
 Vibration    15          0.789              1.409              0.865
 Vibration    16          0.802              1.379              0.821
 Vibration    17          0.825              1.323              0.745
 Vibration    18          0.871              1.214              0.619
 Vibration    19          0.915              1.119              0.525
 Vibration    20          0.974              1.001              0.425

                           ! Non-Optimized Parameters !
 Normal termination of Gaussian 16 at Sun Jan  7 21:47:40 2024.
