 Q-Chem 5.4, Q-Chem, Inc., Pleasanton, CA (2021)
 Q-Chem 5.4.0 for Intel X86 EM64T Linux

User input:
--------------------------------------------------------------
$molecule
-1 2
C                 -3.1498000000      1.4230710000      0.1950880000
C                 -2.4122320000      0.6542510000     -0.9177600000
C                 -1.0496530000      0.1562340000     -0.4895070000
C                 -0.8596900000     -1.1291870000      0.0083500000
C                 -2.0039080000     -2.1091500000      0.1350010000
C                  0.4438140000     -1.6080180000      0.4260590000
O                  0.6274130000     -2.7750580000      0.8737030000
C                  1.5644490000     -0.6629370000      0.3074760000
C                  2.8593610000     -1.0596530000      0.6973850000
C                  3.9321240000     -0.1916790000      0.5964830000
C                  3.7369190000      1.1114370000      0.0972130000
C                  2.4725230000      1.5187340000     -0.2898240000
C                  1.3684020000      0.6485440000     -0.1943820000
C                  0.0359150000      1.1069870000     -0.6120520000
O                 -0.1425570000      2.2766420000     -1.0548660000
H                 -4.1247860000      1.7857080000     -0.1532350000
H                 -2.5565380000      2.2856550000      0.5070380000
H                 -3.3178260000      0.7895910000      1.0719900000
H                 -3.0349500000     -0.1790940000     -1.2570070000
H                 -2.2731450000      1.3335510000     -1.7633220000
H                 -1.6452650000     -3.0095740000      0.6342760000
H                 -2.8405970000     -1.6948800000      0.7086170000
H                 -2.4019580000     -2.3991670000     -0.8460910000
H                  2.9790780000     -2.0678080000      1.0774000000
H                  4.9240420000     -0.5132890000      0.9013390000
H                  4.5782320000      1.7940550000      0.0173530000
H                  2.2906350000      2.5150360000     -0.6767250000
$end
$rem
MAX_SCF_CYCLES=200
BASIS  =  6-311++G(d,p)
GUI  =  2
JOB_TYPE  =  SP
METHOD  =  B3LYP
SOLVENT_METHOD = PCM
$end
$pcm
theory = CPCM
$end
$solvent
dielectric 37.219
opticaldielectric 1.43
$end

--------------------------------------------------------------

             Standard Nuclear Orientation (Angstroms)
    I     Atom           X                Y                Z
 ----------------------------------------------------------------
    1      C      -3.1498000000     1.4230710000     0.1950880000
    2      C      -2.4122320000     0.6542510000    -0.9177600000
    3      C      -1.0496530000     0.1562340000    -0.4895070000
    4      C      -0.8596900000    -1.1291870000     0.0083500000
    5      C      -2.0039080000    -2.1091500000     0.1350010000
    6      C       0.4438140000    -1.6080180000     0.4260590000
    7      O       0.6274130000    -2.7750580000     0.8737030000
    8      C       1.5644490000    -0.6629370000     0.3074760000
    9      C       2.8593610000    -1.0596530000     0.6973850000
   10      C       3.9321240000    -0.1916790000     0.5964830000
   11      C       3.7369190000     1.1114370000     0.0972130000
   12      C       2.4725230000     1.5187340000    -0.2898240000
   13      C       1.3684020000     0.6485440000    -0.1943820000
   14      C       0.0359150000     1.1069870000    -0.6120520000
   15      O      -0.1425570000     2.2766420000    -1.0548660000
   16      H      -4.1247860000     1.7857080000    -0.1532350000
   17      H      -2.5565380000     2.2856550000     0.5070380000
   18      H      -3.3178260000     0.7895910000     1.0719900000
   19      H      -3.0349500000    -0.1790940000    -1.2570070000
   20      H      -2.2731450000     1.3335510000    -1.7633220000
   21      H      -1.6452650000    -3.0095740000     0.6342760000
   22      H      -2.8405970000    -1.6948800000     0.7086170000
   23      H      -2.4019580000    -2.3991670000    -0.8460910000
   24      H       2.9790780000    -2.0678080000     1.0774000000
   25      H       4.9240420000    -0.5132890000     0.9013390000
   26      H       4.5782320000     1.7940550000     0.0173530000
   27      H       2.2906350000     2.5150360000    -0.6767250000
 ----------------------------------------------------------------

    8    -653.3890137433      6.58e-06  Convergence criterion met
 Total energy in the final basis set =     -653.3890137433

                    Orbital Energies (a.u.)
 --------------------------------------------------------------

 Alpha MOs
 -- Occupied --
-19.0731 -19.0722 -10.2173 -10.2168 -10.1702 -10.1697 -10.1689 -10.1684
-10.1670 -10.1670 -10.1665 -10.1631 -10.1559 -10.1505 -10.1493  -0.9981
 -0.9954  -0.8550  -0.8156  -0.7618  -0.7471  -0.7403  -0.6902  -0.6554
 -0.6280  -0.5933  -0.5754  -0.5478  -0.5118  -0.4867  -0.4632  -0.4504
 -0.4332  -0.4231  -0.4212  -0.4130  -0.4070  -0.4045  -0.3942  -0.3773
 -0.3772  -0.3662  -0.3609  -0.3536  -0.3456  -0.3378  -0.3277  -0.3255
 -0.2659  -0.2545  -0.2446  -0.2381  -0.2322  -0.1487

 Beta MOs
 -- Occupied --
-19.0673 -19.0665 -10.2154 -10.2149 -10.1699 -10.1694 -10.1684 -10.1679
-10.1670 -10.1669 -10.1652 -10.1618 -10.1560 -10.1504 -10.1494  -0.9878
 -0.9850  -0.8529  -0.8116  -0.7598  -0.7452  -0.7384  -0.6871  -0.6491
 -0.6261  -0.5920  -0.5726  -0.5451  -0.5097  -0.4844  -0.4604  -0.4494
 -0.4296  -0.4224  -0.4158  -0.4091  -0.4036  -0.4010  -0.3874  -0.3756
 -0.3692  -0.3650  -0.3530  -0.3441  -0.3385  -0.3331  -0.3258  -0.3236
 -0.2480  -0.2445  -0.2393  -0.2290  -0.2266

          Ground-State Mulliken Net Atomic Charges

     Atom                 Charge (a.u.)    Spin (a.u.)
  --------------------------------------------------------
      1 C                    -0.677430       0.008879
      2 C                    -0.356471       0.001101
      3 C                     0.776655       0.092954
      4 C                     0.610176       0.099588
      5 C                    -0.490696      -0.000903
      6 C                    -0.541368       0.116207
      7 O                    -0.505637       0.219208
      8 C                     0.179958       0.007324
      9 C                     0.098220       0.032252
     10 C                    -0.466217       0.025693
     11 C                    -0.449810       0.026284
     12 C                     0.039444       0.031584
     13 C                    -0.004409       0.005153
     14 C                    -0.735829       0.115401
     15 O                    -0.497678       0.215401
     16 H                     0.138597       0.002404
     17 H                     0.166391      -0.001024
     18 H                     0.133650      -0.001133
     19 H                     0.163639       0.001167
     20 H                     0.170345       0.002264
     21 H                     0.172710      -0.001309
     22 H                     0.169503       0.004424
     23 H                     0.176379       0.005825
     24 H                     0.172174      -0.002176
     25 H                     0.191761      -0.002195
     26 H                     0.192114      -0.002229
     27 H                     0.173830      -0.002143
  --------------------------------------------------------
  Sum of atomic charges =    -1.000000

                    Cartesian Multipole Moments
 -----------------------------------------------------------------
    Charge (ESU x 10^10)
                -4.8032
    Dipole Moment (Debye)
         X      -2.0926      Y       1.0165      Z       0.2913
       Tot       2.3445
    Quadrupole Moments (Debye-Ang)
        XX     -89.1727     XY       6.7857     YY    -125.3253
        XZ      -0.4078     YZ      11.5276     ZZ     -99.4918

 Total job time:  71.44s(wall), 328.33s(cpu)
        *  Thank you very much for using Q-Chem.  Have a nice day.  *
