 Q-Chem 5.4, Q-Chem, Inc., Pleasanton, CA (2021)
 Q-Chem 5.4.0 for Intel X86 EM64T Linux

User input:
--------------------------------------------------------------
$molecule
-1 2
C                  5.8491260000     -5.2149870000      1.1747280000
C                  6.7562100000     -5.1200450000      0.1389640000
C                  6.5693510000     -4.1540670000     -0.8732560000
C                  4.7342760000     -4.3605580000      1.2402270000
C                  4.5469080000     -3.3913720000      0.2248700000
C                  5.4802850000     -3.3078420000     -0.8234760000
C                  3.7890570000     -4.4900380000      2.3572980000
C                  2.6655620000     -3.5735400000      2.3545390000
C                  2.4818180000     -2.6225910000      1.3584510000
C                  3.3995080000     -2.4742470000      0.2457810000
O                  3.9644570000     -5.3559950000      3.2562820000
O                  3.2414660000     -1.6147770000     -0.6625990000
H                  5.9710420000     -5.9475300000      1.9623010000
H                  5.3156360000     -2.5591980000     -1.5877840000
Br                 8.2547150000     -6.3314270000      0.1297870000
Br                 7.7972290000     -3.9686950000     -2.3465530000
C                  1.6871870000     -3.6963110000      3.4963230000
C                  1.2989470000     -1.6868280000      1.3917100000
H                  2.0084210000     -4.4951550000      4.1645500000
H                  0.6750220000     -3.9222990000      3.1387030000
H                  1.6168760000     -2.7641520000      4.0704000000
H                  0.3490590000     -2.2352430000      1.3723020000
H                  1.3372760000     -1.0232600000      0.5279490000
H                  1.2913730000     -1.0772750000      2.3037500000
$end
$rem
MAX_SCF_CYCLES=200
BASIS  =  6-311++G(d,p)
GUI  =  2
JOB_TYPE  =  SP
METHOD  =  B3LYP
SOLVENT_METHOD = COSMO
$end
$solvent
dielectric 37.219
opticaldielectric 1.43
$end

--------------------------------------------------------------

             Standard Nuclear Orientation (Angstroms)
    I     Atom           X                Y                Z
 ----------------------------------------------------------------
    1      C      -0.0488416739    -1.3933825366     0.0000416222
    2      C      -1.2454333851    -0.7057847572     0.0000190670
    3      C      -1.2454517524     0.7058168537     0.0000690977
    4      C       1.1789866738    -0.7080599075     0.0000339547
    5      C       1.1789770529     0.7080538206    -0.0000944411
    6      C      -0.0488350026     1.3933835022    -0.0000267148
    7      C       2.4334234542    -1.4725466579     0.0001749919
    8      C       3.6569871980    -0.6946591559     0.0000734492
    9      C       3.6569697667     0.6946777692    -0.0001915649
   10      C       2.4334129172     1.4725620939    -0.0003355212
   11      O       2.4230373885    -2.7329874583     0.0003657176
   12      O       2.4230224728     2.7330033493    -0.0005789383
   13      H      -0.0232685866    -2.4755562775     0.0000339607
   14      H      -0.0231576174     2.4755500893    -0.0000460594
   15      Br     -2.8797771378    -1.7265531920    -0.0003017910
   16      Br     -2.8796841330     1.7265693576     0.0003213811
   17      C       4.9523947105    -1.4678863397     0.0004739413
   18      C       4.9524436056     1.4677818283    -0.0002400584
   19      H       4.7367709493    -2.5362386844     0.0005347133
   20      H       5.5635039417    -1.2321328420     0.8804775911
   21      H       5.5640402362    -1.2323054570    -0.8791963597
   22      H       5.5637956754     1.2321279969     0.8796115278
   23      H       4.7370004459     2.5361726304    -0.0003230506
   24      H       5.5637791518     1.2319505415    -0.8800591541
 ----------------------------------------------------------------

   10   -5761.0738176958      8.71e-06  Convergence criterion met
 Total energy in the final basis set =    -5761.0738176958
    4   -5761.1478027051      7.38e-06  Convergence criterion met
 Total energy in the final basis set =    -5761.1478027051

                    Orbital Energies (a.u.)
 --------------------------------------------------------------

 Alpha MOs
 -- Occupied --
********-482.8373 -62.4901 -62.4901 -56.3106 -56.3106 -56.3068 -56.3068
-56.3066 -56.3066 -19.0820 -19.0820 -10.2435 -10.2430 -10.2267 -10.2267
-10.1888 -10.1888 -10.1839 -10.1834 -10.1737 -10.1731 -10.1529 -10.1529
 -8.6988  -8.6988  -6.5302  -6.5302  -6.5174  -6.5174  -6.5169  -6.5169
 -2.6410  -2.6410  -2.6377  -2.6376  -2.6371  -2.6371  -2.6270  -2.6270
 -2.6269  -2.6268  -1.0086  -1.0060  -0.8923  -0.8346  -0.8126  -0.8050
 -0.7514  -0.7426  -0.7260  -0.6737  -0.6573  -0.6161  -0.5871  -0.5595
 -0.5177  -0.4848  -0.4847  -0.4525  -0.4421  -0.4407  -0.4290  -0.4204
 -0.4121  -0.3987  -0.3894  -0.3889  -0.3826  -0.3813  -0.3732  -0.3690
 -0.3488  -0.3472  -0.3243  -0.3151  -0.3147  -0.2864  -0.2674  -0.2615
 -0.2546  -0.2422  -0.2419  -0.1575

 Beta MOs
 -- Occupied --
********-482.8373 -62.4901 -62.4901 -56.3106 -56.3106 -56.3068 -56.3067
-56.3066 -56.3066 -19.0758 -19.0758 -10.2430 -10.2425 -10.2251 -10.2250
-10.1889 -10.1888 -10.1831 -10.1827 -10.1725 -10.1719 -10.1530 -10.1530
 -8.6987  -8.6987  -6.5302  -6.5302  -6.5174  -6.5174  -6.5169  -6.5169
 -2.6410  -2.6410  -2.6376  -2.6376  -2.6371  -2.6371  -2.6270  -2.6270
 -2.6268  -2.6268  -0.9979  -0.9951  -0.8909  -0.8305  -0.8120  -0.8034
 -0.7497  -0.7408  -0.7227  -0.6720  -0.6507  -0.6155  -0.5835  -0.5562
 -0.5161  -0.4824  -0.4823  -0.4510  -0.4416  -0.4323  -0.4261  -0.4143
 -0.4093  -0.3912  -0.3880  -0.3877  -0.3819  -0.3693  -0.3685  -0.3537
 -0.3465  -0.3455  -0.3221  -0.3147  -0.3065  -0.2862  -0.2559  -0.2489
 -0.2475  -0.2364  -0.2343

          Ground-State Mulliken Net Atomic Charges

     Atom                 Charge (a.u.)    Spin (a.u.)
  --------------------------------------------------------
      1 C                    -0.208062       0.019722
      2 C                     0.059661       0.028074
      3 C                     0.058904       0.028100
      4 C                     0.573252       0.042833
      5 C                     0.574478       0.042866
      6 C                    -0.207965       0.019707
      7 C                    -1.270412       0.070701
      8 C                     0.905274       0.111189
      9 C                     0.904828       0.111154
     10 C                    -1.270298       0.070691
     11 O                    -0.489418       0.223043
     12 O                    -0.489428       0.223034
     13 H                     0.215858      -0.002011
     14 H                     0.215864      -0.002010
     15 Br                   -0.236016       0.001784
     16 Br                   -0.236021       0.001787
     17 C                    -0.563250      -0.002247
     18 C                    -0.563318      -0.002253
     19 H                     0.186651      -0.001316
     20 H                     0.163293       0.004120
     21 H                     0.163184       0.004117
     22 H                     0.163165       0.004115
     23 H                     0.186530      -0.001316
     24 H                     0.163246       0.004117
  --------------------------------------------------------
  Sum of atomic charges =    -1.000000

                    Cartesian Multipole Moments
 -----------------------------------------------------------------
    Charge (ESU x 10^10)
                -4.8032
    Dipole Moment (Debye)
         X      -5.9917      Y       0.0001      Z       0.0007
       Tot       5.9917
    Quadrupole Moments (Debye-Ang)
        XX    -143.1481     XY      -0.0037     YY    -159.6271
        XZ       0.0034     YZ       0.0063     ZZ    -122.8309

 Total job time:  81.68s(wall), 614.47s(cpu)
        *  Thank you very much for using Q-Chem.  Have a nice day.  *
