 Gaussian 16, Revision A.03,
 Gaussian 16:  ES64L-G16RevA.03 25-Dec-2016

 ----------------------------------------------------------------------
 #P UB3LYP/6-311++G(d,p) nosym opt freq SCRF=(PCM,Solvent=n,n-DiMethylF
 ormamide)
 ----------------------------------------------------------------------

 --------
 Oxidized
 --------
 Symbolic Z-matrix:
 Charge =  0 Multiplicity = 1

 SCF Done:  E(UB3LYP) =  -878.360009698     A.U. after   15 cycles
 SCF Done:  E(UB3LYP) =  -878.360281061     A.U. after   12 cycles
 SCF Done:  E(UB3LYP) =  -878.360377325     A.U. after   12 cycles
 SCF Done:  E(UB3LYP) =  -878.360404403     A.U. after   11 cycles
 SCF Done:  E(UB3LYP) =  -878.360404862     A.U. after   10 cycles
 SCF Done:  E(UB3LYP) =  -878.360406550     A.U. after   10 cycles
 SCF Done:  E(UB3LYP) =  -878.360406528     A.U. after    9 cycles
 Optimization completed.
    -- Stationary point found.
 Normal termination of Gaussian 16 at Sat Feb 10 16:23:47 2024.

 ----------------------------------------------------------------------
 #P Geom=AllCheck Guess=TCheck SCRF=Check GenChk UB3LYP/6-311++G(d,p) F
 req
 ----------------------------------------------------------------------

 Structure from the checkpoint file:  "172.chk"
 --------
 Oxidized
 --------
 Charge =  0 Multiplicity = 1

                          Input orientation:
 ---------------------------------------------------------------------
 Center     Atomic      Atomic             Coordinates (Angstroms)
 Number     Number       Type             X           Y           Z
 ---------------------------------------------------------------------
      1          6           0       -1.420836    1.991663   -4.742202
      2          6           0       -1.491221    0.633019   -5.016156
      3          6           0       -1.395488   -0.297354   -3.973754
      4          6           0       -1.253718    2.443102   -3.424728
      5          6           0       -1.157250    1.510468   -2.379926
      6          6           0       -1.229786    0.139464   -2.666964
      7          6           0       -1.181490    3.898160   -3.154207
      8          6           0       -0.979488    1.954904   -0.977583
      9          6           0       -1.007535    4.343196   -1.779876
     10          6           0       -0.907999    3.382080   -0.703177
     11          6           0       -0.935127    5.738851   -1.499142
     12          6           0       -0.764993    6.142439   -0.139168
     13          6           0       -0.672101    5.238066    0.874047
     14          6           0       -0.738404    3.830273    0.639273
     15          8           0       -1.274184    4.692979   -4.117186
     16          8           0       -0.897071    1.086920   -0.079045
     17          1           0       -1.493119    2.723325   -5.536436
     18          1           0       -1.620424    0.292320   -6.037095
     19          1           0       -1.450632   -1.358674   -4.187376
     20          1           0       -1.154185   -0.566272   -1.849913
     21          1           0       -0.543933    5.599080    1.885541
     22          1           0       -0.708326    7.196743    0.095801
     23          7           0       -1.020774    6.683772   -2.464971
     24          7           0       -0.639306    2.979164    1.687596
     25          6           0       -0.949290    8.117761   -2.245309
     26          6           0       -0.468783    3.374527    3.074827
     27          1           0       -1.141228    6.317995   -3.405193
     28          1           0       -0.694850    1.994975    1.441227
     29          1           0        0.006386    8.417443   -1.803039
     30          1           0       -1.757975    8.474649   -1.599265
     31          1           0       -1.045057    8.610055   -3.211964
     32          1           0       -1.305152    3.983469    3.433068
     33          1           0        0.459500    3.933714    3.230717
     34          1           0       -0.425057    2.469501    3.678706
 ---------------------------------------------------------------------

 SCF Done:  E(UB3LYP) =  -878.360406528     A.U. after    1 cycles

 Alpha  occ. eigenvalues --  -19.11032 -19.11029 -14.34001 -14.33990 -10.26316
 Alpha  occ. eigenvalues --  -10.26315 -10.24089 -10.24088 -10.20632 -10.20630
 Alpha  occ. eigenvalues --  -10.19795 -10.19752 -10.19725 -10.19701 -10.19532
 Alpha  occ. eigenvalues --  -10.19494 -10.19090 -10.19039 -10.18855 -10.18852
 Alpha  occ. eigenvalues --   -1.04125  -1.03891  -0.95802  -0.95173  -0.88091
 Alpha  occ. eigenvalues --   -0.85620  -0.80619  -0.77003  -0.76684  -0.76610
 Alpha  occ. eigenvalues --   -0.71517  -0.69127  -0.68218  -0.65232  -0.64003
 Alpha  occ. eigenvalues --   -0.60812  -0.59070  -0.55577  -0.54935  -0.53087
 Alpha  occ. eigenvalues --   -0.52239  -0.49855  -0.48428  -0.47968  -0.47588
 Alpha  occ. eigenvalues --   -0.46209  -0.45373  -0.45266  -0.44255  -0.44220
 Alpha  occ. eigenvalues --   -0.43744  -0.43637  -0.42890  -0.40598  -0.40300
 Alpha  occ. eigenvalues --   -0.40246  -0.40122  -0.39099  -0.38105  -0.37018
 Alpha  occ. eigenvalues --   -0.36200  -0.35890  -0.33972  -0.28437  -0.27789
 Alpha  occ. eigenvalues --   -0.27295  -0.27059  -0.26364  -0.26288  -0.19475
 Alpha virt. eigenvalues --   -0.10842  -0.05810  -0.03224  -0.00872  -0.00289
 Alpha virt. eigenvalues --   -0.00052   0.00115   0.01461   0.01618   0.02333
 Alpha virt. eigenvalues --    0.02879   0.03212   0.03824   0.04107   0.04312

  Beta  occ. eigenvalues --  -19.11032 -19.11029 -14.34001 -14.33990 -10.26316
  Beta  occ. eigenvalues --  -10.26315 -10.24089 -10.24088 -10.20632 -10.20630
  Beta  occ. eigenvalues --  -10.19795 -10.19752 -10.19725 -10.19701 -10.19532
  Beta  occ. eigenvalues --  -10.19494 -10.19090 -10.19039 -10.18855 -10.18852
  Beta  occ. eigenvalues --   -1.04125  -1.03891  -0.95802  -0.95173  -0.88091
  Beta  occ. eigenvalues --   -0.85620  -0.80619  -0.77003  -0.76684  -0.76610
  Beta  occ. eigenvalues --   -0.71517  -0.69127  -0.68218  -0.65232  -0.64003
  Beta  occ. eigenvalues --   -0.60812  -0.59070  -0.55577  -0.54935  -0.53087
  Beta  occ. eigenvalues --   -0.52239  -0.49855  -0.48428  -0.47968  -0.47588
  Beta  occ. eigenvalues --   -0.46209  -0.45373  -0.45266  -0.44255  -0.44220
  Beta  occ. eigenvalues --   -0.43744  -0.43637  -0.42890  -0.40598  -0.40300
  Beta  occ. eigenvalues --   -0.40246  -0.40122  -0.39099  -0.38105  -0.37018
  Beta  occ. eigenvalues --   -0.36200  -0.35890  -0.33972  -0.28437  -0.27789
  Beta  occ. eigenvalues --   -0.27295  -0.27059  -0.26364  -0.26288  -0.19475
  Beta virt. eigenvalues --   -0.10842  -0.05810  -0.03224  -0.00872  -0.00289
  Beta virt. eigenvalues --   -0.00052   0.00115   0.01461   0.01618   0.02333
  Beta virt. eigenvalues --    0.02879   0.03212   0.03824   0.04107   0.04312

 Mulliken charges and spin densities:
               1          2
     1  C    0.060583   0.000000
     2  C   -0.486129  -0.000000
     3  C   -0.487575  -0.000000
     4  C    0.227519  -0.000000
     5  C    0.227822  -0.000000
     6  C    0.062059   0.000000
     7  C   -0.216138   0.000000
     8  C   -0.214679  -0.000000
     9  C    0.258140   0.000000
    10  C    0.259272   0.000000
    11  C   -0.262121  -0.000000
    12  C   -0.087051  -0.000000
    13  C   -0.083945   0.000000
    14  C   -0.266898  -0.000000
    15  O   -0.361209   0.000000
    16  O   -0.361101   0.000000
    17  H    0.184205   0.000000
    18  H    0.196861  -0.000000
    19  H    0.196864  -0.000000
    20  H    0.184403  -0.000000
    21  H    0.217704   0.000000
    22  H    0.217038   0.000000
    23  N   -0.276067   0.000000
    24  N   -0.275200  -0.000000
    25  C   -0.376796  -0.000000
    26  C   -0.377059  -0.000000
    27  H    0.406815  -0.000000
    28  H    0.406161  -0.000000
    29  H    0.171965  -0.000000
    30  H    0.172073  -0.000000
    31  H    0.169128   0.000000
    32  H    0.171807  -0.000000
    33  H    0.172044  -0.000000
    34  H    0.169507   0.000000
 Sum of Mulliken charges =  -0.00000  -0.00000

 Dipole moment (field-independent basis, Debye):
    X=              0.5846    Y=              4.4020    Z=              3.8780  Tot=              5.8956
 Quadrupole moment (field-independent basis, Debye-Ang):
   XX=           -122.3933   YY=            -63.7750   ZZ=           -110.3904
   XY=              0.0874   XZ=             -1.7322   YZ=             20.7424

  Exact polarizability: 155.968  18.452 474.984  37.501  79.085 451.566
 Approx polarizability: 181.570  18.871 545.523  42.755  72.656 523.000

                      1                      2                      3
                      A                      A                      A
 Frequencies --     37.5378                60.1406                75.8949
 Red. masses --      5.3217                 4.4154                 3.3103
 Frc consts  --      0.0044                 0.0094                 0.0112
 IR Inten    --     14.1442                 0.0406                 2.7089

                      4                      5                      6
                      A                      A                      A
 Frequencies --    105.3405               125.5542               138.9186
 Red. masses --      3.5898                 2.5320                 4.1443
 Frc consts  --      0.0235                 0.0235                 0.0471
 IR Inten    --      0.0165                 1.8416                 0.0042

                      7                      8                      9
                      A                      A                      A
 Frequencies --    175.6235               181.0251               181.8405
 Red. masses --      3.8777                 1.1907                 4.9285
 Frc consts  --      0.0705                 0.0230                 0.0960
 IR Inten    --      0.3421                 0.1368                 2.1217

                     10                     11                     12
                      A                      A                      A
 Frequencies --    186.9841               201.9749               262.7536
 Red. masses --      3.0506                 1.3802                 5.7525
 Frc consts  --      0.0628                 0.0332                 0.2340
 IR Inten    --      0.1550                 0.0526                 5.4703

                     13                     14                     15
                      A                      A                      A
 Frequencies --    298.1665               327.7589               328.1796
 Red. masses --      4.1290                 5.0569                 4.7428
 Frc consts  --      0.2163                 0.3201                 0.3010
 IR Inten    --      4.6053                13.6794                 9.2538

                     16                     17                     18
                      A                      A                      A
 Frequencies --    354.1800               394.0434               396.2843
 Red. masses --      4.4931                 6.2478                10.2440
 Frc consts  --      0.3321                 0.5716                 0.9478
 IR Inten    --      0.0031                 0.0210                 0.0241

                     19                     20                     21
                      A                      A                      A
 Frequencies --    429.9986               435.4813               441.1860
 Red. masses --      3.3224                 6.2492                12.6715
 Frc consts  --      0.3619                 0.6983                 1.4532
 IR Inten    --      3.6528                 0.0013                56.6745

                     22                     23                     24
                      A                      A                      A
 Frequencies --    471.0466               502.7988               517.8156
 Red. masses --     10.3988                 4.8027                 6.1633
 Frc consts  --      1.3594                 0.7154                 0.9737
 IR Inten    --     78.2778                 0.0003                 6.4142

                     25                     26                     27
                      A                      A                      A
 Frequencies --    573.9670               586.3015               637.6725
 Red. masses --      2.1335                 4.8347                 1.1607
 Frc consts  --      0.4141                 0.9792                 0.2781
 IR Inten    --     98.9758                 9.8080                 0.5250

                     28                     29                     30
                      A                      A                      A
 Frequencies --    639.6831               646.3296               671.8483
 Red. masses --      5.0724                 1.2622                 6.0177
 Frc consts  --      1.2229                 0.3107                 1.6004
 IR Inten    --      0.0882               148.8360                25.4255

                     31                     32                     33
                      A                      A                      A
 Frequencies --    675.2530               726.5530               738.7196
 Red. masses --      3.8642                 5.5902                 1.9075
 Frc consts  --      1.0381                 1.7387                 0.6133
 IR Inten    --      0.0099                 3.9496               141.4740

                     34                     35                     36
                      A                      A                      A
 Frequencies --    739.5191               758.4993               799.3066
 Red. masses --      6.1848                 5.2923                 6.0556
 Frc consts  --      1.9928                 1.7939                 2.2795
 IR Inten    --      0.0236                 6.3859                 0.0019

                     37                     38                     39
                      A                      A                      A
 Frequencies --    813.3720               837.4603               854.7764
 Red. masses --      2.2142                 1.7886                 6.4063
 Frc consts  --      0.8631                 0.7391                 2.7578
 IR Inten    --     20.2146                50.4518                 0.8305

                     40                     41                     42
                      A                      A                      A
 Frequencies --    892.2267               906.4031               944.9896
 Red. masses --      7.3948                 1.4150                 5.1274
 Frc consts  --      3.4684                 0.6849                 2.6977
 IR Inten    --     27.8904                 0.0203                10.5739

                     43                     44                     45
                      A                      A                      A
 Frequencies --    980.9889               997.9074              1017.4571
 Red. masses --      1.3075                 1.3808                 1.3189
 Frc consts  --      0.7413                 0.8102                 0.8044
 IR Inten    --      0.0057                 2.2452                 0.8237

                     46                     47                     48
                      A                      A                      A
 Frequencies --   1020.7776              1054.6255              1105.1313
 Red. masses --      5.2696                 2.0136                 2.0016
 Frc consts  --      3.2351                 1.3195                 1.4403
 IR Inten    --    359.9999                 0.0222                41.2682

                     49                     50                     51
                      A                      A                      A
 Frequencies --   1106.2174              1114.2895              1139.0870
 Red. masses --      2.2189                 2.3356                 1.2791
 Frc consts  --      1.5998                 1.7086                 0.9778
 IR Inten    --      0.4944                 9.9658                 0.0325

                     52                     53                     54
                      A                      A                      A
 Frequencies --   1139.3792              1165.9076              1171.6127
 Red. masses --      1.2795                 1.5363                 2.1835
 Frc consts  --      0.9786                 1.2304                 1.7660
 IR Inten    --      0.6278                65.0892                17.8461

                     55                     56                     57
                      A                      A                      A
 Frequencies --   1182.0456              1192.6405              1207.5843
 Red. masses --      1.5325                 2.1709                 1.4212
 Frc consts  --      1.2616                 1.8193                 1.2211
 IR Inten    --    151.2298                 0.0766               673.9282

                     58                     59                     60
                      A                      A                      A
 Frequencies --   1254.7016              1268.6472              1288.7097
 Red. masses --      1.8385                 4.9562                 1.8036
 Frc consts  --      1.7053                 4.6998                 1.7648
 IR Inten    --      0.5705              1456.0464               408.3701

                     61                     62                     63
                      A                      A                      A
 Frequencies --   1326.7236              1328.9569              1353.8766
 Red. masses --      2.5401                 2.2673                 7.9027
 Frc consts  --      2.6343                 2.3593                 8.5346
 IR Inten    --     64.4992               135.1706                 7.8523

                     64                     65                     66
                      A                      A                      A
 Frequencies --   1377.8077              1413.7382              1416.4462
 Red. masses --      6.7959                 2.4637                 4.2647
 Frc consts  --      7.6011                 2.9011                 5.0413
 IR Inten    --    209.4391                88.9532                85.6231

                     67                     68                     69
                      A                      A                      A
 Frequencies --   1461.1910              1468.2953              1482.6976
 Red. masses --      1.1906                 1.3983                 2.4972
 Frc consts  --      1.4977                 1.7761                 3.2345
 IR Inten    --    143.3533                 2.0763                22.9871

                     70                     71                     72
                      A                      A                      A
 Frequencies --   1483.1249              1483.2194              1498.9291
 Red. masses --      1.0429                 1.0405                 1.2723
 Frc consts  --      1.3516                 1.3487                 1.6842
 IR Inten    --      2.9392                24.5880                 6.9815

                     73                     74                     75
                      A                      A                      A
 Frequencies --   1500.9377              1505.5647              1535.2966
 Red. masses --      2.4615                 1.0665                 2.8589
 Frc consts  --      3.2673                 1.4244                 3.9704
 IR Inten    --      0.1754                50.2832                 0.7784

                     76                     77                     78
                      A                      A                      A
 Frequencies --   1550.8716              1582.4257              1588.3580
 Red. masses --      3.6339                 2.6840                 3.8763
 Frc consts  --      5.1496                 3.9598                 5.7619
 IR Inten    --    337.4895               493.6195               776.1694

                     79                     80                     81
                      A                      A                      A
 Frequencies --   1591.8512              1619.1133              1639.5865
 Red. masses --      2.9661                 4.7905                 6.5788
 Frc consts  --      4.4284                 7.3992                10.4199
 IR Inten    --    680.0542               356.5853                94.0289

                     82                     83                     84
                      A                      A                      A
 Frequencies --   1675.9616              3010.1317              3010.4403
 Red. masses --      6.7421                 1.0378                 1.0379
 Frc consts  --     11.1577                 5.5402                 5.5420
 IR Inten    --    143.5730                83.5959               299.8553

                     85                     86                     87
                      A                      A                      A
 Frequencies --   3057.1158              3057.1753              3129.4498
 Red. masses --      1.1045                 1.1045                 1.0977
 Frc consts  --      6.0819                 6.0822                 6.3341
 IR Inten    --     13.6058                76.7914                21.9985

                     88                     89                     90
                      A                      A                      A
 Frequencies --   3130.8339              3172.3716              3185.8595
 Red. masses --      1.0975                 1.0872                 1.0921
 Frc consts  --      6.3383                 6.4467                 6.5308
 IR Inten    --     22.3956                 4.9066                24.1444

                     91                     92                     93
                      A                      A                      A
 Frequencies --   3200.9497              3203.3855              3205.8401
 Red. masses --      1.0869                 1.0920                 1.0941
 Frc consts  --      6.5612                 6.6025                 6.6254
 IR Inten    --      3.5902                 4.9014                27.6402

                     94                     95                     96
                      A                      A                      A
 Frequencies --   3215.4648              3453.7667              3457.7071
 Red. masses --      1.0948                 1.0795                 1.0793
 Frc consts  --      6.6689                 7.5869                 7.6029
 IR Inten    --     12.4746                46.6508               107.3880

 - Thermochemistry -
 -------------------
 Temperature   298.150 Kelvin.  Pressure   1.00000 Atm.
 Atom     1 has atomic number  6 and mass  12.00000

 Molecular mass:   266.10553 amu.
 Principal axes and moments of inertia in atomic units:
                           1         2         3
     Eigenvalues --  3879.688335849.217689706.17073
           X            0.09820   0.06822   0.99282
           Y            0.74681  -0.66444  -0.02821
           Z            0.65775   0.74422  -0.11620
 This molecule is an asymmetric top.
 Rotational symmetry number  1.
 Warning -- assumption of classical behavior for rotation
           may cause significant error
 Rotational temperatures (Kelvin)      0.02232     0.01481     0.00892
 Rotational constants (GHZ):           0.46518     0.30854     0.18594
 Zero-point vibrational energy     704938.9 (Joules/Mol)
                                  168.48444 (Kcal/Mol)
 Warning -- explicit consideration of  26 degrees of freedom as
           vibrations may cause significant error
 Vibrational temperatures:     54.01    86.53   109.20   151.56   180.64
          (Kelvin)            199.87   252.68   260.45   261.63   269.03
                              290.60   378.04   429.00   471.57   472.18
                              509.59   566.94   570.16   618.67   626.56
                              634.77   677.73   723.42   745.02   825.81
                              843.56   917.47   920.36   929.92   966.64
                              971.54  1045.35  1062.85  1064.00  1091.31
                             1150.02  1170.26  1204.92  1229.83  1283.72
                             1304.11  1359.63  1411.42  1435.77  1463.89
                             1468.67  1517.37  1590.04  1591.60  1603.21
                             1638.89  1639.31  1677.48  1685.69  1700.70
                             1715.94  1737.44  1805.24  1825.30  1854.17
                             1908.86  1912.07  1947.93  1982.36  2034.05
                             2037.95  2102.33  2112.55  2133.27  2133.89
                             2134.02  2156.62  2159.51  2166.17  2208.95
                             2231.36  2276.76  2285.29  2290.32  2329.54
                             2359.00  2411.33  4330.91  4331.35  4398.51
                             4398.59  4502.58  4504.57  4564.34  4583.74
                             4605.45  4608.96  4612.49  4626.34  4969.20
                             4974.87

 Zero-point correction=                           0.268497 (Hartree/Particle)
 Thermal correction to Energy=                    0.285310
 Thermal correction to Enthalpy=                  0.286254
 Thermal correction to Gibbs Free Energy=         0.224321
 Sum of electronic and zero-point Energies=           -878.091909
 Sum of electronic and thermal Energies=              -878.075097
 Sum of electronic and thermal Enthalpies=            -878.074153
 Sum of electronic and thermal Free Energies=         -878.136085

                     E (Thermal)             CV                S
                      KCal/Mol        Cal/Mol-Kelvin    Cal/Mol-Kelvin
 Total                  179.035             66.204            130.348
 Electronic               0.000              0.000              0.000
 Translational            0.889              2.981             42.635
 Rotational               0.889              2.981             33.754
 Vibrational            177.257             60.242             53.959
 Vibration     1          0.594              1.982              5.385
 Vibration     2          0.597              1.973              4.453
 Vibration     3          0.599              1.965              3.994
 Vibration     4          0.605              1.945              3.353
 Vibration     5          0.610              1.928              3.013
 Vibration     6          0.615              1.914              2.819
 Vibration     7          0.628              1.872              2.374
 Vibration     8          0.630              1.866              2.318
 Vibration     9          0.630              1.864              2.309
 Vibration    10          0.632              1.858              2.258
 Vibration    11          0.639              1.837              2.115
 Vibration    12          0.670              1.741              1.643
 Vibration    13          0.691              1.677              1.427
 Vibration    14          0.711              1.620              1.271
 Vibration    15          0.711              1.619              1.269
 Vibration    16          0.730              1.567              1.148
 Vibration    17          0.761              1.483              0.985
 Vibration    18          0.763              1.478              0.976
 Vibration    19          0.791              1.405              0.859
 Vibration    20          0.796              1.393              0.841
 Vibration    21          0.801              1.380              0.823
 Vibration    22          0.828              1.314              0.735
 Vibration    23          0.858              1.244              0.651
 Vibration    24          0.873              1.211              0.615
 Vibration    25          0.930              1.088              0.497
 Vibration    26          0.943              1.061              0.474

                           ! Non-Optimized Parameters !
 Normal termination of Gaussian 16 at Sat Feb 10 17:41:04 2024.
