 Q-Chem 5.4, Q-Chem, Inc., Pleasanton, CA (2021)
 Q-Chem 5.4.0 for Intel X86 EM64T Linux

User input:
--------------------------------------------------------------
$molecule
-1 2
C                 -0.9279480000      2.1152020000      0.0029000000
C                 -2.0842000000      1.2702520000     -0.0669450000
C                 -2.0418280000     -0.0887470000     -0.1402570000
C                 -0.8350630000     -0.8628380000     -0.1578110000
C                  0.3709810000     -0.0286290000     -0.0668000000
C                  0.3278950000      1.3525730000      0.0076530000
O                 -0.9836740000      3.3749770000      0.0514450000
O                 -0.8123410000     -2.1215480000     -0.2451910000
C                  1.5952830000      2.1666900000      0.1015050000
C                  1.6868900000     -0.7676710000     -0.0566260000
O                 -3.3373310000     -0.5907060000     -0.2723140000
O                 -3.4088520000      1.7020220000     -0.1486680000
C                 -4.1483230000      0.5144720000      0.1058700000
H                  2.1819260000      1.9067380000      0.9920030000
H                  1.3400850000      3.2260860000      0.1489830000
H                  2.2494160000      2.0034780000     -0.7645400000
H                  1.4981550000     -1.8401110000     -0.1195660000
H                  2.2612580000     -0.5651310000      0.8564670000
H                  2.3247510000     -0.4753970000     -0.9006180000
H                 -5.0648940000      0.5177880000     -0.4861940000
H                 -4.3674050000      0.4492880000      1.1868040000
$end
$rem
MAX_SCF_CYCLES=200
BASIS  =  6-311++G(d,p)
GUI  =  2
JOB_TYPE  =  SP
METHOD  =  B3LYP
SOLVENT_METHOD = COSMO
$end
$solvent
dielectric 37.219
opticaldielectric 1.43
$end

--------------------------------------------------------------

             Standard Nuclear Orientation (Angstroms)
    I     Atom           X                Y                Z
 ----------------------------------------------------------------
    1      C       0.2061264869    -1.4918935079     0.0207697371
    2      C      -0.9761731171    -0.6808193614     0.0287628157
    3      C      -0.9761964197     0.6808150671     0.0287552138
    4      C       0.2061076920     1.4919258378     0.0208123232
    5      C       1.4381701600     0.6919824857    -0.0082134607
    6      C       1.4381712462    -0.6918956207    -0.0081493680
    7      O       0.1894112133    -2.7535782348     0.0399349217
    8      O       0.1892728776     2.7536111537     0.0400261310
    9      C       2.7309761557    -1.4700288689    -0.0402608028
   10      C       2.7310453634     1.4700173377    -0.0404401813
   11      O      -2.2882145318     1.1485765763     0.1155743143
   12      O      -2.2882121814    -1.1485967446     0.1156231420
   13      C      -3.0593783227    -0.0000761101    -0.2131398279
   14      H       3.3230917550    -1.2402648866    -0.9354252398
   15      H       2.5088068814    -2.5378758311    -0.0336469323
   16      H       3.3664522002    -1.2401325508     0.8245397294
   17      H       2.5089049310     2.5378934679    -0.0384162572
   18      H       3.3252763858     1.2365859970    -0.9332218897
   19      H       3.3644211886     1.2436155025     0.8268489951
   20      H      -3.9844275170    -0.0000431700     0.3655977301
   21      H      -3.2636803151    -0.0000440897    -1.2989229019
 ----------------------------------------------------------------

   10    -648.8743703354      3.75e-06  Convergence criterion met
 Total energy in the final basis set =     -648.8743703354
    4    -648.9655737721      8.82e-06  Convergence criterion met
 Total energy in the final basis set =     -648.9655737721

                    Orbital Energies (a.u.)
 --------------------------------------------------------------

 Alpha MOs
 -- Occupied --
-19.1627 -19.1627 -19.0854 -19.0854 -10.2787 -10.2302 -10.2302 -10.2204
-10.2198 -10.1717 -10.1711 -10.1527 -10.1527  -1.1246  -1.0320  -1.0080
 -1.0034  -0.8362  -0.7797  -0.7269  -0.6927  -0.6783  -0.6380  -0.5877
 -0.5803  -0.5218  -0.5137  -0.4987  -0.4579  -0.4516  -0.4352  -0.4250
 -0.4044  -0.4036  -0.3934  -0.3908  -0.3862  -0.3841  -0.3740  -0.3570
 -0.3548  -0.3454  -0.3384  -0.2655  -0.2561  -0.2488  -0.2116  -0.1661

 Beta MOs
 -- Occupied --
-19.1624 -19.1624 -19.0787 -19.0787 -10.2787 -10.2284 -10.2284 -10.2196
-10.2189 -10.1707 -10.1701 -10.1528 -10.1528  -1.1240  -1.0304  -0.9962
 -0.9921  -0.8306  -0.7780  -0.7228  -0.6912  -0.6710  -0.6371  -0.5843
 -0.5771  -0.5202  -0.5112  -0.4961  -0.4558  -0.4473  -0.4280  -0.4176
 -0.4014  -0.3965  -0.3885  -0.3859  -0.3834  -0.3834  -0.3630  -0.3527
 -0.3524  -0.3345  -0.3252  -0.2500  -0.2426  -0.2410  -0.2051

          Ground-State Mulliken Net Atomic Charges

     Atom                 Charge (a.u.)    Spin (a.u.)
  --------------------------------------------------------
      1 C                    -0.893230       0.104430
      2 C                     0.312034       0.051991
      3 C                     0.311949       0.052029
      4 C                    -0.893362       0.104398
      5 C                     0.648455       0.086111
      6 C                     0.648921       0.086172
      7 O                    -0.545227       0.240185
      8 O                    -0.545148       0.240203
      9 C                    -0.476184       0.003243
     10 C                    -0.475818       0.003247
     11 O                    -0.221866       0.008573
     12 O                    -0.221797       0.008559
     13 C                    -0.079808       0.001212
     14 H                     0.160679       0.003451
     15 H                     0.183475      -0.001445
     16 H                     0.161700       0.003452
     17 H                     0.183581      -0.001443
     18 H                     0.160311       0.003424
     19 H                     0.161950       0.003475
     20 H                     0.205967      -0.000259
     21 H                     0.213418      -0.001007
  --------------------------------------------------------
  Sum of atomic charges =    -1.000000

                    Cartesian Multipole Moments
 -----------------------------------------------------------------
    Charge (ESU x 10^10)
                -4.8032
    Dipole Moment (Debye)
         X       0.4121      Y      -0.0001      Z      -0.9835
       Tot       1.0663
    Quadrupole Moments (Debye-Ang)
        XX     -70.6558     XY       0.0023     YY    -125.8642
        XZ       2.0641     YZ      -0.0018     ZZ     -77.6041

 Total job time:  41.80s(wall), 295.37s(cpu)
        *  Thank you very much for using Q-Chem.  Have a nice day.  *
