 Q-Chem 5.4, Q-Chem, Inc., Pleasanton, CA (2021)
 Q-Chem 5.4.0 for Intel X86 EM64T Linux

User input:
--------------------------------------------------------------
$molecule
-2 1
C                  2.5941740000     -0.1623960000      0.7048720000
O                  1.8283780000      0.2085310000     -0.4330580000
C                  0.4388350000      0.1028000000     -0.2545430000
C                 -0.3077320000      1.2582720000     -0.4875290000
C                 -1.7392410000      1.3089630000     -0.4248200000
O                 -2.4306840000      2.3854770000     -0.6447030000
C                 -2.3288740000      0.0450960000     -0.0834320000
C                 -1.5775860000     -1.1072520000      0.1514330000
C                 -0.1492560000     -1.1742660000      0.0692830000
O                  0.5317450000     -2.2655050000      0.2543920000
H                  2.3506900000     -1.1845090000      1.0091470000
H                  3.6526920000     -0.0870560000      0.4249380000
H                  2.4092210000      0.5326090000      1.5431790000
H                  0.2267000000      2.1742350000     -0.7328550000
H                 -3.4171470000      0.0098900000     -0.0139270000
H                 -2.0819160000     -2.0448890000      0.3901820000
$end
$rem
MAX_SCF_CYCLES=200
BASIS  =  6-311++G(d,p)
GUI  =  2
JOB_TYPE  =  SP
METHOD  =  B3LYP
SOLVENT_METHOD = PCM
$end
$pcm
theory = CPCM
$end
$solvent
dielectric 37.219
opticaldielectric 1.43
$end

--------------------------------------------------------------

             Standard Nuclear Orientation (Angstroms)
    I     Atom           X                Y                Z
 ----------------------------------------------------------------
    1      C       2.5941740000    -0.1623960000     0.7048720000
    2      O       1.8283780000     0.2085310000    -0.4330580000
    3      C       0.4388350000     0.1028000000    -0.2545430000
    4      C      -0.3077320000     1.2582720000    -0.4875290000
    5      C      -1.7392410000     1.3089630000    -0.4248200000
    6      O      -2.4306840000     2.3854770000    -0.6447030000
    7      C      -2.3288740000     0.0450960000    -0.0834320000
    8      C      -1.5775860000    -1.1072520000     0.1514330000
    9      C      -0.1492560000    -1.1742660000     0.0692830000
   10      O       0.5317450000    -2.2655050000     0.2543920000
   11      H       2.3506900000    -1.1845090000     1.0091470000
   12      H       3.6526920000    -0.0870560000     0.4249380000
   13      H       2.4092210000     0.5326090000     1.5431790000
   14      H       0.2267000000     2.1742350000    -0.7328550000
   15      H      -3.4171470000     0.0098900000    -0.0139270000
   16      H      -2.0819160000    -2.0448890000     0.3901820000
 ----------------------------------------------------------------

    9    -496.3898752449      6.54e-06  Convergence criterion met
 Total energy in the final basis set =     -496.3898752449

                    Orbital Energies (a.u.)
 --------------------------------------------------------------

 Alpha MOs
 -- Occupied --
-19.1142 -19.0167 -19.0156 -10.1893 -10.1770 -10.1704 -10.1685 -10.1234
-10.1202 -10.1197  -1.0217  -0.9279  -0.9247  -0.7767  -0.7079  -0.6606
 -0.6349  -0.5599  -0.5303  -0.4606  -0.4474  -0.4338  -0.4247  -0.4024
 -0.3843  -0.3585  -0.3529  -0.3362  -0.3277  -0.3181  -0.3110  -0.2662
 -0.2251  -0.2059  -0.1977  -0.1931  -0.1189

          Ground-State Mulliken Net Atomic Charges

     Atom                 Charge (a.u.)
  ----------------------------------------
      1 C                    -0.276795
      2 O                    -0.268702
      3 C                    -0.429800
      4 C                     0.486032
      5 C                    -0.554346
      6 O                    -0.769941
      7 C                     0.024473
      8 C                    -0.148924
      9 C                    -0.169275
     10 O                    -0.764253
     11 H                     0.172671
     12 H                     0.138814
     13 H                     0.120266
     14 H                     0.159602
     15 H                     0.136561
     16 H                     0.143619
  ----------------------------------------
  Sum of atomic charges =    -2.000000

                    Cartesian Multipole Moments
 -----------------------------------------------------------------
    Charge (ESU x 10^10)
                -9.6064
    Dipole Moment (Debye)
         X       8.5434      Y      -1.4681      Z       3.3741
       Tot       9.3021
    Quadrupole Moments (Debye-Ang)
        XX     -94.1338     XY      27.4820     YY    -111.3199
        XZ      -3.5501     YZ       8.4509     ZZ     -70.2589

 Total job time:  13.16s(wall), 80.81s(cpu)
        *  Thank you very much for using Q-Chem.  Have a nice day.  *
