 Gaussian 16, Revision A.03,
 Gaussian 16:  ES64L-G16RevA.03 25-Dec-2016

 ----------------------------------------------------------------
 #P UB3LYP/6-311++G(d,p) SCRF=(PCM,Solvent=n,n-DiMethylFormamide)
 ----------------------------------------------------------------

 ------------------
 Quinone PCM in DMF
 ------------------
 Symbolic Z-matrix:
 Charge =  0 Multiplicity = 1

                         Standard orientation:
 ---------------------------------------------------------------------
 Center     Atomic      Atomic             Coordinates (Angstroms)
 Number     Number       Type             X           Y           Z
 ---------------------------------------------------------------------
      1          6           0        6.788104    0.002969   -1.071798
      2          6           0        7.410219   -1.241037   -1.111485
      3          6           0        6.773621   -2.357184   -0.565567
      4          6           0        5.526759    0.127848   -0.484552
      5          6           0        4.883850   -0.993109    0.065716
      6          6           0        5.515469   -2.234731    0.021361
      7          6           0        4.854585    1.438883   -0.433927
      8          6           0        3.507013    1.516380    0.199812
      9          6           0        2.870796    0.451133    0.746456
     10          6           0        3.527156   -0.872351    0.701356
     11          8           0        5.334998    2.474173   -0.881716
     12          8           0        2.982925   -1.860007    1.175225
     13          1           0        7.261979    0.883439   -1.488207
     14          1           0        8.388702   -1.342429   -1.566452
     15          1           0        7.259930   -3.325586   -0.597600
     16          1           0        5.007855   -3.090088    0.449604
     17          6           0        1.507000    0.557904    1.368567
     18          8           0        2.971343    2.747993    0.191095
     19          1           0        1.378136    1.563009    1.778306
     20          1           0        1.445263   -0.157091    2.192672
     21          1           0        3.629539    3.325627   -0.240186
     22          6           0        0.368597    0.266405    0.367144
     23          6           0       -1.018809    0.369487    1.008835
     24          6           0       -2.163288    0.089810    0.028260
     25          1           0        0.507170   -0.737643   -0.047638
     26          1           0        0.438791    0.969519   -0.470531
     27          1           0       -1.146078    1.371813    1.437828
     28          1           0       -1.080958   -0.333419    1.849244
     29          1           0       -2.035273   -0.912643   -0.399937
     30          1           0       -2.097462    0.790872   -0.813850
     31          6           0       -3.554252    0.193826    0.664172
     32          6           0       -4.699541   -0.084858   -0.315806
     33          6           0       -6.090979    0.018033    0.319089
     34          6           0       -7.236271   -0.259154   -0.661393
     35          6           0       -8.627857   -0.156620   -0.027217
     36          6           0       -9.773827   -0.432672   -1.007275
     37          6           0      -11.159990   -0.327765   -0.364550
     38          1           0       -3.681542    1.196080    1.093557
     39          1           0       -3.620000   -0.507404    1.506140
     40          1           0       -4.571559   -1.086817   -0.745664
     41          1           0       -4.633619    0.616633   -1.157676
     42          1           0       -6.218575    1.019636    0.749977
     43          1           0       -6.157284   -0.684200    1.160260
     44          1           0       -7.108564   -1.260676   -1.092488
     45          1           0       -7.169904    0.443271   -1.502482
     46          1           0       -8.756480    0.844683    0.404497
     47          1           0       -8.695669   -0.859516    0.813522
     48          1           0       -9.646246   -1.433248   -1.438272
     49          1           0       -9.706890    0.269847   -1.847034
     50          1           0      -11.270327   -1.043040    0.456768
     51          1           0      -11.953728   -0.530003   -1.089227
     52          1           0      -11.331471    0.672909    0.044856
 ---------------------------------------------------------------------

 SCF Done:  E(UB3LYP) =  -1043.10154121     A.U. after   16 cycles

 The electronic state is 1-A.
 Alpha  occ. eigenvalues --  -19.18060 -19.15130 -19.13080 -10.29516 -10.28229
 Alpha  occ. eigenvalues --  -10.26891 -10.21285 -10.21156 -10.20550 -10.20350
 Alpha  occ. eigenvalues --  -10.20179 -10.20011 -10.19968 -10.17801 -10.16903
 Alpha  occ. eigenvalues --  -10.16286 -10.16161 -10.16085 -10.15985 -10.15945
 Alpha  occ. eigenvalues --  -10.15932 -10.15919 -10.15905 -10.15524  -1.11058
 Alpha  occ. eigenvalues --   -1.06907  -1.06433  -0.89479  -0.84604  -0.81420
 Alpha  occ. eigenvalues --   -0.80424  -0.79040  -0.78237  -0.77257  -0.74835
 Alpha  occ. eigenvalues --   -0.72020  -0.69718  -0.67600  -0.65730  -0.64256
 Alpha  occ. eigenvalues --   -0.61840  -0.60714  -0.59281  -0.57974  -0.57601
 Alpha  occ. eigenvalues --   -0.57381  -0.57169  -0.54458  -0.52084  -0.49991
 Alpha  occ. eigenvalues --   -0.48657  -0.48119  -0.47513  -0.47280  -0.46914
 Alpha  occ. eigenvalues --   -0.45872  -0.45521  -0.44751  -0.43940  -0.43234
 Alpha  occ. eigenvalues --   -0.42839  -0.42689  -0.42367  -0.41366  -0.41056
 Alpha  occ. eigenvalues --   -0.40238  -0.40096  -0.38979  -0.38235  -0.38050
 Alpha  occ. eigenvalues --   -0.37820  -0.37300  -0.37217  -0.35669  -0.35061
 Alpha  occ. eigenvalues --   -0.34188  -0.33757  -0.33434  -0.32830  -0.32496
 Alpha  occ. eigenvalues --   -0.32294  -0.32050  -0.31967  -0.30589  -0.29989
 Alpha  occ. eigenvalues --   -0.29154  -0.28231  -0.28042  -0.25837
 Alpha virt. eigenvalues --   -0.12737  -0.05817  -0.02778  -0.00967  -0.00410
 Alpha virt. eigenvalues --    0.00117   0.00415   0.00548   0.00960   0.01276
 Alpha virt. eigenvalues --    0.01585   0.01968   0.02113   0.02249   0.02925

  Beta  occ. eigenvalues --  -19.18060 -19.15130 -19.13080 -10.29516 -10.28229
  Beta  occ. eigenvalues --  -10.26891 -10.21285 -10.21156 -10.20550 -10.20350
  Beta  occ. eigenvalues --  -10.20179 -10.20011 -10.19968 -10.17801 -10.16903
  Beta  occ. eigenvalues --  -10.16286 -10.16161 -10.16085 -10.15985 -10.15945
  Beta  occ. eigenvalues --  -10.15932 -10.15919 -10.15905 -10.15524  -1.11058
  Beta  occ. eigenvalues --   -1.06907  -1.06433  -0.89479  -0.84604  -0.81420
  Beta  occ. eigenvalues --   -0.80424  -0.79040  -0.78237  -0.77257  -0.74835
  Beta  occ. eigenvalues --   -0.72020  -0.69718  -0.67600  -0.65730  -0.64256
  Beta  occ. eigenvalues --   -0.61840  -0.60714  -0.59281  -0.57974  -0.57601
  Beta  occ. eigenvalues --   -0.57381  -0.57169  -0.54458  -0.52084  -0.49991
  Beta  occ. eigenvalues --   -0.48657  -0.48119  -0.47513  -0.47280  -0.46914
  Beta  occ. eigenvalues --   -0.45872  -0.45521  -0.44751  -0.43940  -0.43234
  Beta  occ. eigenvalues --   -0.42839  -0.42689  -0.42367  -0.41366  -0.41056
  Beta  occ. eigenvalues --   -0.40238  -0.40096  -0.38979  -0.38235  -0.38050
  Beta  occ. eigenvalues --   -0.37820  -0.37300  -0.37217  -0.35669  -0.35061
  Beta  occ. eigenvalues --   -0.34188  -0.33757  -0.33434  -0.32830  -0.32496
  Beta  occ. eigenvalues --   -0.32294  -0.32050  -0.31967  -0.30589  -0.29989
  Beta  occ. eigenvalues --   -0.29154  -0.28231  -0.28042  -0.25837
  Beta virt. eigenvalues --   -0.12737  -0.05817  -0.02778  -0.00967  -0.00410
  Beta virt. eigenvalues --    0.00117   0.00415   0.00548   0.00960   0.01276
  Beta virt. eigenvalues --    0.01585   0.01968   0.02113   0.02249   0.02925

 Mulliken charges and spin densities:
               1          2
     1  C    0.138329   0.000000
     2  C   -0.383497   0.000000
     3  C   -0.398706  -0.000000
     4  C    0.568549  -0.000000
     5  C   -0.139331  -0.000000
     6  C    0.138861   0.000000
     7  C   -0.846119  -0.000000
     8  C   -0.461267  -0.000000
     9  C    1.947931   0.000000
    10  C   -0.769206  -0.000000
    11  O   -0.313713   0.000000
    12  O   -0.277108   0.000000
    13  H    0.191042  -0.000000
    14  H    0.211482  -0.000000
    15  H    0.207754  -0.000000
    16  H    0.191281  -0.000000
    17  C   -0.385331   0.000000
    18  O   -0.222551   0.000000
    19  H    0.235722   0.000000
    20  H    0.221538   0.000000
    21  H    0.307369  -0.000000
    22  C   -0.891263  -0.000000
    23  C   -0.335519  -0.000000
    24  C   -0.032395   0.000000
    25  H    0.179574  -0.000000
    26  H    0.177319   0.000000
    27  H    0.118344  -0.000000
    28  H    0.122319  -0.000000
    29  H    0.128403  -0.000000
    30  H    0.128389  -0.000000
    31  C    0.028945   0.000000
    32  C    0.057186   0.000000
    33  C   -0.041660   0.000000
    34  C   -0.305721  -0.000000
    35  C   -0.495196  -0.000000
    36  C   -0.287195   0.000000
    37  C   -0.690628  -0.000000
    38  H    0.133238   0.000000
    39  H    0.133620   0.000000
    40  H    0.129685   0.000000
    41  H    0.129924   0.000000
    42  H    0.128816   0.000000
    43  H    0.128893  -0.000000
    44  H    0.127191  -0.000000
    45  H    0.126797  -0.000000
    46  H    0.123930   0.000000
    47  H    0.123903   0.000000
    48  H    0.131036  -0.000000
    49  H    0.130953  -0.000000
    50  H    0.139939  -0.000000
    51  H    0.148186   0.000000
    52  H    0.139961  -0.000000
 Sum of Mulliken charges =  -0.00000  -0.00000

 Dipole moment (field-independent basis, Debye):
    X=              2.5888    Y=             -0.5116    Z=             -1.4083  Tot=              2.9911
 Quadrupole moment (field-independent basis, Debye-Ang):
   XX=           -119.7027   YY=           -149.1570   ZZ=           -151.3091
   XY=            -12.5519   XZ=             -6.6906   YZ=              4.5707

 Normal termination of Gaussian 16 at Sun Jan 21 08:19:54 2024.
