 Gaussian 16, Revision A.03,
 Gaussian 16:  ES64L-G16RevA.03 25-Dec-2016

 --------------------------------------
 #P UB3LYP/6-311++G(d,p) nosym opt freq
 --------------------------------------

 --------
 Oxidized
 --------
 Symbolic Z-matrix:
 Charge =  0 Multiplicity = 1

 SCF Done:  E(UB3LYP) =  -1043.09304447     A.U. after   18 cycles
 Optimization completed.
    -- Stationary point found.
 Normal termination of Gaussian 16 at Mon Jan  8 01:38:38 2024.

 ----------------------------------------------------------------------
 #P Geom=AllCheck Guess=TCheck SCRF=Check GenChk UB3LYP/6-311++G(d,p) F
 req
 ----------------------------------------------------------------------

 Structure from the checkpoint file:  "288.chk"
 --------
 Oxidized
 --------
 Charge =  0 Multiplicity = 1

                          Input orientation:
 ---------------------------------------------------------------------
 Center     Atomic      Atomic             Coordinates (Angstroms)
 Number     Number       Type             X           Y           Z
 ---------------------------------------------------------------------
      1          6           0       -2.035444    3.010228    0.532258
      2          6           0       -2.764716    2.319909    1.495469
      3          6           0       -2.308612    1.086745    1.964875
      4          6           0       -0.847952    2.463811    0.039577
      5          6           0       -0.386598    1.223306    0.509654
      6          6           0       -1.124469    0.539464    1.474248
      7          6           0       -0.064105    3.182275   -0.981495
      8          6           0        1.198435    2.557158   -1.470171
      9          6           0        1.658958    1.356877   -1.039373
     10          6           0        0.888877    0.623736   -0.012762
     11          8           0       -0.385474    4.265856   -1.456585
     12          8           0        1.274729   -0.457726    0.408855
     13          1           0       -2.368990    3.968125    0.152310
     14          1           0       -3.686412    2.740395    1.880660
     15          1           0       -2.878176    0.550515    2.715461
     16          1           0       -0.756603   -0.415915    1.827273
     17          6           0        2.941739    0.757050   -1.542407
     18          8           0        1.846938    3.288444   -2.391340
     19          1           0        3.116124    1.093048   -2.567797
     20          1           0        2.834808   -0.330437   -1.553153
     21          1           0        1.304005    4.087203   -2.533092
     22          6           0        4.159278    1.131314   -0.669878
     23          6           0        5.462672    0.510959   -1.183308
     24          6           0        6.684836    0.876621   -0.333493
     25          1           0        3.976008    0.801231    0.358138
     26          1           0        4.258348    2.222349   -0.641175
     27          1           0        5.632894    0.831143   -2.219356
     28          1           0        5.355343   -0.580724   -1.213913
     29          1           0        6.513769    0.555879    0.702129
     30          1           0        6.788560    1.968918   -0.300350
     31          6           0        7.992533    0.260603   -0.843823
     32          6           0        9.215520    0.626351    0.004846
     33          6           0       10.523699    0.010275   -0.503972
     34          6           0       11.746894    0.377375    0.343910
     35          6           0       13.055272   -0.238425   -0.164165
     36          6           0       14.279195    0.129001    0.682580
     37          6           0       15.581412   -0.490731    0.167107
     38          1           0        8.162721    0.580448   -1.880077
     39          1           0        7.888732   -0.831687   -0.876745
     40          1           0        9.044733    0.307156    1.041198
     41          1           0        9.319162    1.718766    0.037509
     42          1           0       10.693947    0.328535   -1.540736
     43          1           0       10.420449   -1.082169   -0.535619
     44          1           0       11.576570    0.059339    1.380751
     45          1           0       11.850092    1.469894    0.375359
     46          1           0       13.226406    0.078869   -1.201261
     47          1           0       12.953500   -1.331216   -0.195042
     48          1           0       14.109074   -0.188507    1.718647
     49          1           0       14.381678    1.220686    0.713082
     50          1           0       15.522810   -1.583818    0.158026
     51          1           0       16.433610   -0.209566    0.792232
     52          1           0       15.797521   -0.163948   -0.855085
 ---------------------------------------------------------------------

 SCF Done:  E(UB3LYP) =  -1043.09304447     A.U. after    2 cycles

 Alpha  occ. eigenvalues --  -19.17883 -19.14990 -19.12592 -10.29381 -10.27800
 Alpha  occ. eigenvalues --  -10.26738 -10.21562 -10.21382 -10.20786 -10.20769
 Alpha  occ. eigenvalues --  -10.20643 -10.20482 -10.20300 -10.17614 -10.16779
 Alpha  occ. eigenvalues --  -10.16299 -10.16265 -10.16159 -10.16088 -10.16066
 Alpha  occ. eigenvalues --  -10.16056 -10.16042 -10.16031 -10.15595  -1.10930
 Alpha  occ. eigenvalues --   -1.06748  -1.05870  -0.89779  -0.84620  -0.81506
 Alpha  occ. eigenvalues --   -0.80526  -0.79205  -0.78559  -0.77375  -0.74900
 Alpha  occ. eigenvalues --   -0.72064  -0.69762  -0.67698  -0.65902  -0.64371
 Alpha  occ. eigenvalues --   -0.61949  -0.60866  -0.59284  -0.58016  -0.57744
 Alpha  occ. eigenvalues --   -0.57451  -0.57261  -0.54397  -0.52176  -0.50128
 Alpha  occ. eigenvalues --   -0.48784  -0.48440  -0.47558  -0.47291  -0.46698
 Alpha  occ. eigenvalues --   -0.45942  -0.45673  -0.44543  -0.43915  -0.43204
 Alpha  occ. eigenvalues --   -0.42794  -0.42668  -0.42264  -0.41396  -0.41072
 Alpha  occ. eigenvalues --   -0.40306  -0.40089  -0.39197  -0.38371  -0.38106
 Alpha  occ. eigenvalues --   -0.37862  -0.37519  -0.37300  -0.35676  -0.35068
 Alpha  occ. eigenvalues --   -0.34210  -0.33776  -0.33436  -0.32890  -0.32539
 Alpha  occ. eigenvalues --   -0.32384  -0.32159  -0.32102  -0.30453  -0.29977
 Alpha  occ. eigenvalues --   -0.29369  -0.28513  -0.27546  -0.25809
 Alpha virt. eigenvalues --   -0.12637  -0.06053  -0.03075  -0.01286  -0.00653
 Alpha virt. eigenvalues --   -0.00359   0.00324   0.00487   0.00822   0.01026
 Alpha virt. eigenvalues --    0.01537   0.01743   0.01852   0.02267   0.02703

  Beta  occ. eigenvalues --  -19.17883 -19.14990 -19.12592 -10.29381 -10.27800
  Beta  occ. eigenvalues --  -10.26738 -10.21562 -10.21382 -10.20786 -10.20769
  Beta  occ. eigenvalues --  -10.20643 -10.20482 -10.20300 -10.17614 -10.16779
  Beta  occ. eigenvalues --  -10.16299 -10.16265 -10.16159 -10.16088 -10.16066
  Beta  occ. eigenvalues --  -10.16056 -10.16042 -10.16031 -10.15595  -1.10930
  Beta  occ. eigenvalues --   -1.06748  -1.05870  -0.89779  -0.84620  -0.81506
  Beta  occ. eigenvalues --   -0.80526  -0.79205  -0.78559  -0.77375  -0.74900
  Beta  occ. eigenvalues --   -0.72064  -0.69762  -0.67698  -0.65902  -0.64371
  Beta  occ. eigenvalues --   -0.61949  -0.60866  -0.59284  -0.58016  -0.57744
  Beta  occ. eigenvalues --   -0.57451  -0.57261  -0.54397  -0.52176  -0.50128
  Beta  occ. eigenvalues --   -0.48784  -0.48440  -0.47558  -0.47291  -0.46698
  Beta  occ. eigenvalues --   -0.45942  -0.45673  -0.44543  -0.43915  -0.43204
  Beta  occ. eigenvalues --   -0.42794  -0.42668  -0.42264  -0.41396  -0.41072
  Beta  occ. eigenvalues --   -0.40306  -0.40089  -0.39197  -0.38371  -0.38106
  Beta  occ. eigenvalues --   -0.37862  -0.37519  -0.37300  -0.35676  -0.35068
  Beta  occ. eigenvalues --   -0.34210  -0.33776  -0.33436  -0.32890  -0.32539
  Beta  occ. eigenvalues --   -0.32384  -0.32159  -0.32102  -0.30453  -0.29977
  Beta  occ. eigenvalues --   -0.29369  -0.28513  -0.27546  -0.25809
  Beta virt. eigenvalues --   -0.12637  -0.06053  -0.03075  -0.01286  -0.00653
  Beta virt. eigenvalues --   -0.00359   0.00324   0.00487   0.00822   0.01026
  Beta virt. eigenvalues --    0.01537   0.01743   0.01852   0.02267   0.02703

 Mulliken charges and spin densities:
               1          2
     1  C    0.120345   0.000000
     2  C   -0.334174   0.000000
     3  C   -0.336907   0.000000
     4  C    0.555004   0.000000
     5  C   -0.085976  -0.000000
     6  C    0.105497   0.000000
     7  C   -0.907173  -0.000000
     8  C   -0.497109   0.000000
     9  C    1.963818  -0.000000
    10  C   -0.852360  -0.000000
    11  O   -0.278530   0.000000
    12  O   -0.210589   0.000000
    13  H    0.186300  -0.000000
    14  H    0.180077  -0.000000
    15  H    0.177784  -0.000000
    16  H    0.191473  -0.000000
    17  C   -0.357770   0.000000
    18  O   -0.197134  -0.000000
    19  H    0.235083  -0.000000
    20  H    0.228876  -0.000000
    21  H    0.287911   0.000000
    22  C   -0.871707  -0.000000
    23  C   -0.329476   0.000000
    24  C   -0.027464   0.000000
    25  H    0.181665  -0.000000
    26  H    0.172595   0.000000
    27  H    0.110715   0.000000
    28  H    0.118728   0.000000
    29  H    0.123974   0.000000
    30  H    0.122265   0.000000
    31  C    0.021518  -0.000000
    32  C    0.051020  -0.000000
    33  C   -0.043485  -0.000000
    34  C   -0.295453  -0.000000
    35  C   -0.482354   0.000000
    36  C   -0.271855   0.000000
    37  C   -0.663523  -0.000000
    38  H    0.127809   0.000000
    39  H    0.129250   0.000000
    40  H    0.125350   0.000000
    41  H    0.124958   0.000000
    42  H    0.124172  -0.000000
    43  H    0.124594  -0.000000
    44  H    0.122465   0.000000
    45  H    0.121858   0.000000
    46  H    0.119042   0.000000
    47  H    0.119171  -0.000000
    48  H    0.127528   0.000000
    49  H    0.127317   0.000000
    50  H    0.135204   0.000000
    51  H    0.144549  -0.000000
    52  H    0.135125   0.000000
 Sum of Mulliken charges =  -0.00000  -0.00000

 Dipole moment (field-independent basis, Debye):
    X=             -1.7656    Y=              0.6602    Z=              1.0978  Tot=              2.1814
 Quadrupole moment (field-independent basis, Debye-Ang):
   XX=           -143.3419   YY=           -152.5498   ZZ=           -146.7633
   XY=              0.0610   XZ=             -5.8678   YZ=              2.2369

  Exact polarizability: 340.972 -37.828 247.263 -35.343 -28.615 223.398
 Approx polarizability: 391.622 -55.371 459.670 -44.972 -79.536 361.148

                      1                      2                      3
                      A                      A                      A
 Frequencies --     11.1690                17.9075                22.1651
 Red. masses --      5.2959                 4.5579                 1.8938
 Frc consts  --      0.0004                 0.0009                 0.0005
 IR Inten    --      0.0704                 0.2669                 0.0268

                      4                      5                      6
                      A                      A                      A
 Frequencies --     29.2472                41.2166                58.3315
 Red. masses --      3.0974                 5.0914                 2.5281
 Frc consts  --      0.0016                 0.0051                 0.0051
 IR Inten    --      0.1107                 1.1690                 0.1014

                      7                      8                      9
                      A                      A                      A
 Frequencies --     70.3253                73.1786                95.6818
 Red. masses --      6.6652                 1.8470                 5.0601
 Frc consts  --      0.0194                 0.0058                 0.0273
 IR Inten    --      2.9248                 0.0947                 0.0679

                     10                     11                     12
                      A                      A                      A
 Frequencies --    100.9645               110.8777               119.6373
 Red. masses --      2.1954                 4.7179                 1.9638
 Frc consts  --      0.0132                 0.0342                 0.0166
 IR Inten    --      0.0923                 0.0299                 0.0295

                     13                     14                     15
                      A                      A                      A
 Frequencies --    126.0200               139.5705               159.2304
 Red. masses --      5.7381                 1.9749                 2.0358
 Frc consts  --      0.0537                 0.0227                 0.0304
 IR Inten    --      0.0036                 0.0092                 0.0202

                     16                     17                     18
                      A                      A                      A
 Frequencies --    161.2304               167.3764               176.9651
 Red. masses --      4.8206                 1.9853                 5.0063
 Frc consts  --      0.0738                 0.0328                 0.0924
 IR Inten    --      0.5430                 0.0075                 0.1957

                     19                     20                     21
                      A                      A                      A
 Frequencies --    228.8647               243.9627               251.4658
 Red. masses --      4.2316                 1.1198                 4.3231
 Frc consts  --      0.1306                 0.0393                 0.1611
 IR Inten    --      0.0461                 0.0000                 0.1850

                     22                     23                     24
                      A                      A                      A
 Frequencies --    276.4784               302.4766               318.4041
 Red. masses --      3.7300                 2.9462                 4.5758
 Frc consts  --      0.1680                 0.1588                 0.2733
 IR Inten    --      0.1005                 2.2919                 0.1402

                     25                     26                     27
                      A                      A                      A
 Frequencies --    353.0229               382.4555               388.2615
 Red. masses --      5.5088                 3.7147                 7.8676
 Frc consts  --      0.4045                 0.3201                 0.6988
 IR Inten    --      8.4282                 0.3712                16.3198

                     28                     29                     30
                      A                      A                      A
 Frequencies --    402.4472               419.7933               433.2222
 Red. masses --      4.0803                 9.7486                 3.8227
 Frc consts  --      0.3894                 1.0122                 0.4227
 IR Inten    --      8.5647                 7.4660                 4.0257

                     31                     32                     33
                      A                      A                      A
 Frequencies --    445.7379               469.0688               488.7754
 Red. masses --      4.8650                 4.7278                 3.7493
 Frc consts  --      0.5695                 0.6129                 0.5277
 IR Inten    --      2.8379                 4.5483                 0.8241

                     34                     35                     36
                      A                      A                      A
 Frequencies --    501.9988               528.6651               589.6674
 Red. masses --      3.4639                 6.0911                 5.8414
 Frc consts  --      0.5143                 1.0030                 1.1967
 IR Inten    --      0.3412                 3.5242                 7.0734

                     37                     38                     39
                      A                      A                      A
 Frequencies --    646.9331               654.7115               677.8941
 Red. masses --      1.1508                 5.7492                 5.9993
 Frc consts  --      0.2838                 1.4520                 1.6243
 IR Inten    --     68.9440                 7.9510                 2.5849

                     40                     41                     42
                      A                      A                      A
 Frequencies --    707.6176               713.7867               730.9178
 Red. masses --      3.3205                 4.6618                 1.0582
 Frc consts  --      0.9796                 1.3994                 0.3331
 IR Inten    --      2.4708                 3.8525                 5.3270

                     43                     44                     45
                      A                      A                      A
 Frequencies --    731.9888               736.2081               736.8350
 Red. masses --      1.0739                 2.2646                 1.1795
 Frc consts  --      0.3390                 0.7232                 0.3773
 IR Inten    --      0.8131                72.4741                 7.6771

                     46                     47                     48
                      A                      A                      A
 Frequencies --    749.8687               765.8967               775.7401
 Red. masses --      1.2015                 6.6434                 1.2553
 Frc consts  --      0.3980                 2.2960                 0.4451
 IR Inten    --      0.1184                 2.1547                 0.4941

                     49                     50                     51
                      A                      A                      A
 Frequencies --    805.7328               814.4665               854.9744
 Red. masses --      1.8839                 1.3869                 1.7555
 Frc consts  --      0.7206                 0.5420                 0.7561
 IR Inten    --     11.9634                 1.5639                 5.4285

                     52                     53                     54
                      A                      A                      A
 Frequencies --    893.3215               895.9630               913.0628
 Red. masses --      1.6244                 1.9833                 1.3268
 Frc consts  --      0.7638                 0.9381                 0.6517
 IR Inten    --      8.0952                 1.5079                 0.0103

                     55                     56                     57
                      A                      A                      A
 Frequencies --    942.9356               949.8499               980.3604
 Red. masses --      1.4219                 5.1182                 5.0249
 Frc consts  --      0.7449                 2.7207                 2.8454
 IR Inten    --      0.6152                28.8470                 5.4508

                     58                     59                     60
                      A                      A                      A
 Frequencies --    991.1379               997.4845               997.8529
 Red. masses --      3.6904                 1.4593                 1.3998
 Frc consts  --      2.1360                 0.8555                 0.8212
 IR Inten    --     12.6520                 1.3787                 1.3113

                     61                     62                     63
                      A                      A                      A
 Frequencies --   1016.2959              1021.5168              1022.2720
 Red. masses --      1.3272                 3.4446                 3.6545
 Frc consts  --      0.8076                 2.1178                 2.2502
 IR Inten    --      0.1281                19.2321                 1.1155

                     64                     65                     66
                      A                      A                      A
 Frequencies --   1034.8096              1048.4257              1051.6191
 Red. masses --      2.3510                 2.5035                 1.7269
 Frc consts  --      1.4833                 1.6214                 1.1252
 IR Inten    --     15.9149                 1.0676                 3.1551

                     67                     68                     69
                      A                      A                      A
 Frequencies --   1060.2276              1061.4573              1065.4731
 Red. masses --      1.5077                 2.4847                 2.2080
 Frc consts  --      0.9985                 1.6494                 1.4768
 IR Inten    --      9.5687                 0.4585                 0.0085

                     70                     71                     72
                      A                      A                      A
 Frequencies --   1066.6429              1086.7562              1110.5574
 Red. masses --      2.3272                 3.0122                 2.1851
 Frc consts  --      1.5600                 2.0960                 1.5878
 IR Inten    --      0.0695                 2.7980                 2.0674

                     73                     74                     75
                      A                      A                      A
 Frequencies --   1135.9734              1139.6617              1182.3431
 Red. masses --      1.7103                 2.7881                 1.1767
 Frc consts  --      1.3003                 2.1336                 0.9692
 IR Inten    --     24.1247                 7.7847                21.9227

                     76                     77                     78
                      A                      A                      A
 Frequencies --   1195.6124              1207.8872              1226.3778
 Red. masses --      2.2609                 1.8375                 1.2696
 Frc consts  --      1.9042                 1.5796                 1.1250
 IR Inten    --     30.0907                 8.3738                 0.9507

                     79                     80                     81
                      A                      A                      A
 Frequencies --   1227.5693              1239.6889              1260.4049
 Red. masses --      2.1123                 1.7212                 1.2913
 Frc consts  --      1.8755                 1.5585                 1.2087
 IR Inten    --     21.2606                54.9006                 0.0774

                     82                     83                     84
                      A                      A                      A
 Frequencies --   1268.9240              1285.4461              1294.8610
 Red. masses --      1.4133                 1.6800                 1.3582
 Frc consts  --      1.3408                 1.6356                 1.3417
 IR Inten    --     53.4881                33.4497                38.8202

                     85                     86                     87
                      A                      A                      A
 Frequencies --   1297.9545              1308.7537              1314.7756
 Red. masses --      1.5413                 1.8940                 1.6078
 Frc consts  --      1.5299                 1.9113                 1.6375
 IR Inten    --     53.9915                85.5423                89.7853

                     88                     89                     90
                      A                      A                      A
 Frequencies --   1324.1973              1326.9787              1328.5965
 Red. masses --      1.0397                 1.3425                 1.4623
 Frc consts  --      1.0742                 1.3928                 1.5208
 IR Inten    --      3.6471                 9.6764                35.2226

                     91                     92                     93
                      A                      A                      A
 Frequencies --   1331.8456              1338.3954              1339.6825
 Red. masses --      1.0437                 1.2421                 1.0892
 Frc consts  --      1.0908                 1.3109                 1.1517
 IR Inten    --      0.1658                14.6622                 1.0243

                     94                     95                     96
                      A                      A                      A
 Frequencies --   1344.8548              1354.0291              1366.8489
 Red. masses --      1.4015                 1.3839                 6.2939
 Frc consts  --      1.4935                 1.4949                 6.9280
 IR Inten    --     20.7355                 0.6779                68.8542

                     97                     98                     99
                      A                      A                      A
 Frequencies --   1374.1840              1389.1755              1397.3410
 Red. masses --      1.4105                 1.4755                 1.6229
 Frc consts  --      1.5693                 1.6777                 1.8670
 IR Inten    --      3.1804                 4.0618                 9.0453

                    100                    101                    102
                      A                      A                      A
 Frequencies --   1400.3173              1401.6594              1401.9456
 Red. masses --      1.7322                 1.6871                 1.7555
 Frc consts  --      2.0012                 1.9529                 2.0328
 IR Inten    --    125.8149                81.0644               124.1339

                    103                    104                    105
                      A                      A                      A
 Frequencies --   1412.8873              1479.3146              1483.4177
 Red. masses --      1.2516                 1.1902                 1.0793
 Frc consts  --      1.4721                 1.5346                 1.3994
 IR Inten    --      2.2190                 5.2981                 0.0356

                    106                    107                    108
                      A                      A                      A
 Frequencies --   1483.9431              1485.8236              1486.4969
 Red. masses --      1.1171                 1.5989                 1.1642
 Frc consts  --      1.4493                 2.0797                 1.5157
 IR Inten    --      0.2347                 6.5374                 2.4295

                    109                    110                    111
                      A                      A                      A
 Frequencies --   1488.0678              1489.7158              1494.7379
 Red. masses --      1.1332                 1.0761                 1.0821
 Frc consts  --      1.4784                 1.4070                 1.4244
 IR Inten    --      3.1822                 0.4100                 1.1907

                    112                    113                    114
                      A                      A                      A
 Frequencies --   1499.5714              1500.6925              1506.5202
 Red. masses --      1.0398                 1.0874                 1.8428
 Frc consts  --      1.3776                 1.4428                 2.4642
 IR Inten    --      7.9109                 0.5526                 3.3045

                    115                    116                    117
                      A                      A                      A
 Frequencies --   1506.8158              1511.8679              1515.3725
 Red. masses --      1.3335                 1.0963                 1.0986
 Frc consts  --      1.7838                 1.4764                 1.4864
 IR Inten    --      3.3575                 0.2056                16.2978

                    118                    119                    120
                      A                      A                      A
 Frequencies --   1613.4642              1627.8762              1690.5067
 Red. masses --      6.6613                 5.9414                 7.9836
 Frc consts  --     10.2171                 9.2765                13.4426
 IR Inten    --      2.0435                78.8436                47.7563

                    121                    122                    123
                      A                      A                      A
 Frequencies --   1702.0961              1704.5374              2989.0916
 Red. masses --     11.2085                11.2475                 1.0573
 Frc consts  --     19.1323                19.2539                 5.5657
 IR Inten    --     59.0435               404.0955                 0.5278

                    124                    125                    126
                      A                      A                      A
 Frequencies --   2989.8317              2991.7643              2993.0672
 Red. masses --      1.0574                 1.0577                 1.0579
 Frc consts  --      5.5693                 5.5778                 5.5837
 IR Inten    --      0.0597                 0.1940                 0.3175

                    127                    128                    129
                      A                      A                      A
 Frequencies --   2995.1855              2999.8472              3005.0117
 Red. masses --      1.0585                 1.0594                 1.0626
 Frc consts  --      5.5951                 5.6169                 5.6533
 IR Inten    --      3.2256                 0.4428                12.4574

                    130                    131                    132
                      A                      A                      A
 Frequencies --   3005.5589              3007.4183              3008.5075
 Red. masses --      1.0965                 1.0968                 1.0608
 Frc consts  --      5.8360                 5.8446                 5.6570
 IR Inten    --      0.0190                 5.2276               194.4602

                    133                    134                    135
                      A                      A                      A
 Frequencies --   3011.3493              3016.5220              3017.0659
 Red. masses --      1.1000                 1.0357                 1.0897
 Frc consts  --      5.8772                 5.5524                 5.8443
 IR Inten    --      0.1864                51.9619                14.0701

                    136                    137                    138
                      A                      A                      A
 Frequencies --   3019.2995              3026.4049              3035.6430
 Red. masses --      1.0728                 1.1031                 1.1050
 Frc consts  --      5.7623                 5.9528                 5.9997
 IR Inten    --     30.8312                 0.9917                 4.3602

                    139                    140                    141
                      A                      A                      A
 Frequencies --   3044.3103              3047.2118              3052.0078
 Red. masses --      1.1037                 1.0612                 1.1046
 Frc consts  --      6.0265                 5.8057                 6.0620
 IR Inten    --      1.3745                30.3354               133.3880

                    142                    143                    144
                      A                      A                      A
 Frequencies --   3059.7689              3076.8917              3081.1603
 Red. masses --      1.1041                 1.1024                 1.1009
 Frc consts  --      6.0903                 6.1494                 6.1579
 IR Inten    --     88.4647                74.6761                46.6958

                    145                    146                    147
                      A                      A                      A
 Frequencies --   3094.3507              3171.6582              3185.7270
 Red. masses --      1.1056                 1.0870                 1.0915
 Frc consts  --      6.2370                 6.4428                 6.5266
 IR Inten    --     14.1890                 3.1426                 8.3772

                    148                    149                    150
                      A                      A                      A
 Frequencies --   3199.4855              3202.8705              3617.6724
 Red. masses --      1.0933                 1.0948                 1.0642
 Frc consts  --      6.5939                 6.6169                 8.2062
 IR Inten    --      1.6291                 8.6234               154.9842

 - Thermochemistry -
 -------------------
 Temperature   298.150 Kelvin.  Pressure   1.00000 Atm.
 Atom     1 has atomic number  6 and mass  12.00000

 Molecular mass:   328.20384 amu.
 Principal axes and moments of inertia in atomic units:
                           1         2         3
     Eigenvalues --  2671.00240********************
           X            0.98787  -0.09853   0.12003
           Y           -0.15506  -0.66767   0.72813
           Z           -0.00840   0.73791   0.67485
 This molecule is an asymmetric top.
 Rotational symmetry number  1.
 Warning -- assumption of classical behavior for rotation
           may cause significant error
 Rotational temperatures (Kelvin)      0.03243     0.00226     0.00219
 Rotational constants (GHZ):           0.67568     0.04719     0.04560
 Zero-point vibrational energy    1176241.1 (Joules/Mol)
                                  281.12837 (Kcal/Mol)
 Warning -- explicit consideration of  36 degrees of freedom as
           vibrations may cause significant error
 Vibrational temperatures:     16.07    25.76    31.89    42.08    59.30
          (Kelvin)             83.93   101.18   105.29   137.66   145.27
                              159.53   172.13   181.31   200.81   229.10
                              231.97   240.82   254.61   329.29   351.01
                              361.80   397.79   435.20   458.11   507.92
                              550.27   558.62   579.03   603.99   623.31
                              641.32   674.89   703.24   722.26   760.63
                              848.40   930.79   941.98   975.34  1018.10
                             1026.98  1051.63  1053.17  1059.24  1060.14
                             1078.89  1101.95  1116.12  1159.27  1171.84
                             1230.12  1285.29  1289.09  1313.69  1356.67
                             1366.62  1410.52  1426.03  1435.16  1435.69
                             1462.22  1469.73  1470.82  1488.86  1508.45
                             1513.05  1525.43  1527.20  1532.98  1534.66
                             1563.60  1597.84  1634.41  1639.72  1701.13
                             1720.22  1737.88  1764.48  1766.20  1783.64
                             1813.44  1825.70  1849.47  1863.02  1867.47
                             1883.00  1891.67  1905.22  1909.23  1911.55
                             1916.23  1925.65  1927.50  1934.95  1948.15
                             1966.59  1977.14  1998.71  2010.46  2014.74
                             2016.68  2017.09  2032.83  2128.40  2134.31
                             2135.06  2137.77  2138.74  2141.00  2143.37
                             2150.59  2157.55  2159.16  2167.55  2167.97
                             2175.24  2180.28  2321.42  2342.15  2432.26
                             2448.94  2452.45  4300.64  4301.70  4304.48
                             4306.36  4309.40  4316.11  4323.54  4324.33
                             4327.00  4328.57  4332.66  4340.10  4340.88
                             4344.10  4354.32  4367.61  4380.08  4384.26
                             4391.16  4402.32  4426.96  4433.10  4452.08
                             4563.31  4583.55  4603.35  4608.22  5205.02

 Zero-point correction=                           0.448007 (Hartree/Particle)
 Thermal correction to Energy=                    0.473064
 Thermal correction to Enthalpy=                  0.474008
 Thermal correction to Gibbs Free Energy=         0.388304
 Sum of electronic and zero-point Energies=          -1042.645038
 Sum of electronic and thermal Energies=             -1042.619980
 Sum of electronic and thermal Enthalpies=           -1042.619036
 Sum of electronic and thermal Free Energies=        -1042.704741

                     E (Thermal)             CV                S
                      KCal/Mol        Cal/Mol-Kelvin    Cal/Mol-Kelvin
 Total                  296.852             92.729            180.381
 Electronic               0.000              0.000              0.000
 Translational            0.889              2.981             43.261
 Rotational               0.889              2.981             36.645
 Vibrational            295.075             86.768            100.475
 Vibration     1          0.593              1.987              7.791
 Vibration     2          0.593              1.986              6.854
 Vibration     3          0.593              1.985              6.430
 Vibration     4          0.593              1.984              5.880
 Vibration     5          0.594              1.981              5.200
 Vibration     6          0.596              1.974              4.513
 Vibration     7          0.598              1.968              4.144
 Vibration     8          0.599              1.967              4.066
 Vibration     9          0.603              1.952              3.540
 Vibration    10          0.604              1.948              3.436
 Vibration    11          0.607              1.940              3.253
 Vibration    12          0.609              1.933              3.106
 Vibration    13          0.611              1.927              3.006
 Vibration    14          0.615              1.914              2.810
 Vibration    15          0.621              1.892              2.559
 Vibration    16          0.622              1.890              2.535
 Vibration    17          0.624              1.883              2.465
 Vibration    18          0.628              1.871              2.360
 Vibration    19          0.652              1.797              1.888
 Vibration    20          0.659              1.773              1.774
 Vibration    21          0.663              1.760              1.720
 Vibration    22          0.678              1.717              1.555
 Vibration    23          0.694              1.669              1.403
 Vibration    24          0.705              1.638              1.318
 Vibration    25          0.729              1.569              1.153
 Vibration    26          0.752              1.508              1.029
 Vibration    27          0.756              1.495              1.007
 Vibration    28          0.768              1.465              0.954
 Vibration    29          0.782              1.427              0.893
 Vibration    30          0.794              1.398              0.848
 Vibration    31          0.805              1.370              0.809
 Vibration    32          0.826              1.319              0.740
 Vibration    33          0.845              1.275              0.687
 Vibration    34          0.857              1.246              0.653
 Vibration    35          0.884              1.187              0.590
 Vibration    36          0.947              1.054              0.468

 Optimization completed.
    -- Stationary point found.
 Normal termination of Gaussian 16 at Mon Jan  8 05:49:59 2024.
