 Q-Chem 5.4, Q-Chem, Inc., Pleasanton, CA (2021)
 Q-Chem 5.4.0 for Intel X86 EM64T Linux

User input:
--------------------------------------------------------------
$molecule
-2 1
C                  2.1361720000      3.0141000000      1.2358810000
C                  2.0600120000      1.5442680000      1.5794370000
O                  1.7023270000      1.1087660000      2.6494460000
O                  2.7683680000      0.8137350000      0.6588930000
C                  2.4598590000     -0.5471290000      0.5135410000
C                  3.5054000000     -1.4176320000      0.7001430000
C                  3.3161040000     -2.8071700000      0.4758670000
C                  2.0805600000     -3.2572730000      0.0746010000
C                  0.9872080000     -2.3785010000     -0.1330560000
C                 -0.2593260000     -2.9490200000     -0.5912240000
O                 -0.4128220000     -4.2089400000     -0.7781130000
C                 -1.3111430000     -1.9916580000     -0.8507500000
C                 -2.5367550000     -2.4872070000     -1.3612630000
C                 -3.5901640000     -1.6628980000     -1.6791830000
C                 -3.4461230000     -0.2626330000     -1.4897280000
C                 -2.2730680000      0.2404710000     -0.9867730000
O                 -2.1881230000      1.6496230000     -0.9452060000
C                 -2.1982640000      2.2824430000      0.2511800000
C                 -1.6256770000      3.6705840000      0.0937940000
O                 -2.6927810000      1.8461270000      1.2620930000
C                 -1.1406980000     -0.5593920000     -0.6312950000
C                  0.0878670000     -0.0048180000     -0.1224850000
O                  0.2330140000      1.2695940000      0.1278270000
C                  1.1542380000     -0.9508350000      0.0896470000
H                  1.9304030000      3.1563000000      0.1768930000
H                  1.4109170000      3.5564030000      1.8415400000
H                  3.1446530000      3.3822040000      1.4667970000
H                  4.4626970000     -1.0160510000      1.0174930000
H                  4.1421160000     -3.4986100000      0.6265900000
H                  1.8859800000     -4.3083340000     -0.1104210000
H                 -2.5909750000     -3.5624560000     -1.4952940000
H                 -4.5207260000     -2.0660660000     -2.0716590000
H                 -4.2437070000      0.4306520000     -1.7378360000
H                 -1.7533650000      4.2309580000      1.0201930000
H                 -0.5678980000      3.5497130000     -0.1422040000
H                 -2.1162800000      4.1906800000     -0.7353670000
$end
$rem
MAX_SCF_CYCLES=200
BASIS  =  6-311++G(d,p)
GUI  =  2
JOB_TYPE  =  SP
METHOD  =  B3LYP
SOLVENT_METHOD = PCM
$end
$pcm
theory = CPCM
$end
$solvent
dielectric 37.219
opticaldielectric 1.43
$end

--------------------------------------------------------------

             Standard Nuclear Orientation (Angstroms)
    I     Atom           X                Y                Z
 ----------------------------------------------------------------
    1      C       2.1361720000     3.0141000000     1.2358810000
    2      C       2.0600120000     1.5442680000     1.5794370000
    3      O       1.7023270000     1.1087660000     2.6494460000
    4      O       2.7683680000     0.8137350000     0.6588930000
    5      C       2.4598590000    -0.5471290000     0.5135410000
    6      C       3.5054000000    -1.4176320000     0.7001430000
    7      C       3.3161040000    -2.8071700000     0.4758670000
    8      C       2.0805600000    -3.2572730000     0.0746010000
    9      C       0.9872080000    -2.3785010000    -0.1330560000
   10      C      -0.2593260000    -2.9490200000    -0.5912240000
   11      O      -0.4128220000    -4.2089400000    -0.7781130000
   12      C      -1.3111430000    -1.9916580000    -0.8507500000
   13      C      -2.5367550000    -2.4872070000    -1.3612630000
   14      C      -3.5901640000    -1.6628980000    -1.6791830000
   15      C      -3.4461230000    -0.2626330000    -1.4897280000
   16      C      -2.2730680000     0.2404710000    -0.9867730000
   17      O      -2.1881230000     1.6496230000    -0.9452060000
   18      C      -2.1982640000     2.2824430000     0.2511800000
   19      C      -1.6256770000     3.6705840000     0.0937940000
   20      O      -2.6927810000     1.8461270000     1.2620930000
   21      C      -1.1406980000    -0.5593920000    -0.6312950000
   22      C       0.0878670000    -0.0048180000    -0.1224850000
   23      O       0.2330140000     1.2695940000     0.1278270000
   24      C       1.1542380000    -0.9508350000     0.0896470000
   25      H       1.9304030000     3.1563000000     0.1768930000
   26      H       1.4109170000     3.5564030000     1.8415400000
   27      H       3.1446530000     3.3822040000     1.4667970000
   28      H       4.4626970000    -1.0160510000     1.0174930000
   29      H       4.1421160000    -3.4986100000     0.6265900000
   30      H       1.8859800000    -4.3083340000    -0.1104210000
   31      H      -2.5909750000    -3.5624560000    -1.4952940000
   32      H      -4.5207260000    -2.0660660000    -2.0716590000
   33      H      -4.2437070000     0.4306520000    -1.7378360000
   34      H      -1.7533650000     4.2309580000     1.0201930000
   35      H      -0.5678980000     3.5497130000    -0.1422040000
   36      H      -2.1162800000     4.1906800000    -0.7353670000
 ----------------------------------------------------------------

    9   -1145.0884882568      5.33e-06  Convergence criterion met
 Total energy in the final basis set =    -1145.0884882568

                    Orbital Energies (a.u.)
 --------------------------------------------------------------

 Alpha MOs
 -- Occupied --
-19.1577 -19.1502 -19.1096 -19.1007 -19.0299 -19.0296 -10.3018 -10.2987
-10.2208 -10.2192 -10.1900 -10.1843 -10.1604 -10.1582 -10.1571 -10.1563
-10.1559 -10.1558 -10.1555 -10.1540 -10.1507 -10.1496 -10.1474 -10.1469
 -1.1022  -1.0936  -1.0230  -1.0153  -0.9504  -0.9433  -0.8400  -0.8320
 -0.7663  -0.7583  -0.7541  -0.7198  -0.7171  -0.7135  -0.6548  -0.6295
 -0.6209  -0.6018  -0.5899  -0.5331  -0.5292  -0.5021  -0.5009  -0.4819
 -0.4782  -0.4708  -0.4672  -0.4645  -0.4624  -0.4507  -0.4441  -0.4334
 -0.4242  -0.4058  -0.3990  -0.3966  -0.3917  -0.3858  -0.3835  -0.3789
 -0.3740  -0.3684  -0.3636  -0.3616  -0.3472  -0.3403  -0.3359  -0.3310
 -0.3179  -0.3107  -0.3086  -0.3016  -0.2804  -0.2742  -0.2359  -0.2348
 -0.2278  -0.2264  -0.2125  -0.2034  -0.1174

          Ground-State Mulliken Net Atomic Charges

     Atom                 Charge (a.u.)
  ----------------------------------------
      1 C                    -0.432716
      2 C                    -0.104642
      3 O                    -0.294529
      4 O                    -0.019454
      5 C                    -0.235133
      6 C                    -0.133980
      7 C                    -0.543743
      8 C                    -0.206222
      9 C                     0.418224
     10 C                    -0.593293
     11 O                    -0.653685
     12 C                     0.398243
     13 C                    -0.238206
     14 C                    -0.535139
     15 C                     0.024258
     16 C                    -0.439940
     17 O                     0.012719
     18 C                    -0.019698
     19 C                    -0.420677
     20 O                    -0.298822
     21 C                     0.414828
     22 C                    -0.260476
     23 O                    -0.531431
     24 C                     0.476553
     25 H                     0.204333
     26 H                     0.182635
     27 H                     0.187569
     28 H                     0.191007
     29 H                     0.188365
     30 H                     0.153914
     31 H                     0.154612
     32 H                     0.190249
     33 H                     0.192730
     34 H                     0.170788
     35 H                     0.219319
     36 H                     0.181441
  ----------------------------------------
  Sum of atomic charges =    -2.000000

                    Cartesian Multipole Moments
 -----------------------------------------------------------------
    Charge (ESU x 10^10)
                -9.6064
    Dipole Moment (Debye)
         X       2.1625      Y      13.6160      Z      -2.6688
       Tot      14.0426
    Quadrupole Moments (Debye-Ang)
        XX    -166.1414     XY      -1.5568     YY    -202.7782
        XZ      -0.5309     YZ     -15.8678     ZZ    -170.6651

 Total job time:  241.32s(wall), 691.46s(cpu)
        *  Thank you very much for using Q-Chem.  Have a nice day.  *
