 Q-Chem 5.4, Q-Chem, Inc., Pleasanton, CA (2021)
 Q-Chem 5.4.0 for Intel X86 EM64T Linux

User input:
--------------------------------------------------------------
$molecule
-2 1
C                  5.8792610000     -5.5552190000      0.9046790000
C                  6.3922450000     -5.5623260000     -0.3804580000
C                  5.9481680000     -4.5973580000     -1.3177120000
C                  4.9159420000     -4.6075080000      1.3180750000
C                  4.4666030000     -3.6295240000      0.3678680000
C                  5.0055900000     -3.6582030000     -0.9375590000
C                  4.4094540000     -4.6384910000      2.6866530000
C                  3.4301200000     -3.6365900000      3.0052360000
C                  2.9935240000     -2.6705550000      2.0745440000
C                  3.4760470000     -2.6181130000      0.7226340000
O                  4.8284600000     -5.5091670000      3.5343790000
O                  3.0746060000     -1.7420000000     -0.1249260000
H                  7.1322660000     -6.3056550000     -0.6713710000
C                  1.9780950000     -1.6125650000      2.4521220000
H                  6.3462290000     -4.5961800000     -2.3307140000
C                  2.8942070000     -3.6572250000      4.4198460000
C                  0.5236490000     -1.9812850000      2.0914340000
C                 -0.4917010000     -0.8864060000      2.4541040000
C                 -1.9446990000     -1.2367110000      2.1093890000
C                 -2.9576720000     -0.1455260000      2.4780690000
H                  6.1991050000     -6.2797150000      1.6470160000
H                  4.6431690000     -2.9055260000     -1.6307310000
H                  2.2310950000     -0.6984490000      1.9031450000
H                  2.0297240000     -1.3866720000      3.5242550000
H                  3.2468640000     -4.5686380000      4.9070170000
H                  1.7980720000     -3.6299030000      4.4553970000
H                  3.2503450000     -2.8007620000      5.0144690000
H                  0.2467610000     -2.9152810000      2.5982060000
H                  0.4850290000     -2.1806150000      1.0154190000
H                 -0.2143070000      0.0427000000      1.9379030000
H                 -0.4228730000     -0.6680470000      3.5297260000
H                 -2.2192130000     -2.1701860000      2.6185660000
H                 -2.0150690000     -1.4486510000      1.0348550000
H                 -2.9445020000      0.0675070000      3.5535530000
H                 -3.9852900000     -0.4277470000      2.2203680000
H                 -2.7416130000      0.7945310000      1.9571010000
$end
$rem
MAX_SCF_CYCLES=200
BASIS  =  6-311++G(d,p)
GUI  =  2
JOB_TYPE  =  SP
METHOD  =  B3LYP
SOLVENT_METHOD = COSMO
$end
$solvent
dielectric 37.219
opticaldielectric 1.43
$end

--------------------------------------------------------------

             Standard Nuclear Orientation (Angstroms)
    I     Atom           X                Y                Z
 ----------------------------------------------------------------
    1      C       3.9260648835    -0.3600255216    -0.5087897558
    2      C       4.6627519013     0.8091451272    -0.5802910454
    3      C       4.0391726863     2.0489546086    -0.2959776690
    4      C       2.5570225724    -0.3587987295    -0.1584220441
    5      C       1.9257174933     0.8979820781     0.1300350287
    6      C       2.6995497204     2.0770598555     0.0498577079
    7      C       1.8247653043    -1.6196901510    -0.0917294726
    8      C       0.4381129797    -1.5099221712     0.2681901663
    9      C      -0.1812337556    -0.2763117045     0.5591233635
   10      C       0.5164980132     0.9779006548     0.5011492871
   11      O       2.4023407728    -2.7413434504    -0.3378646999
   12      O      -0.0489897516     2.1002751130     0.7611223285
   13      H       5.7156430993     0.7779265587    -0.8545992338
   14      C      -1.6394219121    -0.1999768057     0.9602023127
   15      H       4.6112634147     2.9732860293    -0.3502973011
   16      C      -0.3347438677    -2.8085159490     0.3395798909
   17      C      -2.5985689391     0.0932039208    -0.2126341981
   18      C      -4.0711607414     0.1963770751     0.2140435022
   19      C      -5.0418104460     0.4809800710    -0.9390330338
   20      C      -6.5120142642     0.5771029134    -0.5124359434
   21      H       4.3737600796    -1.3262163467    -0.7192729160
   22      H       2.1907690976     3.0096248403     0.2730703778
   23      H      -1.7430216369     0.6183067946     1.6817782647
   24      H      -1.9577418892    -1.1264203969     1.4536970293
   25      H       0.2915135232    -3.6034255879    -0.0706597292
   26      H      -1.2784421860    -2.7682028280    -0.2183902156
   27      H      -0.5919874757    -3.0856900229     1.3744421602
   28      H      -2.4954703039    -0.6911772966    -0.9741787666
   29      H      -2.2813346056     1.0318094749    -0.6789111813
   30      H      -4.1692379567     0.9878343580     0.9694408097
   31      H      -4.3721623479    -0.7369682854     0.7116830346
   32      H      -4.9375332877    -0.3056061830    -1.6982451705
   33      H      -4.7454883143     1.4156435555    -1.4320758136
   34      H      -6.8572071319    -0.3547269585    -0.0490167852
   35      H      -7.1784395148     0.7793283789    -1.3592177917
   36      H      -6.6659005035     1.3804289831     0.2174836158
 ----------------------------------------------------------------

   41    -771.1951558911      3.36e-06  Convergence criterion met
 Total energy in the final basis set =     -771.1951558911
    6    -771.4626964665      2.60e-06  Convergence criterion met
 Total energy in the final basis set =     -771.4626964665

                    Orbital Energies (a.u.)
 --------------------------------------------------------------

 Alpha MOs
 -- Occupied --
-19.0159 -19.0150 -10.1649 -10.1642 -10.1537 -10.1487 -10.1485 -10.1469
-10.1464 -10.1433 -10.1432 -10.1431 -10.1353 -10.1327 -10.1321 -10.1318
-10.1239 -10.1203  -0.9371  -0.9338  -0.8232  -0.7916  -0.7724  -0.7359
 -0.7199  -0.7169  -0.6804  -0.6445  -0.6200  -0.5944  -0.5663  -0.5617
 -0.5471  -0.5161  -0.4802  -0.4601  -0.4565  -0.4296  -0.4263  -0.4165
 -0.4038  -0.3997  -0.3976  -0.3848  -0.3795  -0.3709  -0.3638  -0.3604
 -0.3555  -0.3491  -0.3428  -0.3342  -0.3257  -0.3171  -0.3157  -0.3133
 -0.3085  -0.3048  -0.2969  -0.2919  -0.2285  -0.2234  -0.2013  -0.2002
 -0.1901  -0.1069

          Ground-State Mulliken Net Atomic Charges

     Atom                 Charge (a.u.)
  ----------------------------------------
      1 C                     0.105429
      2 C                    -0.498875
      3 C                    -0.481372
      4 C                     0.240933
      5 C                    -0.172623
      6 C                    -0.010742
      7 C                    -0.667874
      8 C                     0.842520
      9 C                     0.992245
     10 C                    -0.997574
     11 O                    -0.736554
     12 O                    -0.709325
     13 H                     0.171688
     14 C                    -0.343098
     15 H                     0.172453
     16 C                    -0.560820
     17 C                    -0.583749
     18 C                    -0.206706
     19 C                    -0.187901
     20 C                    -0.688827
     21 H                     0.155501
     22 H                     0.152987
     23 H                     0.173190
     24 H                     0.159200
     25 H                     0.164388
     26 H                     0.142103
     27 H                     0.155377
     28 H                     0.117265
     29 H                     0.176124
     30 H                     0.112402
     31 H                     0.105265
     32 H                     0.134621
     33 H                     0.131016
     34 H                     0.145887
     35 H                     0.149380
     36 H                     0.146062
  ----------------------------------------
  Sum of atomic charges =    -2.000007

                    Cartesian Multipole Moments
 -----------------------------------------------------------------
    Charge (ESU x 10^10)
                -9.6064
    Dipole Moment (Debye)
         X     -13.4620      Y       1.9707      Z      -1.5539
       Tot      13.6940
    Quadrupole Moments (Debye-Ang)
        XX    -160.0531     XY      21.9466     YY    -166.3922
        XZ       3.9912     YZ      -8.9060     ZZ    -124.8026

 Total job time:  325.54s(wall), 2138.89s(cpu)
        *  Thank you very much for using Q-Chem.  Have a nice day.  *
