 Q-Chem 5.4, Q-Chem, Inc., Pleasanton, CA (2021)
 Q-Chem 5.4.0 for Intel X86 EM64T Linux

User input:
--------------------------------------------------------------
$molecule
0 1
C                  1.1241880000      1.4028480000     -2.7365170000
C                 -0.2524980000      1.6904950000     -3.2062890000
C                 -1.2200420000      0.7733210000     -3.1051770000
C                 -0.9552150000     -0.5637810000     -2.5218240000
C                  0.4253680000     -0.8693250000     -2.0183970000
O                  2.0077250000      2.2381940000     -2.8400720000
O                 -1.8435030000     -1.3972500000     -2.4555060000
H                 -0.4131300000      2.6771290000     -3.6266950000
C                  1.3922690000      0.0660360000     -2.1341400000
C                  2.7908200000     -0.1311270000     -1.5718090000
C                  3.8973390000     -0.4992540000     -2.4959640000
C                  5.2023830000     -0.5692080000     -1.9867450000
C                  3.6692580000     -0.7867580000     -3.8472530000
C                  6.2581950000     -0.9189960000     -2.8176720000
C                  6.0225400000     -1.2066500000     -4.1643610000
C                  4.7285530000     -1.1417870000     -4.6778880000
O                  2.9572260000      0.0140840000     -0.3766470000
C                  0.6153030000     -2.2272880000     -1.4124680000
H                  5.3636890000     -0.3417530000     -0.9401590000
H                  2.6649590000     -0.7375810000     -4.2513730000
H                  7.2660070000     -0.9673140000     -2.4214850000
H                  6.8482420000     -1.4795660000     -4.8119970000
H                  4.5459560000     -1.3646690000     -5.7227050000
H                 -2.2366350000      0.9486070000     -3.4393500000
H                 -0.0004780000     -2.3238690000     -0.5134110000
H                  1.6530480000     -2.4137270000     -1.1416040000
H                  0.2728430000     -3.0016110000     -2.1033690000
$end
$rem
MAX_SCF_CYCLES=200
BASIS  =  6-311++G(d,p)
GUI  =  2
JOB_TYPE  =  SP
METHOD  =  B3LYP
SOLVENT_METHOD = PCM
$end
$pcm
theory = CPCM
$end
$solvent
dielectric 37.219
opticaldielectric 1.43
$end

--------------------------------------------------------------

             Standard Nuclear Orientation (Angstroms)
    I     Atom           X                Y                Z
 ----------------------------------------------------------------
    1      C       1.1241880000     1.4028480000    -2.7365170000
    2      C      -0.2524980000     1.6904950000    -3.2062890000
    3      C      -1.2200420000     0.7733210000    -3.1051770000
    4      C      -0.9552150000    -0.5637810000    -2.5218240000
    5      C       0.4253680000    -0.8693250000    -2.0183970000
    6      O       2.0077250000     2.2381940000    -2.8400720000
    7      O      -1.8435030000    -1.3972500000    -2.4555060000
    8      H      -0.4131300000     2.6771290000    -3.6266950000
    9      C       1.3922690000     0.0660360000    -2.1341400000
   10      C       2.7908200000    -0.1311270000    -1.5718090000
   11      C       3.8973390000    -0.4992540000    -2.4959640000
   12      C       5.2023830000    -0.5692080000    -1.9867450000
   13      C       3.6692580000    -0.7867580000    -3.8472530000
   14      C       6.2581950000    -0.9189960000    -2.8176720000
   15      C       6.0225400000    -1.2066500000    -4.1643610000
   16      C       4.7285530000    -1.1417870000    -4.6778880000
   17      O       2.9572260000     0.0140840000    -0.3766470000
   18      C       0.6153030000    -2.2272880000    -1.4124680000
   19      H       5.3636890000    -0.3417530000    -0.9401590000
   20      H       2.6649590000    -0.7375810000    -4.2513730000
   21      H       7.2660070000    -0.9673140000    -2.4214850000
   22      H       6.8482420000    -1.4795660000    -4.8119970000
   23      H       4.5459560000    -1.3646690000    -5.7227050000
   24      H      -2.2366350000     0.9486070000    -3.4393500000
   25      H      -0.0004780000    -2.3238690000    -0.5134110000
   26      H       1.6530480000    -2.4137270000    -1.1416040000
   27      H       0.2728430000    -3.0016110000    -2.1033690000
 ----------------------------------------------------------------

    9    -765.3768423046      3.17e-06  Convergence criterion met
 Total energy in the final basis set =     -765.3768423046

                    Orbital Energies (a.u.)
 --------------------------------------------------------------

 Alpha MOs
 -- Occupied --
-19.1488 -19.1484 -19.1392 -10.2952 -10.2922 -10.2907 -10.2301 -10.2205
-10.2144 -10.2135 -10.2004 -10.1960 -10.1930 -10.1925 -10.1884 -10.1882
-10.1791  -1.0825  -1.0790  -1.0727  -0.8796  -0.8728  -0.8176  -0.7819
 -0.7655  -0.7432  -0.6979  -0.6725  -0.6334  -0.6190  -0.6041  -0.5704
 -0.5392  -0.5359  -0.5082  -0.4943  -0.4786  -0.4761  -0.4651  -0.4551
 -0.4496  -0.4484  -0.4401  -0.4383  -0.4311  -0.4248  -0.4112  -0.4081
 -0.3952  -0.3784  -0.3749  -0.3591  -0.3172  -0.3063  -0.2997  -0.2928
 -0.2769  -0.2736  -0.2713

          Ground-State Mulliken Net Atomic Charges

     Atom                 Charge (a.u.)
  ----------------------------------------
      1 C                    -0.304768
      2 C                    -0.219386
      3 C                     0.150630
      4 C                    -0.366964
      5 C                     0.017392
      6 O                    -0.288532
      7 O                    -0.288804
      8 H                     0.260260
      9 C                     1.069744
     10 C                    -0.202464
     11 C                     0.591387
     12 C                     0.416201
     13 C                    -0.890291
     14 C                    -0.465496
     15 C                    -0.321518
     16 C                    -0.204151
     17 O                    -0.275004
     18 C                    -0.612797
     19 H                     0.233021
     20 H                     0.184386
     21 H                     0.221030
     22 H                     0.203508
     23 H                     0.237655
     24 H                     0.266816
     25 H                     0.213351
     26 H                     0.168277
     27 H                     0.206516
  ----------------------------------------
  Sum of atomic charges =     0.000000

                    Cartesian Multipole Moments
 -----------------------------------------------------------------
    Charge (ESU x 10^10)
                 0.0000
    Dipole Moment (Debye)
         X       0.6171      Y      -1.8269      Z      -4.1047
       Tot       4.5351
    Quadrupole Moments (Debye-Ang)
        XX     -86.8174     XY     -20.4573     YY    -102.2296
        XZ     -12.6984     YZ       4.5893     ZZ     -76.9345

 Total job time:  44.43s(wall), 320.42s(cpu)
        *  Thank you very much for using Q-Chem.  Have a nice day.  *
