 Q-Chem 5.4, Q-Chem, Inc., Pleasanton, CA (2021)
 Q-Chem 5.4.0 for Intel X86 EM64T Linux

User input:
--------------------------------------------------------------
$molecule
-2 1
C                 -0.2300080000      3.9320580000      0.2258230000
C                 -1.4392280000      3.4560650000      0.7031240000
C                 -1.6598730000      2.0570200000      0.7695700000
C                  0.8020330000      3.0664970000     -0.2022310000
C                  0.5769830000      1.6463540000     -0.1414400000
C                 -0.6676870000      1.1876880000      0.3527010000
C                  2.0503330000      3.6373750000     -0.7049040000
C                  3.0114350000      2.6572530000     -1.1044040000
C                  2.8018210000      1.2424160000     -1.0344290000
C                  1.5806550000      0.6786310000     -0.5672160000
O                  2.2320170000      4.9104710000     -0.7564350000
O                  1.3501220000     -0.5968920000     -0.5027670000
H                 -0.0245570000      4.9963840000      0.1607680000
H                 -2.2144450000      4.1495400000      1.0265560000
H                 -2.6069850000      1.6702210000      1.1442580000
H                 -0.8021420000      0.1107060000      0.3866320000
S                  4.5566640000      3.2723670000     -1.7956090000
C                  5.1993020000      4.3372940000     -0.4419870000
C                  3.8704700000      0.2656950000     -1.4595320000
H                  6.0982860000      4.8387470000     -0.8195360000
H                  5.4597310000      3.7343420000      0.4336860000
H                  4.4199100000      5.0604580000     -0.1967300000
H                  4.0652960000      0.2940130000     -2.5436420000
H                  3.5254270000     -0.7383260000     -1.2002670000
H                  4.8345990000      0.4708240000     -0.9747610000
$end

$rem
BASIS  =  6-311++G(d,p)
GUI  =  2
JOB_TYPE  =  SP
METHOD  =  B3LYP
SCF_CONVERGENCE  = 8
SOLVENT_METHOD = sm12
$end

$smx
solvent dimethylformamide
charges CM5
$end

--------------------------------------------------------------

             Standard Nuclear Orientation (Angstroms)
    I     Atom           X                Y                Z
 ----------------------------------------------------------------
    1      C      -0.2300080000     3.9320580000     0.2258230000
    2      C      -1.4392280000     3.4560650000     0.7031240000
    3      C      -1.6598730000     2.0570200000     0.7695700000
    4      C       0.8020330000     3.0664970000    -0.2022310000
    5      C       0.5769830000     1.6463540000    -0.1414400000
    6      C      -0.6676870000     1.1876880000     0.3527010000
    7      C       2.0503330000     3.6373750000    -0.7049040000
    8      C       3.0114350000     2.6572530000    -1.1044040000
    9      C       2.8018210000     1.2424160000    -1.0344290000
   10      C       1.5806550000     0.6786310000    -0.5672160000
   11      O       2.2320170000     4.9104710000    -0.7564350000
   12      O       1.3501220000    -0.5968920000    -0.5027670000
   13      H      -0.0245570000     4.9963840000     0.1607680000
   14      H      -2.2144450000     4.1495400000     1.0265560000
   15      H      -2.6069850000     1.6702210000     1.1442580000
   16      H      -0.8021420000     0.1107060000     0.3866320000
   17      S       4.5566640000     3.2723670000    -1.7956090000
   18      C       5.1993020000     4.3372940000    -0.4419870000
   19      C       3.8704700000     0.2656950000    -1.4595320000
   20      H       6.0982860000     4.8387470000    -0.8195360000
   21      H       5.4597310000     3.7343420000     0.4336860000
   22      H       4.4199100000     5.0604580000    -0.1967300000
   23      H       4.0652960000     0.2940130000    -2.5436420000
   24      H       3.5254270000    -0.7383260000    -1.2002670000
   25      H       4.8345990000     0.4708240000    -0.9747610000
 ----------------------------------------------------------------

   18   -1012.1010902158      5.79e-09  Convergence criterion met
 Total energy in the final basis set =    -1012.3800918734

                    Orbital Energies (a.u.)
 --------------------------------------------------------------

 Alpha MOs
 -- Occupied --
-88.8292 -19.0252 -19.0204 -10.1877 -10.1832 -10.1807 -10.1762 -10.1755
-10.1699 -10.1691 -10.1622 -10.1570 -10.1566 -10.1563 -10.1470  -7.9138
 -5.8779  -5.8741  -5.8677  -0.9439  -0.9342  -0.8457  -0.8012  -0.7611
 -0.7434  -0.7387  -0.6883  -0.6491  -0.6308  -0.5880  -0.5724  -0.5377
 -0.4948  -0.4794  -0.4499  -0.4415  -0.4237  -0.4217  -0.4132  -0.4113
 -0.3927  -0.3852  -0.3812  -0.3732  -0.3612  -0.3536  -0.3426  -0.3292
 -0.3218  -0.3184  -0.3009  -0.2490  -0.2389  -0.2311  -0.2068  -0.2025
 -0.1955  -0.1228

          Ground-State Mulliken Net Atomic Charges

     Atom                 Charge (a.u.)
  ----------------------------------------
      1 C                     0.167405
      2 C                     1.446231
      3 C                     1.652246
      4 C                    -1.371818
      5 C                    -1.982509
      6 C                    -0.313665
      7 C                    -2.091468
      8 C                     1.014855
      9 C                    -0.698122
     10 C                    -2.602384
     11 O                    -0.270811
     12 O                    -0.368270
     13 H                     0.115586
     14 H                     0.413890
     15 H                     0.408897
     16 H                     0.099097
     17 S                     0.662038
     18 C                    -0.247670
     19 C                     1.004435
     20 H                     0.312436
     21 H                     0.077589
     22 H                     0.091288
     23 H                     0.150044
     24 H                     0.174500
     25 H                     0.156179
  ----------------------------------------
  Sum of atomic charges =    -2.000000

                    Cartesian Multipole Moments
 -----------------------------------------------------------------
    Charge (ESU x 10^10)
                -9.6064
    Dipole Moment (Debye)
         X     -16.9359      Y     -20.6039      Z       6.6827
       Tot      27.4956
    Quadrupole Moments (Debye-Ang)
        XX    -163.5329     XY     -41.6566     YY    -203.2371
        XZ      23.5925     YZ      17.6411     ZZ    -119.5057

 Total job time:  622.84s(wall), 4225.75s(cpu)
        *  Thank you very much for using Q-Chem.  Have a nice day.  *
