 Q-Chem 5.4, Q-Chem, Inc., Pleasanton, CA (2021)
 Q-Chem 5.4.0 for Intel X86 EM64T Linux

User input:
--------------------------------------------------------------
$molecule
0 1
C                  0.6413530000     -1.7087170000     -0.9242310000
C                 -0.5567110000     -1.1421630000     -0.2191850000
C                 -0.4754770000      0.0138780000      0.4654610000
C                  0.8165740000      0.7802330000      0.5510000000
C                  1.9953120000      0.1832160000     -0.1491140000
C                  1.9438430000     -0.9638420000     -0.8519720000
O                  0.5658920000     -2.7486080000     -1.5432410000
O                  0.8871220000      1.8233050000      1.1560510000
Br                -2.1377390000     -2.1606070000     -0.3748810000
Br                -1.9271200000      0.7999570000      1.3775810000
Br                 3.5980360000      1.1945260000      0.0297480000
C                  3.1026300000     -1.6075390000     -1.5578050000
C                  3.8400700000     -2.6322500000     -0.6664670000
C                  5.0135940000     -3.2942530000     -1.3961500000
C                  5.7616850000     -4.3159720000     -0.5325930000
C                  6.9373250000     -4.9834500000     -1.2555300000
C                  7.6794590000     -6.0034660000     -0.3872320000
H                  3.8025140000     -0.8346420000     -1.8797530000
H                  2.7249000000     -2.1197390000     -2.4449490000
H                  3.1309270000     -3.4002250000     -0.3409470000
H                  4.2036190000     -2.1292440000      0.2361800000
H                  5.7150480000     -2.5200140000     -1.7321300000
H                  4.6427310000     -3.7875150000     -2.3032830000
H                  5.0592400000     -5.0892220000     -0.1959300000
H                  6.1301400000     -3.8227730000      0.3762190000
H                  7.6392690000     -4.2108200000     -1.5921130000
H                  6.5690580000     -5.4760440000     -2.1635720000
H                  8.0898880000     -5.5335570000      0.5121440000
H                  8.5105060000     -6.4609050000     -0.9310390000
H                  7.0115430000     -6.8080440000     -0.0637970000
$end
$rem
MAX_SCF_CYCLES=200
BASIS  =  6-311++G(d,p)
GUI  =  2
JOB_TYPE  =  SP
METHOD  =  B3LYP
SOLVENT_METHOD = PCM
$end
$pcm
theory = CPCM
$end
$solvent
dielectric 37.219
opticaldielectric 1.43
$end

--------------------------------------------------------------

             Standard Nuclear Orientation (Angstroms)
    I     Atom           X                Y                Z
 ----------------------------------------------------------------
    1      C       0.6413530000    -1.7087170000    -0.9242310000
    2      C      -0.5567110000    -1.1421630000    -0.2191850000
    3      C      -0.4754770000     0.0138780000     0.4654610000
    4      C       0.8165740000     0.7802330000     0.5510000000
    5      C       1.9953120000     0.1832160000    -0.1491140000
    6      C       1.9438430000    -0.9638420000    -0.8519720000
    7      O       0.5658920000    -2.7486080000    -1.5432410000
    8      O       0.8871220000     1.8233050000     1.1560510000
    9      Br     -2.1377390000    -2.1606070000    -0.3748810000
   10      Br     -1.9271200000     0.7999570000     1.3775810000
   11      Br      3.5980360000     1.1945260000     0.0297480000
   12      C       3.1026300000    -1.6075390000    -1.5578050000
   13      C       3.8400700000    -2.6322500000    -0.6664670000
   14      C       5.0135940000    -3.2942530000    -1.3961500000
   15      C       5.7616850000    -4.3159720000    -0.5325930000
   16      C       6.9373250000    -4.9834500000    -1.2555300000
   17      C       7.6794590000    -6.0034660000    -0.3872320000
   18      H       3.8025140000    -0.8346420000    -1.8797530000
   19      H       2.7249000000    -2.1197390000    -2.4449490000
   20      H       3.1309270000    -3.4002250000    -0.3409470000
   21      H       4.2036190000    -2.1292440000     0.2361800000
   22      H       5.7150480000    -2.5200140000    -1.7321300000
   23      H       4.6427310000    -3.7875150000    -2.3032830000
   24      H       5.0592400000    -5.0892220000    -0.1959300000
   25      H       6.1301400000    -3.8227730000     0.3762190000
   26      H       7.6392690000    -4.2108200000    -1.5921130000
   27      H       6.5690580000    -5.4760440000    -2.1635720000
   28      H       8.0898880000    -5.5335570000     0.5121440000
   29      H       8.5105060000    -6.4609050000    -0.9310390000
   30      H       7.0115430000    -6.8080440000    -0.0637970000
 ----------------------------------------------------------------

    9   -8338.1337584109      2.90e-06  Convergence criterion met
 Total energy in the final basis set =    -8338.1337584109

                    Orbital Energies (a.u.)
 --------------------------------------------------------------

 Alpha MOs
 -- Occupied --
********-482.8588-482.8519 -62.5120 -62.5116 -62.5047 -56.3326 -56.3322
-56.3287 -56.3283 -56.3282 -56.3278 -56.3252 -56.3214 -56.3210 -19.1606
-19.1597 -10.3168 -10.3119 -10.2802 -10.2788 -10.2688 -10.2375 -10.1854
-10.1721 -10.1621 -10.1597 -10.1587 -10.1526  -8.7208  -8.7203  -8.7135
 -6.5529  -6.5524  -6.5453  -6.5395  -6.5391  -6.5380  -6.5376  -6.5322
 -6.5310  -2.6639  -2.6633  -2.6601  -2.6597  -2.6589  -2.6585  -2.6562
 -2.6525  -2.6516  -2.6484  -2.6484  -2.6480  -2.6479  -2.6413  -2.6413
 -1.0999  -1.0956  -0.9093  -0.8760  -0.8282  -0.8150  -0.8021  -0.7835
 -0.7522  -0.7206  -0.7016  -0.6558  -0.6172  -0.6098  -0.5868  -0.5750
 -0.5659  -0.5080  -0.4915  -0.4811  -0.4805  -0.4585  -0.4538  -0.4469
 -0.4456  -0.4420  -0.4288  -0.4222  -0.4011  -0.3988  -0.3925  -0.3797
 -0.3617  -0.3543  -0.3498  -0.3327  -0.3306  -0.3303  -0.3278  -0.3218
 -0.3202  -0.3157  -0.3104  -0.3080  -0.2933  -0.2913  -0.2718

          Ground-State Mulliken Net Atomic Charges

     Atom                 Charge (a.u.)
  ----------------------------------------
      1 C                    -0.993273
      2 C                    -0.184374
      3 C                     0.757091
      4 C                    -0.832077
      5 C                     0.391093
      6 C                     2.002416
      7 O                    -0.190383
      8 O                    -0.162657
      9 Br                   -0.084377
     10 Br                   -0.072389
     11 Br                   -0.036524
     12 C                    -0.783000
     13 C                    -0.489501
     14 C                    -0.172854
     15 C                    -0.246980
     16 C                    -0.211286
     17 C                    -0.692875
     18 H                     0.193338
     19 H                     0.234481
     20 H                     0.197460
     21 H                     0.136114
     22 H                     0.132807
     23 H                     0.130519
     24 H                     0.128577
     25 H                     0.133308
     26 H                     0.138247
     27 H                     0.137544
     28 H                     0.145622
     29 H                     0.148153
     30 H                     0.145773
  ----------------------------------------
  Sum of atomic charges =    -0.000002

                    Cartesian Multipole Moments
 -----------------------------------------------------------------
    Charge (ESU x 10^10)
                -0.0000
    Dipole Moment (Debye)
         X       1.5863      Y      -1.5498      Z      -1.0444
       Tot       2.4514
    Quadrupole Moments (Debye-Ang)
        XX    -127.4354     XY      -5.8800     YY    -149.5836
        XZ      -5.1994     YZ      -5.8474     ZZ    -141.7146

 Total job time:  61.15s(wall), 449.90s(cpu)
        *  Thank you very much for using Q-Chem.  Have a nice day.  *
