 Gaussian 16, Revision A.03,
 Gaussian 16:  ES64L-G16RevA.03 25-Dec-2016

 --------------------------------------
 #P UB3LYP/6-311++G(d,p) nosym opt freq
 --------------------------------------

 -------
 Radical
 -------
 Symbolic Z-matrix:
 Charge = -1 Multiplicity = 2

 SCF Done:  E(UB3LYP) =  -692.637425935     A.U. after   21 cycles
 SCF Done:  E(UB3LYP) =  -692.637504515     A.U. after   13 cycles
 SCF Done:  E(UB3LYP) =  -692.637507406     A.U. after   11 cycles
 SCF Done:  E(UB3LYP) =  -692.637515109     A.U. after   12 cycles
 SCF Done:  E(UB3LYP) =  -692.637561344     A.U. after   14 cycles
 SCF Done:  E(UB3LYP) =  -692.599769757     A.U. after   19 cycles
 SCF Done:  E(UB3LYP) =  -692.637745575     A.U. after   15 cycles
 SCF Done:  E(UB3LYP) =  -692.637879787     A.U. after   15 cycles
 SCF Done:  E(UB3LYP) =  -692.636586469     A.U. after   16 cycles
 SCF Done:  E(UB3LYP) =  -692.638027166     A.U. after   14 cycles
 SCF Done:  E(UB3LYP) =  -692.638207191     A.U. after   15 cycles
 SCF Done:  E(UB3LYP) =  -692.638248822     A.U. after   14 cycles
 SCF Done:  E(UB3LYP) =  -692.638271210     A.U. after   13 cycles
 SCF Done:  E(UB3LYP) =  -692.638283747     A.U. after   12 cycles
 SCF Done:  E(UB3LYP) =  -692.638293479     A.U. after   12 cycles
 SCF Done:  E(UB3LYP) =  -692.638304502     A.U. after   13 cycles
 SCF Done:  E(UB3LYP) =  -692.638309715     A.U. after   12 cycles
 SCF Done:  E(UB3LYP) =  -692.638311138     A.U. after   12 cycles
 SCF Done:  E(UB3LYP) =  -692.638311191     A.U. after    9 cycles
 Optimization completed.
    -- Stationary point found.
 Normal termination of Gaussian 16 at Fri Jan 19 06:30:20 2024.

 ----------------------------------------------------------------------
 #P Geom=AllCheck Guess=TCheck SCRF=Check GenChk UB3LYP/6-311++G(d,p) F
 req
 ----------------------------------------------------------------------

 Structure from the checkpoint file:  "256-rad.chk"
 -------
 Radical
 -------
 Charge = -1 Multiplicity = 2

                          Input orientation:
 ---------------------------------------------------------------------
 Center     Atomic      Atomic             Coordinates (Angstroms)
 Number     Number       Type             X           Y           Z
 ---------------------------------------------------------------------
      1          6           0       -1.537651    2.786588   -0.058749
      2          6           0       -2.797648    2.210883   -0.025023
      3          6           0       -2.905664    0.793678    0.046869
      4          6           0       -0.357168    2.020313   -0.024582
      5          6           0       -0.464487    0.612178    0.046839
      6          6           0       -1.747472    0.033662    0.080918
      7          6           0        0.953195    2.685244   -0.063211
      8          6           0        2.114676    1.820562   -0.024361
      9          6           0        2.009101    0.435155    0.045771
     10          6           0        0.730032   -0.243577    0.085263
     11          8           0        1.042243    3.944449   -0.126945
     12          8           0        0.627328   -1.501735    0.149208
     13          6           0        3.465819    2.491813   -0.063598
     14          6           0        3.242946   -0.433073    0.084385
     15          1           0       -1.423948    3.864404   -0.113507
     16          6           0       -4.034482    3.078901   -0.064290
     17          6           0       -4.259772    0.123094    0.085628
     18          1           0        3.329762    3.572265   -0.116659
     19          1           0        4.055534    2.168705   -0.931139
     20          1           0        4.063260    2.255784    0.826402
     21          1           0        3.874979   -0.203417    0.951913
     22          1           0        3.869096   -0.289946   -0.805676
     23          1           0        2.944730   -1.480452    0.137057
     24          1           0       -1.798488   -1.048932    0.135743
     25          1           0       -3.761427    4.135203   -0.118434
     26          1           0       -4.661772    2.941274    0.825406
     27          1           0       -4.667994    2.852838   -0.931208
     28          1           0       -4.852120    0.442583    0.952255
     29          1           0       -4.149947   -0.962383    0.139875
     30          1           0       -4.858535    0.354168   -0.804359
 ---------------------------------------------------------------------

 SCF Done:  E(UB3LYP) =  -692.638311191     A.U. after    2 cycles

 Alpha  occ. eigenvalues --  -18.93354 -18.93353 -10.08079 -10.08077 -10.06688
 Alpha  occ. eigenvalues --  -10.06688 -10.05960 -10.05915 -10.04021 -10.04020
 Alpha  occ. eigenvalues --  -10.03772 -10.03725 -10.03539 -10.03485 -10.03376
 Alpha  occ. eigenvalues --  -10.03376  -0.85797  -0.85514  -0.73798  -0.69107
 Alpha  occ. eigenvalues --   -0.65744  -0.64784  -0.59877  -0.58758  -0.58332
 Alpha  occ. eigenvalues --   -0.53299  -0.51130  -0.47218  -0.44608  -0.41883
 Alpha  occ. eigenvalues --   -0.37743  -0.35319  -0.35092  -0.33165  -0.31594
 Alpha  occ. eigenvalues --   -0.30957  -0.30509  -0.30113  -0.29872  -0.28040
 Alpha  occ. eigenvalues --   -0.27384  -0.27034  -0.26864  -0.26291  -0.25975
 Alpha  occ. eigenvalues --   -0.25627  -0.24885  -0.22974  -0.22870  -0.21030
 Alpha  occ. eigenvalues --   -0.20604  -0.20323  -0.12900  -0.12329  -0.10692
 Alpha  occ. eigenvalues --   -0.10481  -0.09436  -0.01254
 Alpha virt. eigenvalues --    0.07165   0.08989   0.09135   0.09520   0.11046
 Alpha virt. eigenvalues --    0.11182   0.11296   0.11366   0.12226   0.12646
 Alpha virt. eigenvalues --    0.12902   0.13498   0.13802   0.15137   0.15142

  Beta  occ. eigenvalues --  -18.92698 -18.92697 -10.07943 -10.07941 -10.06691
  Beta  occ. eigenvalues --  -10.06691 -10.05925 -10.05880 -10.04025 -10.04024
  Beta  occ. eigenvalues --  -10.03708 -10.03660 -10.03405 -10.03393 -10.03379
  Beta  occ. eigenvalues --  -10.03336  -0.84677  -0.84358  -0.73664  -0.68640
  Beta  occ. eigenvalues --   -0.65618  -0.64705  -0.59556  -0.58644  -0.58158
  Beta  occ. eigenvalues --   -0.53157  -0.50444  -0.47169  -0.44292  -0.41573
  Beta  occ. eigenvalues --   -0.37619  -0.35156  -0.34878  -0.33098  -0.31454
  Beta  occ. eigenvalues --   -0.30505  -0.30474  -0.30073  -0.29599  -0.28029
  Beta  occ. eigenvalues --   -0.27111  -0.26757  -0.26522  -0.25921  -0.25505
  Beta  occ. eigenvalues --   -0.25286  -0.24577  -0.22761  -0.20860  -0.20494
  Beta  occ. eigenvalues --   -0.20093  -0.19509  -0.11712  -0.10561  -0.09871
  Beta  occ. eigenvalues --   -0.09574  -0.08834
  Beta virt. eigenvalues --    0.05390   0.07164   0.08995   0.09132   0.09887
  Beta virt. eigenvalues --    0.11185   0.11260   0.11365   0.12232   0.12241
  Beta virt. eigenvalues --    0.12648   0.12904   0.13667   0.13797   0.15152

 Mulliken charges and spin densities:
               1          2
     1  C   -0.142685   0.014258
     2  C    0.481933   0.032569
     3  C    0.482000   0.032559
     4  C    0.187270   0.037711
     5  C    0.187222   0.037702
     6  C   -0.142879   0.014266
     7  C   -1.034676   0.070374
     8  C    0.419878   0.096565
     9  C    0.419661   0.096578
    10  C   -1.034656   0.070383
    11  O   -0.383153   0.242516
    12  O   -0.383154   0.242526
    13  C   -0.478746  -0.000825
    14  C   -0.478752  -0.000830
    15  H    0.115627  -0.002295
    16  C   -0.507094  -0.001916
    17  C   -0.507106  -0.001914
    18  H    0.200734  -0.002130
    19  H    0.114414   0.005013
    20  H    0.114374   0.004997
    21  H    0.114435   0.005019
    22  H    0.114352   0.004994
    23  H    0.200735  -0.002130
    24  H    0.115623  -0.002296
    25  H    0.161571   0.000101
    26  H    0.125371   0.001527
    27  H    0.125382   0.001527
    28  H    0.125379   0.001527
    29  H    0.161569   0.000101
    30  H    0.125373   0.001526
 Sum of Mulliken charges =  -1.00000   1.00000

 Dipole moment (field-independent basis, Debye):
    X=             -2.7080    Y=             -5.9655    Z=             -0.0535  Tot=              6.5516
 Quadrupole moment (field-independent basis, Debye-Ang):
   XX=           -111.6436   YY=           -141.7751   ZZ=           -101.3511
   XY=             -5.2210   XZ=              0.0985   YZ=              1.6091

  Exact polarizability: 286.147  -5.172 218.656  -0.435  -5.626 106.924
 Approx polarizability: 381.118   0.888 392.720  -0.859 -11.188 171.519

                      1                      2                      3
                      A                      A                      A
 Frequencies --     62.1084                74.8174                83.8027
 Red. masses --      4.1921                 1.9552                 1.3744
 Frc consts  --      0.0095                 0.0064                 0.0057
 IR Inten    --      7.5681                 0.0002                 0.0001

                      4                      5                      6
                      A                      A                      A
 Frequencies --    129.7385               129.8911               136.7822
 Red. masses --      1.9418                 2.5220                 1.5641
 Frc consts  --      0.0193                 0.0251                 0.0172
 IR Inten    --      1.3193                 0.2944                 0.6394

                      7                      8                      9
                      A                      A                      A
 Frequencies --    141.4256               177.3594               185.5765
 Red. masses --      1.1011                 1.1519                 4.0356
 Frc consts  --      0.0130                 0.0213                 0.0819
 IR Inten    --      0.0005                 0.4676                 2.8396

                     10                     11                     12
                      A                      A                      A
 Frequencies --    237.0887               239.0058               288.6486
 Red. masses --      3.6103                 3.1702                 2.6562
 Frc consts  --      0.1196                 0.1067                 0.1304
 IR Inten    --      0.0005                 0.7804                 1.5440

                     13                     14                     15
                      A                      A                      A
 Frequencies --    313.4084               330.4947               347.9937
 Red. masses --      2.6458                 3.6209                 4.2320
 Frc consts  --      0.1531                 0.2330                 0.3020
 IR Inten    --      0.6897                 2.1476                 6.2378

                     16                     17                     18
                      A                      A                      A
 Frequencies --    354.9041               369.8791               420.4779
 Red. masses --      5.5924                 5.0754                 7.2117
 Frc consts  --      0.4150                 0.4091                 0.7512
 IR Inten    --      5.1006                 0.5864                10.6134

                     19                     20                     21
                      A                      A                      A
 Frequencies --    438.3447               454.8622               469.3817
 Red. masses --      5.3926                 3.1122                 3.7633
 Frc consts  --      0.6105                 0.3794                 0.4885
 IR Inten    --      0.0000                 1.9101                 2.4624

                     22                     23                     24
                      A                      A                      A
 Frequencies --    508.7997               566.0171               575.9521
 Red. masses --     10.4422                 4.2413                 4.4917
 Frc consts  --      1.5927                 0.8006                 0.8779
 IR Inten    --      0.0001                 7.7776                 0.0000

                     25                     26                     27
                      A                      A                      A
 Frequencies --    660.9158               679.7458               690.5496
 Red. masses --      4.3722                 5.7213                 4.0205
 Frc consts  --      1.1252                 1.5575                 1.1296
 IR Inten    --      5.7088                 1.3787                 0.0000

                     28                     29                     30
                      A                      A                      A
 Frequencies --    720.3229               747.7654               753.1160
 Red. masses --      5.9449                 3.9986                 4.4592
 Frc consts  --      1.8174                 1.3173                 1.4901
 IR Inten    --     10.8075                10.7472                 4.7935

                     31                     32                     33
                      A                      A                      A
 Frequencies --    795.4709               920.8921               925.9070
 Red. masses --      5.2544                 2.6403                 3.0709
 Frc consts  --      1.9590                 1.3192                 1.5511
 IR Inten    --      0.0000                 0.3514                 0.6710

                     34                     35                     36
                      A                      A                      A
 Frequencies --    927.1018               927.2529               998.9989
 Red. masses --      1.3695                 1.3593                 1.4259
 Frc consts  --      0.6935                 0.6886                 0.8384
 IR Inten    --     14.5373                 1.0304                27.7799

                     37                     38                     39
                      A                      A                      A
 Frequencies --   1025.2924              1027.1203              1028.5392
 Red. masses --      1.5185                 1.4095                 1.6470
 Frc consts  --      0.9405                 0.8761                 1.0266
 IR Inten    --      2.4326                 0.0022                 1.4449

                     40                     41                     42
                      A                      A                      A
 Frequencies --   1045.0008              1054.1732              1060.8065
 Red. masses --      1.4273                 1.5179                 1.5590
 Frc consts  --      0.9183                 0.9938                 1.0336
 IR Inten    --      4.0533                 0.0001                 0.0000

                     43                     44                     45
                      A                      A                      A
 Frequencies --   1104.4910              1118.4813              1154.6513
 Red. masses --      4.5790                 2.8528                 1.8573
 Frc consts  --      3.2912                 2.1027                 1.4589
 IR Inten    --     20.8242                 1.1596                 0.0394

                     46                     47                     48
                      A                      A                      A
 Frequencies --   1205.0779              1219.2158              1253.9704
 Red. masses --      5.1810                 5.8255                 5.2186
 Frc consts  --      4.4330                 5.1021                 4.8348
 IR Inten    --      9.7982                22.8814                13.3748

                     49                     50                     51
                      A                      A                      A
 Frequencies --   1258.0116              1356.1969              1357.9437
 Red. masses --      1.3492                 2.0447                 7.6131
 Frc consts  --      1.2581                 2.2157                 8.2713
 IR Inten    --      8.3695                 5.5561                 5.7102

                     52                     53                     54
                      A                      A                      A
 Frequencies --   1377.9227              1385.8779              1400.5972
 Red. masses --      1.9453                 1.2781                 1.3505
 Frc consts  --      2.1761                 1.4463                 1.5609
 IR Inten    --    116.0532                 1.6937                 0.3084

                     55                     56                     57
                      A                      A                      A
 Frequencies --   1410.3427              1445.5992              1471.9458
 Red. masses --      1.2404                 2.4634                 1.4232
 Frc consts  --      1.4537                 3.0330                 1.8168
 IR Inten    --      3.2350                28.0448                 2.8862

                     58                     59                     60
                      A                      A                      A
 Frequencies --   1476.5714              1484.4898              1487.9609
 Red. masses --      1.0468                 1.1543                 1.9104
 Frc consts  --      1.3447                 1.4988                 2.4920
 IR Inten    --      0.0001                31.7356                26.3300

                     61                     62                     63
                      A                      A                      A
 Frequencies --   1490.5908              1490.9679              1493.0136
 Red. masses --      1.0453                 1.0487                 1.5826
 Frc consts  --      1.3684                 1.3735                 2.0785
 IR Inten    --     11.9669                 0.0039                13.1913

                     64                     65                     66
                      A                      A                      A
 Frequencies --   1493.6874              1506.5850              1509.7493
 Red. masses --      1.5809                 1.0479                 3.5268
 Frc consts  --      2.0781                 1.4014                 4.7363
 IR Inten    --     41.1638                12.4268                 0.3079

                     67                     68                     69
                      A                      A                      A
 Frequencies --   1518.1352              1533.1547              1607.5482
 Red. masses --      5.1185                 3.8491                 8.8387
 Frc consts  --      6.9505                 5.3307                13.4575
 IR Inten    --    520.2004                38.4736                 0.3269

                     70                     71                     72
                      A                      A                      A
 Frequencies --   1641.9932              2985.7544              2988.4156
 Red. masses --      6.5899                 1.0417                 1.0405
 Frc consts  --     10.4682                 5.4715                 5.4747
 IR Inten    --      0.0152                 9.0704               297.9482

                     73                     74                     75
                      A                      A                      A
 Frequencies --   2990.4318              2993.8825              3017.8146
 Red. masses --      1.0402                 1.0389                 1.0988
 Frc consts  --      5.4805                 5.4866                 5.8960
 IR Inten    --     11.5659               152.1199                93.7685

                     76                     77                     78
                      A                      A                      A
 Frequencies --   3018.4223              3024.3795              3025.7136
 Red. masses --      1.0987                 1.0990                 1.0993
 Frc consts  --      5.8979                 5.9229                 5.9293
 IR Inten    --      1.0225                 0.0294                78.3954

                     79                     80                     81
                      A                      A                      A
 Frequencies --   3085.2191              3086.8277              3110.0266
 Red. masses --      1.0962                 1.0964                 1.0940
 Frc consts  --      6.1475                 6.1552                 6.2344
 IR Inten    --     49.8259                 3.1411                 2.2033

                     82                     83                     84
                      A                      A                      A
 Frequencies --   3110.4566              3164.4260              3166.4768
 Red. masses --      1.0940                 1.0889                 1.0893
 Frc consts  --      6.2363                 6.4243                 6.4349
 IR Inten    --     15.5501                11.3906                12.5066

 - Thermochemistry -
 -------------------
 Temperature   298.150 Kelvin.  Pressure   1.00000 Atm.
 Atom     1 has atomic number  6 and mass  12.00000

 Molecular mass:   214.09938 amu.
 Principal axes and moments of inertia in atomic units:
                           1         2         3
     Eigenvalues --  1908.742544650.295656514.48113
           X            0.99711   0.07588   0.00386
           Y           -0.07598   0.99584   0.05034
           Z           -0.00003  -0.05048   0.99872
 This molecule is an asymmetric top.
 Rotational symmetry number  1.
 Warning -- assumption of classical behavior for rotation
           may cause significant error
 Rotational temperatures (Kelvin)      0.04538     0.01863     0.01330
 Rotational constants (GHZ):           0.94551     0.38809     0.27704
 Zero-point vibrational energy     628331.1 (Joules/Mol)
                                  150.17473 (Kcal/Mol)
 Warning -- explicit consideration of  24 degrees of freedom as
           vibrations may cause significant error
 Vibrational temperatures:     89.36   107.65   120.57   186.66   186.88
          (Kelvin)            196.80   203.48   255.18   267.00   341.12
                              343.88   415.30   450.92   475.51   500.69
                              510.63   532.17   604.97   630.68   654.45
                              675.34   732.05   814.37   828.67   950.91
                              978.00   993.55  1036.38  1075.87  1083.57
                             1144.51  1324.96  1332.17  1333.89  1334.11
                             1437.34  1475.17  1477.80  1479.84  1503.52
                             1516.72  1526.26  1589.12  1609.25  1661.29
                             1733.84  1754.18  1804.18  1810.00  1951.26
                             1953.78  1982.52  1993.97  2015.15  2029.17
                             2079.89  2117.80  2124.46  2135.85  2140.84
                             2144.63  2145.17  2148.11  2149.08  2167.64
                             2172.19  2184.26  2205.87  2312.90  2362.46
                             4295.83  4299.66  4302.56  4307.53  4341.96
                             4342.84  4351.41  4353.33  4438.94  4441.26
                             4474.63  4475.25  4552.90  4555.85

 Zero-point correction=                           0.239319 (Hartree/Particle)
 Thermal correction to Energy=                    0.254714
 Thermal correction to Enthalpy=                  0.255658
 Thermal correction to Gibbs Free Energy=         0.196817
 Sum of electronic and zero-point Energies=           -692.398993
 Sum of electronic and thermal Energies=              -692.383597
 Sum of electronic and thermal Enthalpies=            -692.382653
 Sum of electronic and thermal Free Energies=         -692.441495

                     E (Thermal)             CV                S
                      KCal/Mol        Cal/Mol-Kelvin    Cal/Mol-Kelvin
 Total                  159.835             58.457            123.843
 Electronic               0.000              0.000              1.377
 Translational            0.889              2.981             41.987
 Rotational               0.889              2.981             32.425
 Vibrational            158.058             52.495             48.053
 Vibration     1          0.597              1.972              4.389
 Vibration     2          0.599              1.966              4.022
 Vibration     3          0.601              1.960              3.800
 Vibration     4          0.612              1.924              2.950
 Vibration     5          0.612              1.923              2.948
 Vibration     6          0.614              1.917              2.848
 Vibration     7          0.615              1.912              2.784
 Vibration     8          0.628              1.870              2.356
 Vibration     9          0.632              1.860              2.272
 Vibration    10          0.656              1.784              1.825
 Vibration    11          0.657              1.781              1.810
 Vibration    12          0.685              1.695              1.482
 Vibration    13          0.701              1.648              1.344
 Vibration    14          0.713              1.615              1.258
 Vibration    15          0.726              1.579              1.175
 Vibration    16          0.731              1.565              1.144
 Vibration    17          0.742              1.534              1.080
 Vibration    18          0.783              1.426              0.890
 Vibration    19          0.799              1.387              0.832
 Vibration    20          0.813              1.350              0.781
 Vibration    21          0.826              1.318              0.739
 Vibration    22          0.864              1.230              0.636
 Vibration    23          0.922              1.105              0.512
 Vibration    24          0.932              1.083              0.493

 Optimization completed.
    -- Stationary point found.
 Normal termination of Gaussian 16 at Fri Jan 19 07:28:52 2024.
