 Q-Chem 5.4, Q-Chem, Inc., Pleasanton, CA (2021)
 Q-Chem 5.4.0 for Intel X86 EM64T Linux

User input:
--------------------------------------------------------------
$molecule
-1 2
C                 -1.5376510000      2.7865880000     -0.0587490000
C                 -2.7976480000      2.2108830000     -0.0250230000
C                 -2.9056640000      0.7936780000      0.0468690000
C                 -0.3571680000      2.0203130000     -0.0245820000
C                 -0.4644870000      0.6121780000      0.0468390000
C                 -1.7474720000      0.0336620000      0.0809180000
C                  0.9531950000      2.6852440000     -0.0632110000
C                  2.1146760000      1.8205620000     -0.0243610000
C                  2.0091010000      0.4351550000      0.0457710000
C                  0.7300320000     -0.2435770000      0.0852630000
O                  1.0422430000      3.9444490000     -0.1269450000
O                  0.6273280000     -1.5017350000      0.1492080000
C                  3.4658190000      2.4918130000     -0.0635980000
C                  3.2429460000     -0.4330730000      0.0843850000
H                 -1.4239480000      3.8644040000     -0.1135070000
C                 -4.0344820000      3.0789010000     -0.0642900000
C                 -4.2597720000      0.1230940000      0.0856280000
H                  3.3297620000      3.5722650000     -0.1166590000
H                  4.0555340000      2.1687050000     -0.9311390000
H                  4.0632600000      2.2557840000      0.8264020000
H                  3.8749790000     -0.2034170000      0.9519130000
H                  3.8690960000     -0.2899460000     -0.8056760000
H                  2.9447300000     -1.4804520000      0.1370570000
H                 -1.7984880000     -1.0489320000      0.1357430000
H                 -3.7614270000      4.1352030000     -0.1184340000
H                 -4.6617720000      2.9412740000      0.8254060000
H                 -4.6679940000      2.8528380000     -0.9312080000
H                 -4.8521200000      0.4425830000      0.9522550000
H                 -4.1499470000     -0.9623830000      0.1398750000
H                 -4.8585350000      0.3541680000     -0.8043590000
$end

$rem
BASIS  =  6-311++G(d,p)
GUI  =  2
JOB_TYPE  =  SP
METHOD  =  B3LYP
SCF_CONVERGENCE  = 8
SOLVENT_METHOD = sm12
$end

$smx
solvent dimethylformamide
charges CM5
$end

--------------------------------------------------------------

             Standard Nuclear Orientation (Angstroms)
    I     Atom           X                Y                Z
 ----------------------------------------------------------------
    1      C      -1.5376510000     2.7865880000    -0.0587490000
    2      C      -2.7976480000     2.2108830000    -0.0250230000
    3      C      -2.9056640000     0.7936780000     0.0468690000
    4      C      -0.3571680000     2.0203130000    -0.0245820000
    5      C      -0.4644870000     0.6121780000     0.0468390000
    6      C      -1.7474720000     0.0336620000     0.0809180000
    7      C       0.9531950000     2.6852440000    -0.0632110000
    8      C       2.1146760000     1.8205620000    -0.0243610000
    9      C       2.0091010000     0.4351550000     0.0457710000
   10      C       0.7300320000    -0.2435770000     0.0852630000
   11      O       1.0422430000     3.9444490000    -0.1269450000
   12      O       0.6273280000    -1.5017350000     0.1492080000
   13      C       3.4658190000     2.4918130000    -0.0635980000
   14      C       3.2429460000    -0.4330730000     0.0843850000
   15      H      -1.4239480000     3.8644040000    -0.1135070000
   16      C      -4.0344820000     3.0789010000    -0.0642900000
   17      C      -4.2597720000     0.1230940000     0.0856280000
   18      H       3.3297620000     3.5722650000    -0.1166590000
   19      H       4.0555340000     2.1687050000    -0.9311390000
   20      H       4.0632600000     2.2557840000     0.8264020000
   21      H       3.8749790000    -0.2034170000     0.9519130000
   22      H       3.8690960000    -0.2899460000    -0.8056760000
   23      H       2.9447300000    -1.4804520000     0.1370570000
   24      H      -1.7984880000    -1.0489320000     0.1357430000
   25      H      -3.7614270000     4.1352030000    -0.1184340000
   26      H      -4.6617720000     2.9412740000     0.8254060000
   27      H      -4.6679940000     2.8528380000    -0.9312080000
   28      H      -4.8521200000     0.4425830000     0.9522550000
   29      H      -4.1499470000    -0.9623830000     0.1398750000
   30      H      -4.8585350000     0.3541680000    -0.8043590000
 ----------------------------------------------------------------

   15    -692.6331745836      7.28e-09  Convergence criterion met
 Total energy in the final basis set =     -692.7219522594

                    Orbital Energies (a.u.)
 --------------------------------------------------------------

 Alpha MOs
 -- Occupied --
-19.0711 -19.0711 -10.2173 -10.2172 -10.1839 -10.1834 -10.1715 -10.1710
-10.1706 -10.1706 -10.1699 -10.1697 -10.1697 -10.1694 -10.1623 -10.1623
 -0.9951  -0.9929  -0.8645  -0.8229  -0.7829  -0.7683  -0.7298  -0.7073
 -0.7057  -0.6571  -0.6409  -0.5991  -0.5738  -0.5514  -0.5080  -0.4778
 -0.4769  -0.4421  -0.4408  -0.4350  -0.4296  -0.4237  -0.4047  -0.4020
 -0.4006  -0.3946  -0.3908  -0.3899  -0.3871  -0.3822  -0.3726  -0.3659
 -0.3575  -0.3386  -0.3344  -0.3339  -0.2630  -0.2540  -0.2420  -0.2379
 -0.2310  -0.1490

 Beta MOs
 -- Occupied --
-19.0646 -19.0646 -10.2158 -10.2158 -10.1836 -10.1832 -10.1710 -10.1707
-10.1707 -10.1705 -10.1696 -10.1696 -10.1685 -10.1679 -10.1624 -10.1624
 -0.9839  -0.9814  -0.8631  -0.8182  -0.7817  -0.7673  -0.7264  -0.7059
 -0.7040  -0.6559  -0.6344  -0.5987  -0.5708  -0.5481  -0.5065  -0.4760
 -0.4747  -0.4389  -0.4380  -0.4324  -0.4290  -0.4214  -0.4011  -0.3986
 -0.3972  -0.3901  -0.3888  -0.3867  -0.3849  -0.3816  -0.3710  -0.3561
 -0.3420  -0.3372  -0.3322  -0.3236  -0.2475  -0.2374  -0.2360  -0.2306
 -0.2251

          Ground-State Mulliken Net Atomic Charges

     Atom                 Charge (a.u.)    Spin (a.u.)
  --------------------------------------------------------
      1 C                    -0.629097       0.026223
      2 C                     1.837871       0.028081
      3 C                     1.830954       0.027972
      4 C                    -2.262827       0.024560
      5 C                    -2.264447       0.024511
      6 C                    -0.629802       0.026270
      7 C                    -2.242030       0.072955
      8 C                    -0.340775       0.099472
      9 C                    -0.334641       0.099382
     10 C                    -2.242029       0.073012
     11 O                    -0.322240       0.241473
     12 O                    -0.321862       0.241487
     13 C                     0.512006       0.000769
     14 C                     0.515645       0.000723
     15 H                     0.015673      -0.002936
     16 C                     1.481850      -0.001640
     17 C                     1.478134      -0.001623
     18 H                     0.192619      -0.001920
     19 H                     0.207846       0.005099
     20 H                     0.207892       0.005077
     21 H                     0.207738       0.005114
     22 H                     0.207835       0.005077
     23 H                     0.193004      -0.001920
     24 H                     0.015817      -0.002930
     25 H                     0.344910       0.000161
     26 H                     0.248836       0.001350
     27 H                     0.248789       0.001350
     28 H                     0.248929       0.001347
     29 H                     0.344489       0.000158
     30 H                     0.248910       0.001346
  --------------------------------------------------------
  Sum of atomic charges =    -1.000000

                    Cartesian Multipole Moments
 -----------------------------------------------------------------
    Charge (ESU x 10^10)
                -4.8032
    Dipole Moment (Debye)
         X      -4.3138      Y      -5.8432      Z      -0.0541
       Tot       7.2632
    Quadrupole Moments (Debye-Ang)
        XX    -101.1816     XY      -8.0913     YY    -141.4350
        XZ       0.0795     YZ       1.6061     ZZ    -101.3547

 Total job time:  807.92s(wall), 5637.40s(cpu)
        *  Thank you very much for using Q-Chem.  Have a nice day.  *
