 Q-Chem 5.4, Q-Chem, Inc., Pleasanton, CA (2021)
 Q-Chem 5.4.0 for Intel X86 EM64T Linux

User input:
--------------------------------------------------------------
$molecule
-2 1
C                  1.0440440000      1.1929830000      1.4438280000
C                 -0.1156830000      0.3524970000      1.4453120000
C                 -0.2976900000     -0.7224420000      0.5842310000
C                  0.7019840000     -1.0788980000     -0.3937000000
C                  1.8781140000     -0.2366090000     -0.4168860000
C                  2.0441850000      0.8430750000      0.4544030000
C                  3.2873640000      1.6995390000      0.4030120000
C                  2.9475000000     -0.5896870000     -1.4247260000
O                  1.1875720000      2.1834450000      2.2601780000
O                  0.5514970000     -2.0913770000     -1.1818800000
C                 -1.5333720000     -1.5983910000      0.6780780000
C                 -2.5342600000     -1.3716770000     -0.4287800000
C                 -3.8613860000     -1.1912620000     -0.3417610000
C                 -4.6536710000     -1.1521370000      0.9437990000
C                 -4.7092610000     -0.9788650000     -1.5769440000
H                 -0.8887080000      0.5989290000      2.1728700000
H                  3.4220380000      2.1839370000     -0.5770520000
H                  4.2056210000      1.1205520000      0.5886260000
H                  3.2012320000      2.4750390000      1.1681340000
H                  2.6105530000     -1.4570730000     -1.9971800000
H                  3.9086920000     -0.8362120000     -0.9461300000
H                  3.1540320000      0.2363090000     -2.1223430000
H                 -2.0005350000     -1.4657050000      1.6593540000
H                 -1.2029580000     -2.6456970000      0.5989150000
H                 -2.0812990000     -1.3831670000     -1.4177020000
H                 -4.0384090000     -1.3107410000      1.8306160000
H                 -5.4443220000     -1.9148250000      0.9420770000
H                 -5.1672130000     -0.1852800000      1.0552780000
H                 -4.1108430000     -1.0074800000     -2.4915090000
H                 -5.2331230000     -0.0107610000     -1.5420110000
H                 -5.4973560000     -1.7404880000     -1.6633570000
$end

$rem
BASIS  =  6-311++G(d,p)
GUI  =  2
JOB_TYPE  =  SP
METHOD  =  B3LYP
SCF_CONVERGENCE  = 8
SOLVENT_METHOD = sm12
$end

$smx
solvent dimethylformamide
charges CM5
$end

--------------------------------------------------------------

             Standard Nuclear Orientation (Angstroms)
    I     Atom           X                Y                Z
 ----------------------------------------------------------------
    1      C       1.0440440000     1.1929830000     1.4438280000
    2      C      -0.1156830000     0.3524970000     1.4453120000
    3      C      -0.2976900000    -0.7224420000     0.5842310000
    4      C       0.7019840000    -1.0788980000    -0.3937000000
    5      C       1.8781140000    -0.2366090000    -0.4168860000
    6      C       2.0441850000     0.8430750000     0.4544030000
    7      C       3.2873640000     1.6995390000     0.4030120000
    8      C       2.9475000000    -0.5896870000    -1.4247260000
    9      O       1.1875720000     2.1834450000     2.2601780000
   10      O       0.5514970000    -2.0913770000    -1.1818800000
   11      C      -1.5333720000    -1.5983910000     0.6780780000
   12      C      -2.5342600000    -1.3716770000    -0.4287800000
   13      C      -3.8613860000    -1.1912620000    -0.3417610000
   14      C      -4.6536710000    -1.1521370000     0.9437990000
   15      C      -4.7092610000    -0.9788650000    -1.5769440000
   16      H      -0.8887080000     0.5989290000     2.1728700000
   17      H       3.4220380000     2.1839370000    -0.5770520000
   18      H       4.2056210000     1.1205520000     0.5886260000
   19      H       3.2012320000     2.4750390000     1.1681340000
   20      H       2.6105530000    -1.4570730000    -1.9971800000
   21      H       3.9086920000    -0.8362120000    -0.9461300000
   22      H       3.1540320000     0.2363090000    -2.1223430000
   23      H      -2.0005350000    -1.4657050000     1.6593540000
   24      H      -1.2029580000    -2.6456970000     0.5989150000
   25      H      -2.0812990000    -1.3831670000    -1.4177020000
   26      H      -4.0384090000    -1.3107410000     1.8306160000
   27      H      -5.4443220000    -1.9148250000     0.9420770000
   28      H      -5.1672130000    -0.1852800000     1.0552780000
   29      H      -4.1108430000    -1.0074800000    -2.4915090000
   30      H      -5.2331230000    -0.0107610000    -1.5420110000
   31      H      -5.4973560000    -1.7404880000    -1.6633570000
 ----------------------------------------------------------------

   20    -655.5722234217      7.76e-09  Convergence criterion met
 Total energy in the final basis set =     -655.8704820050

                    Orbital Energies (a.u.)
 --------------------------------------------------------------

 Alpha MOs
 -- Occupied --
-19.0170 -19.0162 -10.1792 -10.1756 -10.1723 -10.1715 -10.1705 -10.1693
-10.1655 -10.1651 -10.1641 -10.1411 -10.1400 -10.1396 -10.1323  -0.9340
 -0.9307  -0.8200  -0.7995  -0.7720  -0.7225  -0.7193  -0.6977  -0.6611
 -0.6425  -0.6127  -0.5449  -0.5265  -0.5144  -0.4762  -0.4598  -0.4417
 -0.4360  -0.4297  -0.4264  -0.4050  -0.3986  -0.3978  -0.3875  -0.3850
 -0.3817  -0.3762  -0.3713  -0.3628  -0.3528  -0.3442  -0.3329  -0.3214
 -0.3180  -0.3075  -0.2430  -0.2236  -0.2160  -0.1974  -0.1911  -0.1173

          Ground-State Mulliken Net Atomic Charges

     Atom                 Charge (a.u.)
  ----------------------------------------
      1 C                    -1.705343
      2 C                    -2.089230
      3 C                    -0.429555
      4 C                    -2.047866
      5 C                    -1.139967
      6 C                    -0.613515
      7 C                     0.680044
      8 C                     0.689675
      9 O                    -0.380678
     10 O                    -0.296187
     11 C                     0.800102
     12 C                    -3.795491
     13 C                     3.700254
     14 C                     0.984693
     15 C                     0.996391
     16 H                    -0.224297
     17 H                     0.193757
     18 H                     0.202533
     19 H                     0.183110
     20 H                     0.194064
     21 H                     0.182735
     22 H                     0.192444
     23 H                    -0.060455
     24 H                     0.073436
     25 H                    -0.017516
     26 H                     0.448135
     27 H                     0.240779
     28 H                     0.195393
     29 H                     0.355555
     30 H                     0.228551
     31 H                     0.258450
  ----------------------------------------
  Sum of atomic charges =    -2.000000

                    Cartesian Multipole Moments
 -----------------------------------------------------------------
    Charge (ESU x 10^10)
                -9.6064
    Dipole Moment (Debye)
         X      -8.1004      Y      -0.4052      Z      -5.0941
       Tot       9.5776
    Quadrupole Moments (Debye-Ang)
        XX    -127.5356     XY     -10.4530     YY    -142.1610
        XZ      -4.7338     YZ     -27.1171     ZZ    -131.0631

 Total job time:  854.57s(wall), 6647.91s(cpu)
        *  Thank you very much for using Q-Chem.  Have a nice day.  *
