 Q-Chem 5.4, Q-Chem, Inc., Pleasanton, CA (2021)
 Q-Chem 5.4.0 for Intel X86 EM64T Linux

User input:
--------------------------------------------------------------
$molecule
-1 2
O                  4.8728980000     -0.8947290000      0.0190890000
C                  3.6514870000     -0.2648620000      0.0585130000
C                  3.5770730000      1.1310370000      0.1256070000
C                  2.3393530000      1.7539740000      0.1649160000
C                  1.1487720000      1.0095120000      0.1386880000
C                 -0.1462570000      1.7167670000      0.1824440000
O                 -0.1747300000      2.9582790000      0.2417220000
C                 -1.3609100000      0.8804300000      0.1517490000
C                 -2.6594320000      1.4492670000      0.1886510000
O                 -2.8166500000      2.8139140000      0.2549790000
C                 -3.7882940000      0.6391620000      0.1584140000
C                 -3.6864980000     -0.7553580000      0.0910310000
C                 -2.4426360000     -1.3594450000      0.0528740000
O                 -2.3815940000     -2.7118320000     -0.0121360000
C                 -1.2571140000     -0.5573600000      0.0823170000
C                  0.0238900000     -1.2077970000      0.0415740000
O                  0.1247440000     -2.5125000000     -0.0216090000
C                  1.2177030000     -0.4067440000      0.0706340000
C                  2.4909330000     -1.0291860000      0.0310790000
O                  2.6421060000     -2.3817180000     -0.0344220000
H                  4.6832750000     -1.8429090000     -0.0244030000
H                  4.4988760000      1.7020960000      0.1456740000
H                  2.2568800000      2.8322680000      0.2169220000
H                 -3.7638170000      2.9875430000      0.2702770000
H                 -4.7719330000      1.1033990000      0.1879880000
H                 -4.5716800000     -1.3804170000      0.0678040000
H                 -1.4068290000     -2.9341390000     -0.0297380000
H                  1.7003840000     -2.7386520000     -0.0437830000
$end

$rem
BASIS  =  6-311++G(d,p)
GUI  =  2
JOB_TYPE  =  SP
METHOD  =  B3LYP
SCF_CONVERGENCE  = 8
SOLVENT_METHOD = sm12
$end

$smx
solvent dimethylformamide
charges CM5
$end

--------------------------------------------------------------

             Standard Nuclear Orientation (Angstroms)
    I     Atom           X                Y                Z
 ----------------------------------------------------------------
    1      O       4.8728980000    -0.8947290000     0.0190890000
    2      C       3.6514870000    -0.2648620000     0.0585130000
    3      C       3.5770730000     1.1310370000     0.1256070000
    4      C       2.3393530000     1.7539740000     0.1649160000
    5      C       1.1487720000     1.0095120000     0.1386880000
    6      C      -0.1462570000     1.7167670000     0.1824440000
    7      O      -0.1747300000     2.9582790000     0.2417220000
    8      C      -1.3609100000     0.8804300000     0.1517490000
    9      C      -2.6594320000     1.4492670000     0.1886510000
   10      O      -2.8166500000     2.8139140000     0.2549790000
   11      C      -3.7882940000     0.6391620000     0.1584140000
   12      C      -3.6864980000    -0.7553580000     0.0910310000
   13      C      -2.4426360000    -1.3594450000     0.0528740000
   14      O      -2.3815940000    -2.7118320000    -0.0121360000
   15      C      -1.2571140000    -0.5573600000     0.0823170000
   16      C       0.0238900000    -1.2077970000     0.0415740000
   17      O       0.1247440000    -2.5125000000    -0.0216090000
   18      C       1.2177030000    -0.4067440000     0.0706340000
   19      C       2.4909330000    -1.0291860000     0.0310790000
   20      O       2.6421060000    -2.3817180000    -0.0344220000
   21      H       4.6832750000    -1.8429090000    -0.0244030000
   22      H       4.4988760000     1.7020960000     0.1456740000
   23      H       2.2568800000     2.8322680000     0.2169220000
   24      H      -3.7638170000     2.9875430000     0.2702770000
   25      H      -4.7719330000     1.1033990000     0.1879880000
   26      H      -4.5716800000    -1.3804170000     0.0678040000
   27      H      -1.4068290000    -2.9341390000    -0.0297380000
   28      H       1.7003840000    -2.7386520000    -0.0437830000
 ----------------------------------------------------------------

   18    -990.0311786556      8.44e-09  Convergence criterion met
 Total energy in the final basis set =     -990.1238973237

                    Orbital Energies (a.u.)
 --------------------------------------------------------------

 Alpha MOs
 -- Occupied --
-19.1587 -19.1504 -19.1440 -19.1302 -19.1024 -19.0753 -10.2393 -10.2390
-10.2384 -10.2359 -10.2356 -10.2352 -10.1869 -10.1860 -10.1850 -10.1819
-10.1807 -10.1776 -10.1756 -10.1755  -1.0794  -1.0620  -1.0566  -1.0478
 -1.0075  -1.0053  -0.8670  -0.8517  -0.7957  -0.7551  -0.7480  -0.7404
 -0.6805  -0.6554  -0.6499  -0.6084  -0.5932  -0.5629  -0.5577  -0.5371
 -0.5284  -0.5008  -0.4927  -0.4841  -0.4672  -0.4556  -0.4512  -0.4350
 -0.4308  -0.4305  -0.4190  -0.4092  -0.4046  -0.4024  -0.3923  -0.3911
 -0.3783  -0.3774  -0.3654  -0.3627  -0.3619  -0.3537  -0.3276  -0.3117
 -0.2763  -0.2696  -0.2534  -0.2348  -0.2276  -0.2175  -0.1460

 Beta MOs
 -- Occupied --
-19.1586 -19.1502 -19.1435 -19.1296 -19.0976 -19.0708 -10.2396 -10.2375
-10.2356 -10.2355 -10.2347 -10.2347 -10.1873 -10.1863 -10.1839 -10.1813
-10.1791 -10.1767 -10.1757 -10.1750  -1.0786  -1.0616  -1.0543  -1.0468
 -0.9999  -0.9974  -0.8646  -0.8501  -0.7918  -0.7530  -0.7456  -0.7383
 -0.6738  -0.6539  -0.6479  -0.6070  -0.5912  -0.5616  -0.5570  -0.5357
 -0.5272  -0.4994  -0.4900  -0.4831  -0.4656  -0.4547  -0.4443  -0.4337
 -0.4283  -0.4260  -0.4177  -0.4062  -0.4007  -0.3967  -0.3903  -0.3841
 -0.3764  -0.3708  -0.3647  -0.3607  -0.3520  -0.3492  -0.3211  -0.3043
 -0.2661  -0.2601  -0.2490  -0.2306  -0.2178  -0.2095

          Ground-State Mulliken Net Atomic Charges

     Atom                 Charge (a.u.)    Spin (a.u.)
  --------------------------------------------------------
      1 O                    -0.197474       0.004280
      2 C                     0.724764       0.021945
      3 C                     0.841597       0.051028
      4 C                    -0.079144       0.008143
      5 C                    -0.723606       0.062311
      6 C                    -1.828281       0.007914
      7 O                    -0.297320       0.172691
      8 C                    -0.778263       0.067047
      9 C                     0.209896       0.000467
     10 O                    -0.154832       0.004619
     11 C                     1.792673       0.121070
     12 C                     0.975502       0.033190
     13 C                    -0.334939       0.082387
     14 O                    -0.357392       0.020215
     15 C                    -0.724505      -0.057130
     16 C                    -1.481550       0.204831
     17 O                    -0.434969       0.169115
     18 C                    -0.570692      -0.049313
     19 C                     0.218068       0.084307
     20 O                    -0.395010       0.015364
     21 H                     0.332170      -0.000102
     22 H                     0.315235      -0.003916
     23 H                     0.149319      -0.000812
     24 H                     0.351032      -0.000522
     25 H                     0.359976      -0.009756
     26 H                     0.270015      -0.003709
     27 H                     0.378025      -0.002906
     28 H                     0.439705      -0.002757
  --------------------------------------------------------
  Sum of atomic charges =    -1.000000

                    Cartesian Multipole Moments
 -----------------------------------------------------------------
    Charge (ESU x 10^10)
                -4.8032
    Dipole Moment (Debye)
         X      -2.6362      Y      -0.2789      Z      -0.4665
       Tot       2.6917
    Quadrupole Moments (Debye-Ang)
        XX    -131.1422     XY      -7.6876     YY    -149.0462
        XZ      -0.5448     YZ      -1.3071     ZZ    -121.1443

 Total job time:  811.47s(wall), 6280.53s(cpu)
        *  Thank you very much for using Q-Chem.  Have a nice day.  *
