 Q-Chem 5.4, Q-Chem, Inc., Pleasanton, CA (2021)
 Q-Chem 5.4.0 for Intel X86 EM64T Linux

User input:
--------------------------------------------------------------
$molecule
-1 2
C                  5.8055240000     -5.2071590000      1.1294160000
C                  6.5995600000     -5.2376630000     -0.0042490000
C                  6.3666000000     -4.3208210000     -1.0486830000
C                  4.7618810000     -4.2728410000      1.2591830000
C                  4.5271270000     -3.3490480000      0.2079680000
C                  5.3472970000     -3.3933430000     -0.9398340000
C                  3.9525590000     -4.2682440000      2.4948440000
C                  2.9112700000     -3.2687680000      2.5341620000
C                  2.6254960000     -2.3879540000      1.5007090000
C                  3.4458950000     -2.3783360000      0.2925030000
O                  4.1843500000     -5.0666960000      3.4294000000
O                  3.1979690000     -1.5447380000     -0.6285350000
H                  5.9622760000     -5.8970030000      1.9505780000
H                  7.4006040000     -5.9659410000     -0.0889390000
H                  5.1466760000     -2.6774320000     -1.7284820000
Cl                 2.0262680000     -3.1643990000      4.0674910000
H                  6.9886640000     -4.3431030000     -1.9387730000
N                  1.6272160000     -1.4051400000      1.5157600000
C                  0.2195450000     -1.7808640000      1.6736180000
C                 -0.6641400000     -0.5338160000      1.7214490000
C                 -2.1535310000     -0.8687040000      1.8451990000
H                  1.7562390000     -0.8847210000      0.6468600000
H                  0.0990650000     -2.3483570000      2.5961910000
H                 -0.1123280000     -2.4337290000      0.8474630000
H                 -0.4964220000      0.0636330000      0.8163610000
H                 -0.3444360000      0.0862480000      2.5655160000
H                 -2.4992360000     -1.4660470000      0.9950030000
H                 -2.7650650000      0.0381860000      1.8840410000
H                 -2.3542620000     -1.4441820000      2.7548310000
$end

$rem
BASIS  =  6-311++G(d,p)
GUI  =  2
JOB_TYPE  =  SP
METHOD  =  B3LYP
SCF_CONVERGENCE  = 8
SOLVENT_METHOD = sm12
$end

$smx
solvent dimethylformamide
charges CM5
$end

--------------------------------------------------------------

             Standard Nuclear Orientation (Angstroms)
    I     Atom           X                Y                Z
 ----------------------------------------------------------------
    1      C       5.8055240000    -5.2071590000     1.1294160000
    2      C       6.5995600000    -5.2376630000    -0.0042490000
    3      C       6.3666000000    -4.3208210000    -1.0486830000
    4      C       4.7618810000    -4.2728410000     1.2591830000
    5      C       4.5271270000    -3.3490480000     0.2079680000
    6      C       5.3472970000    -3.3933430000    -0.9398340000
    7      C       3.9525590000    -4.2682440000     2.4948440000
    8      C       2.9112700000    -3.2687680000     2.5341620000
    9      C       2.6254960000    -2.3879540000     1.5007090000
   10      C       3.4458950000    -2.3783360000     0.2925030000
   11      O       4.1843500000    -5.0666960000     3.4294000000
   12      O       3.1979690000    -1.5447380000    -0.6285350000
   13      H       5.9622760000    -5.8970030000     1.9505780000
   14      H       7.4006040000    -5.9659410000    -0.0889390000
   15      H       5.1466760000    -2.6774320000    -1.7284820000
   16      Cl      2.0262680000    -3.1643990000     4.0674910000
   17      H       6.9886640000    -4.3431030000    -1.9387730000
   18      N       1.6272160000    -1.4051400000     1.5157600000
   19      C       0.2195450000    -1.7808640000     1.6736180000
   20      C      -0.6641400000    -0.5338160000     1.7214490000
   21      C      -2.1535310000    -0.8687040000     1.8451990000
   22      H       1.7562390000    -0.8847210000     0.6468600000
   23      H       0.0990650000    -2.3483570000     2.5961910000
   24      H      -0.1123280000    -2.4337290000     0.8474630000
   25      H      -0.4964220000     0.0636330000     0.8163610000
   26      H      -0.3444360000     0.0862480000     2.5655160000
   27      H      -2.4992360000    -1.4660470000     0.9950030000
   28      H      -2.7650650000     0.0381860000     1.8840410000
   29      H      -2.3542620000    -1.4441820000     2.7548310000
 ----------------------------------------------------------------

   18   -1168.2991188277      6.04e-09  Convergence criterion met
 Total energy in the final basis set =    -1168.3820389362

                    Orbital Energies (a.u.)
 --------------------------------------------------------------

 Alpha MOs
 -- Occupied --
******** -19.0838 -19.0753 -14.3152 -10.2313 -10.2266 -10.2160 -10.2136
-10.1979 -10.1829 -10.1821 -10.1819 -10.1815 -10.1795 -10.1793 -10.1700
-10.1619  -9.4563  -7.2206  -7.2116  -7.2108  -1.0102  -1.0044  -0.9273
 -0.8668  -0.8533  -0.7980  -0.7796  -0.7590  -0.7308  -0.6866  -0.6638
 -0.6217  -0.6060  -0.5951  -0.5697  -0.5325  -0.5107  -0.4864  -0.4771
 -0.4689  -0.4572  -0.4406  -0.4349  -0.4268  -0.4220  -0.4138  -0.4105
 -0.3983  -0.3939  -0.3816  -0.3718  -0.3685  -0.3580  -0.3484  -0.3471
 -0.3410  -0.3307  -0.2989  -0.2903  -0.2694  -0.2646  -0.2544  -0.2420
 -0.2225  -0.1528

 Beta MOs
 -- Occupied --
******** -19.0770 -19.0698 -14.3146 -10.2303 -10.2245 -10.2153 -10.2122
-10.1978 -10.1828 -10.1814 -10.1813 -10.1806 -10.1795 -10.1792 -10.1700
-10.1619  -9.4563  -7.2207  -7.2115  -7.2108  -0.9992  -0.9947  -0.9247
 -0.8646  -0.8523  -0.7950  -0.7782  -0.7570  -0.7291  -0.6831  -0.6583
 -0.6204  -0.6037  -0.5941  -0.5671  -0.5308  -0.5086  -0.4841  -0.4761
 -0.4676  -0.4560  -0.4377  -0.4329  -0.4222  -0.4167  -0.4113  -0.4046
 -0.3962  -0.3900  -0.3700  -0.3673  -0.3634  -0.3534  -0.3459  -0.3442
 -0.3401  -0.3220  -0.2985  -0.2816  -0.2575  -0.2524  -0.2483  -0.2366
 -0.2132

          Ground-State Mulliken Net Atomic Charges

     Atom                 Charge (a.u.)    Spin (a.u.)
  --------------------------------------------------------
      1 C                    -0.051807       0.003582
      2 C                     0.811437       0.058235
      3 C                     0.890818       0.011248
      4 C                    -0.823262       0.073311
      5 C                    -0.746025       0.001226
      6 C                     0.086914       0.063556
      7 C                    -1.587377       0.049244
      8 C                     0.790289       0.033687
      9 C                    -0.786254       0.094152
     10 C                    -1.743364       0.134752
     11 O                    -0.312371       0.205370
     12 O                    -0.293124       0.257278
     13 H                     0.144888      -0.000715
     14 H                     0.349521      -0.004239
     15 H                     0.175122      -0.003652
     16 Cl                    0.721847       0.002196
     17 H                     0.353494      -0.001027
     18 N                     0.146011       0.021757
     19 C                    -0.653963       0.000193
     20 C                     0.387179      -0.005583
     21 C                    -0.074430      -0.000848
     22 H                     0.270926      -0.000026
     23 H                     0.058433       0.002652
     24 H                     0.090841       0.004071
     25 H                     0.131530      -0.000858
     26 H                     0.102473       0.000672
     27 H                     0.152221       0.000207
     28 H                     0.260987      -0.000064
     29 H                     0.147046      -0.000377
  --------------------------------------------------------
  Sum of atomic charges =    -1.000000

                    Cartesian Multipole Moments
 -----------------------------------------------------------------
    Charge (ESU x 10^10)
                -4.8032
    Dipole Moment (Debye)
         X     -18.1016      Y      16.3292      Z      -9.0793
       Tot      26.0143
    Quadrupole Moments (Debye-Ang)
        XX    -180.0174     XY      62.6589     YY    -181.4883
        XZ     -34.1884     YZ      42.5984     ZZ    -150.9074

 Total job time:  765.71s(wall), 5917.68s(cpu)
        *  Thank you very much for using Q-Chem.  Have a nice day.  *
