 Gaussian 16, Revision A.03,
 Gaussian 16:  ES64L-G16RevA.03 25-Dec-2016

 ----------------------------------------------------------------------
 #P UB3LYP/6-311++G(d,p) nosym opt freq SCRF=(PCM,Solvent=n,n-DiMethylF
 ormamide)
 ----------------------------------------------------------------------

 -------
 Reduced
 -------
 Symbolic Z-matrix:
 Charge = -2 Multiplicity = 1

 SCF Done:  E(UB3LYP) =  -991.407102147     A.U. after   14 cycles
 SCF Done:  E(UB3LYP) =  -991.408402186     A.U. after   12 cycles
 SCF Done:  E(UB3LYP) =  -991.408725345     A.U. after   11 cycles
 SCF Done:  E(UB3LYP) =  -991.408800273     A.U. after   11 cycles
 SCF Done:  E(UB3LYP) =  -991.408824211     A.U. after   10 cycles
 SCF Done:  E(UB3LYP) =  -991.408831216     A.U. after    9 cycles
 Optimization completed.
    -- Stationary point found.
 Normal termination of Gaussian 16 at Sun Feb 11 02:39:10 2024.

 ----------------------------------------------------------------------
 #P Geom=AllCheck Guess=TCheck SCRF=Check GenChk UB3LYP/6-311++G(d,p) F
 req
 ----------------------------------------------------------------------

 Structure from the checkpoint file:  "264-an.chk"
 -------
 Reduced
 -------
 Charge = -2 Multiplicity = 1

                          Input orientation:
 ---------------------------------------------------------------------
 Center     Atomic      Atomic             Coordinates (Angstroms)
 Number     Number       Type             X           Y           Z
 ---------------------------------------------------------------------
      1          6           0        4.809999   -0.618063    0.162372
      2          6           0        3.439227   -0.374420   -0.461875
      3          8           0        3.343636   -0.212589   -1.711359
      4          8           0        2.594243   -1.561023    0.061426
      5          6           0        1.251222   -1.399214   -0.082281
      6          6           0        0.406621   -2.475003   -0.283470
      7          6           0       -0.996993   -2.291100   -0.364456
      8          6           0       -1.551782   -1.027832   -0.277693
      9          8           0       -2.889897   -0.823934   -0.412914
     10          6           0       -3.439225    0.374486    0.397799
     11          6           0       -4.809992    0.618081   -0.226476
     12          8           0       -3.343660    0.212626    1.647283
     13          6           0       -0.701973    0.093087   -0.081403
     14          6           0       -1.251217    1.399194    0.018222
     15          8           0       -2.594242    1.561009   -0.125483
     16          6           0       -0.406622    2.474989    0.219394
     17          6           0        0.996991    2.291086    0.300374
     18          6           0        1.551772    1.027816    0.213618
     19          8           0        2.889898    0.823923    0.348833
     20          6           0        0.701972   -0.093107    0.017344
     21          1           0        5.245373   -1.515984   -0.281276
     22          1           0        5.457234    0.231174   -0.066784
     23          1           0        4.754431   -0.744060    1.244597
     24          1           0        0.826523   -3.471742   -0.365406
     25          1           0       -1.646891   -3.147269   -0.510133
     26          1           0       -4.754404    0.744097   -1.308698
     27          1           0       -5.245414    1.515977    0.217176
     28          1           0       -5.457196   -0.231187    0.002649
     29          1           0       -0.826527    3.471727    0.301322
     30          1           0        1.646893    3.147255    0.446036
 ---------------------------------------------------------------------

 SCF Done:  E(UB3LYP) =  -991.408831216     A.U. after    1 cycles

 Alpha  occ. eigenvalues --  -19.11139 -19.11138 -19.11136 -19.11135 -19.03544
 Alpha  occ. eigenvalues --  -19.03543 -10.28567 -10.28567 -10.21005 -10.21004
 Alpha  occ. eigenvalues --  -10.21002 -10.21001 -10.16568 -10.16522 -10.15667
 Alpha  occ. eigenvalues --  -10.15667 -10.15621 -10.15621 -10.14494 -10.14494
 Alpha  occ. eigenvalues --   -1.05705  -1.05601  -0.99496  -0.99385  -0.95192
 Alpha  occ. eigenvalues --   -0.95027  -0.84986  -0.79871  -0.75363  -0.73385
 Alpha  occ. eigenvalues --   -0.72052  -0.69678  -0.68686  -0.62793  -0.60834
 Alpha  occ. eigenvalues --   -0.59861  -0.55472  -0.53570  -0.52014  -0.50454
 Alpha  occ. eigenvalues --   -0.48777  -0.48374  -0.44258  -0.44199  -0.43555
 Alpha  occ. eigenvalues --   -0.43449  -0.42144  -0.40758  -0.40719  -0.40571
 Alpha  occ. eigenvalues --   -0.38956  -0.38560  -0.38059  -0.37680  -0.36873
 Alpha  occ. eigenvalues --   -0.36716  -0.36675  -0.35862  -0.35793  -0.34708
 Alpha  occ. eigenvalues --   -0.32981  -0.30713  -0.29271  -0.28758  -0.25709
 Alpha  occ. eigenvalues --   -0.24581  -0.24076  -0.23268  -0.22595  -0.22330
 Alpha  occ. eigenvalues --   -0.21221  -0.15977
 Alpha virt. eigenvalues --   -0.01371  -0.01112   0.00090   0.00665   0.01291
 Alpha virt. eigenvalues --    0.02006   0.03143   0.03340   0.03619   0.04330
 Alpha virt. eigenvalues --    0.04363   0.04799   0.05818   0.06084   0.06358

  Beta  occ. eigenvalues --  -19.11139 -19.11138 -19.11136 -19.11135 -19.03544
  Beta  occ. eigenvalues --  -19.03543 -10.28567 -10.28567 -10.21005 -10.21004
  Beta  occ. eigenvalues --  -10.21002 -10.21001 -10.16568 -10.16522 -10.15667
  Beta  occ. eigenvalues --  -10.15667 -10.15621 -10.15621 -10.14494 -10.14494
  Beta  occ. eigenvalues --   -1.05705  -1.05601  -0.99496  -0.99385  -0.95192
  Beta  occ. eigenvalues --   -0.95027  -0.84986  -0.79871  -0.75363  -0.73385
  Beta  occ. eigenvalues --   -0.72052  -0.69678  -0.68686  -0.62793  -0.60834
  Beta  occ. eigenvalues --   -0.59861  -0.55472  -0.53570  -0.52014  -0.50454
  Beta  occ. eigenvalues --   -0.48777  -0.48374  -0.44258  -0.44199  -0.43555
  Beta  occ. eigenvalues --   -0.43449  -0.42144  -0.40758  -0.40719  -0.40571
  Beta  occ. eigenvalues --   -0.38956  -0.38560  -0.38059  -0.37680  -0.36873
  Beta  occ. eigenvalues --   -0.36716  -0.36675  -0.35862  -0.35793  -0.34708
  Beta  occ. eigenvalues --   -0.32981  -0.30713  -0.29271  -0.28758  -0.25709
  Beta  occ. eigenvalues --   -0.24581  -0.24076  -0.23268  -0.22595  -0.22330
  Beta  occ. eigenvalues --   -0.21221  -0.15977
  Beta virt. eigenvalues --   -0.01371  -0.01112   0.00090   0.00665   0.01291
  Beta virt. eigenvalues --    0.02006   0.03143   0.03340   0.03619   0.04330
  Beta virt. eigenvalues --    0.04363   0.04799   0.05818   0.06084   0.06358

 Mulliken charges and spin densities:
               1          2
     1  C   -0.366096   0.000000
     2  C   -0.499712  -0.000000
     3  O   -0.495489   0.000000
     4  O   -0.186499   0.000000
     5  C   -0.171034  -0.000000
     6  C   -0.237792   0.000000
     7  C   -0.240699  -0.000000
     8  C   -0.168012  -0.000000
     9  O   -0.186147  -0.000000
    10  C   -0.499709  -0.000000
    11  C   -0.366095  -0.000000
    12  O   -0.495494   0.000000
    13  C    0.693048   0.000000
    14  C   -0.170974  -0.000000
    15  O   -0.186455   0.000000
    16  C   -0.237847   0.000000
    17  C   -0.240701  -0.000000
    18  C   -0.167967  -0.000000
    19  O   -0.186112   0.000000
    20  C    0.693022   0.000000
    21  H    0.166310  -0.000000
    22  H    0.166494   0.000000
    23  H    0.165285  -0.000000
    24  H    0.180139   0.000000
    25  H    0.180151  -0.000000
    26  H    0.165285   0.000000
    27  H    0.166306  -0.000000
    28  H    0.166499   0.000000
    29  H    0.180142   0.000000
    30  H    0.180154  -0.000000
 Sum of Mulliken charges =  -2.00000  -0.00000

 Dipole moment (field-independent basis, Debye):
    X=              0.0001    Y=              0.0005    Z=              0.3077  Tot=              0.3077
 Quadrupole moment (field-independent basis, Debye-Ang):
   XX=           -201.7250   YY=           -129.2830   ZZ=           -147.3273
   XY=              5.4342   XZ=             30.1194   YZ=             -1.4854

  Exact polarizability: 364.426  -1.963 339.834  -6.632  19.314 191.156
 Approx polarizability: 385.390   0.934 394.390   4.197  21.712 216.091

                      1                      2                      3
                      A                      A                      A
 Frequencies --     54.1700                82.1011                95.4590
 Red. masses --      5.0520                10.0601                 7.4261
 Frc consts  --      0.0087                 0.0400                 0.0399
 IR Inten    --      9.1595                 5.5939                 0.0000

                      4                      5                      6
                      A                      A                      A
 Frequencies --    124.1166               149.6094               191.5135
 Red. masses --      7.0759                 4.6097                 2.4628
 Frc consts  --      0.0642                 0.0608                 0.0532
 IR Inten    --      0.0000                12.1751                48.1208

                      7                      8                      9
                      A                      A                      A
 Frequencies --    210.1546               214.6224               219.5574
 Red. masses --      1.0849                 8.0854                 1.2471
 Frc consts  --      0.0282                 0.2194                 0.0354
 IR Inten    --      0.0000                 6.0867                14.2655

                     10                     11                     12
                      A                      A                      A
 Frequencies --    269.3927               275.0625               284.4158
 Red. masses --      2.9236                 4.2168                 4.3708
 Frc consts  --      0.1250                 0.1880                 0.2083
 IR Inten    --      0.0000                 0.0000                28.9394

                     13                     14                     15
                      A                      A                      A
 Frequencies --    286.8280               350.3372               373.7213
 Red. masses --      8.1041                 4.0473                 7.6329
 Frc consts  --      0.3928                 0.2927                 0.6281
 IR Inten    --      0.0001                20.9717                 0.0000

                     16                     17                     18
                      A                      A                      A
 Frequencies --    384.1034               428.0733               449.6872
 Red. masses --      6.3318                 7.9647                 8.0531
 Frc consts  --      0.5504                 0.8599                 0.9595
 IR Inten    --      3.5379               168.1683                 0.0000

                     19                     20                     21
                      A                      A                      A
 Frequencies --    466.8857               482.3616               507.2747
 Red. masses --      3.7409                 5.5718                 8.7575
 Frc consts  --      0.4804                 0.7638                 1.3278
 IR Inten    --      0.0000                 0.0000                 0.0006

                     22                     23                     24
                      A                      A                      A
 Frequencies --    514.4384               521.3367               535.7442
 Red. masses --      7.7997                 4.4543                 5.9598
 Frc consts  --      1.2162                 0.7133                 1.0079
 IR Inten    --    225.5966                 0.0001               215.8865

                     25                     26                     27
                      A                      A                      A
 Frequencies --    557.9428               562.3603               575.9890
 Red. masses --      8.5480                 6.5141                 5.3662
 Frc consts  --      1.5678                 1.2138                 1.0489
 IR Inten    --     51.9599                 0.0011                 0.0000

                     28                     29                     30
                      A                      A                      A
 Frequencies --    595.8549               613.4364               615.9374
 Red. masses --      4.3044                 6.3662                 4.8353
 Frc consts  --      0.9004                 1.4115                 1.0808
 IR Inten    --    142.2775               294.7193                 0.0000

                     31                     32                     33
                      A                      A                      A
 Frequencies --    658.7989               669.9257               699.0735
 Red. masses --      6.0272                 4.3778                 4.2706
 Frc consts  --      1.5412                 1.1576                 1.2296
 IR Inten    --      0.0000                 0.7419               356.0304

                     34                     35                     36
                      A                      A                      A
 Frequencies --    702.8692               726.8111               759.7526
 Red. masses --      8.3499                 3.8573                 6.1931
 Frc consts  --      2.4304                 1.2005                 2.1062
 IR Inten    --      0.0000               349.5218                 0.0000

                     37                     38                     39
                      A                      A                      A
 Frequencies --    784.1774               807.3057               819.1520
 Red. masses --      5.2521                 8.9414                 1.5613
 Frc consts  --      1.9029                 3.4335                 0.6173
 IR Inten    --    156.6050                 0.0000                 0.0000

                     40                     41                     42
                      A                      A                      A
 Frequencies --    829.7002               902.3244               907.9208
 Red. masses --      1.7992                 1.3913                 1.3504
 Frc consts  --      0.7297                 0.6674                 0.6559
 IR Inten    --    214.9528                 0.1093                 0.0000

                     43                     44                     45
                      A                      A                      A
 Frequencies --    946.2151               960.5164               980.0418
 Red. masses --      6.8534                 3.1916                 3.0759
 Frc consts  --      3.6152                 1.7349                 1.7406
 IR Inten    --    415.4070                11.3434              1028.0929

                     46                     47                     48
                      A                      A                      A
 Frequencies --    982.7558              1036.7042              1058.9587
 Red. masses --      2.4923                 1.6148                 1.7148
 Frc consts  --      1.4182                 1.0225                 1.1330
 IR Inten    --      0.0000                 0.0000               234.8554

                     49                     50                     51
                      A                      A                      A
 Frequencies --   1092.2125              1093.5713              1106.5515
 Red. masses --      1.4196                 2.1763                 2.2187
 Frc consts  --      0.9977                 1.5334                 1.6006
 IR Inten    --      0.0001              1160.0813                 0.0000

                     52                     53                     54
                      A                      A                      A
 Frequencies --   1144.6934              1173.2272              1244.0589
 Red. masses --      1.6835                 2.6309                 2.9932
 Frc consts  --      1.2997                 2.1337                 2.7294
 IR Inten    --     22.4276                 0.0000                 0.0000

                     55                     56                     57
                      A                      A                      A
 Frequencies --   1244.7339              1257.1345              1278.7506
 Red. masses --      9.3215                 4.1039                 1.7690
 Frc consts  --      8.5092                 3.8213                 1.7043
 IR Inten    --      0.0000                57.2662               317.9918

                     58                     59                     60
                      A                      A                      A
 Frequencies --   1338.5699              1373.3535              1376.4051
 Red. masses --      9.8684                 1.4480                 1.4107
 Frc consts  --     10.4179                 1.6091                 1.5746
 IR Inten    --     33.9522               320.8961                 0.0000

                     61                     62                     63
                      A                      A                      A
 Frequencies --   1379.1654              1407.9748              1411.8478
 Red. masses --      2.9999                 3.7574                11.3872
 Frc consts  --      3.3619                 4.3887                13.3734
 IR Inten    --      0.0000               643.1458                 0.0000

                     64                     65                     66
                      A                      A                      A
 Frequencies --   1456.8165              1462.0387              1467.3031
 Red. masses --      1.9827                 1.2310                 2.3203
 Frc consts  --      2.4793                 1.5503                 2.9433
 IR Inten    --      0.0000               281.5541                 0.0000

                     67                     68                     69
                      A                      A                      A
 Frequencies --   1474.9866              1475.3060              1477.4823
 Red. masses --      1.7686                 1.0510                 1.1944
 Frc consts  --      2.2671                 1.3478                 1.5362
 IR Inten    --      0.0000                12.4647                 0.0000

                     70                     71                     72
                      A                      A                      A
 Frequencies --   1488.0050              1525.7654              1609.6128
 Red. masses --      3.8156                 5.4933                 6.1478
 Frc consts  --      4.9777                 7.5346                 9.3845
 IR Inten    --   1091.2218                23.3018               327.6502

                     73                     74                     75
                      A                      A                      A
 Frequencies --   1633.7108              1640.6702              3040.6782
 Red. masses --      8.7832                 8.9778                 1.0343
 Frc consts  --     13.8120                14.2384                 5.6340
 IR Inten    --      0.0000                 0.0000                65.1486

                     76                     77                     78
                      A                      A                      A
 Frequencies --   3040.7200              3110.9660              3110.9793
 Red. masses --      1.0342                 1.1022                 1.1022
 Frc consts  --      5.6341                 6.2848                 6.2848
 IR Inten    --      0.0002                 0.2273                75.0930

                     79                     80                     81
                      A                      A                      A
 Frequencies --   3117.2124              3117.2193              3162.2285
 Red. masses --      1.1035                 1.1035                 1.0870
 Frc consts  --      6.3177                 6.3178                 6.4043
 IR Inten    --     97.1577                 2.2122                72.8596

                     82                     83                     84
                      A                      A                      A
 Frequencies --   3162.5310              3177.1695              3177.6102
 Red. masses --      1.0875                 1.0936                 1.0931
 Frc consts  --      6.4085                 6.5040                 6.5028
 IR Inten    --      0.0041                67.5608                 0.0015

 - Thermochemistry -
 -------------------
 Temperature   298.150 Kelvin.  Pressure   1.00000 Atm.
 Atom     1 has atomic number  6 and mass  12.00000

 Molecular mass:   274.04774 amu.
 Principal axes and moments of inertia in atomic units:
                           1         2         3
     Eigenvalues --  2111.709767519.703368950.79417
           X            0.99101   0.12220   0.05438
           Y           -0.11445   0.98514  -0.12806
           Z           -0.06922   0.12069   0.99027
 This molecule is an asymmetric top.
 Rotational symmetry number  1.
 Warning -- assumption of classical behavior for rotation
           may cause significant error
 Rotational temperatures (Kelvin)      0.04102     0.01152     0.00968
 Rotational constants (GHZ):           0.85464     0.24000     0.20163
 Zero-point vibrational energy     556722.6 (Joules/Mol)
                                  133.05990 (Kcal/Mol)
 Warning -- explicit consideration of  30 degrees of freedom as
           vibrations may cause significant error
 Vibrational temperatures:     77.94   118.13   137.34   178.58   215.25
          (Kelvin)            275.55   302.37   308.79   315.89   387.60
                              395.75   409.21   412.68   504.06   537.70
                              552.64   615.90   647.00   671.74   694.01
                              729.86   740.16   750.09   770.82   802.76
                              809.11   828.72   857.30   882.60   886.20
                              947.86   963.87  1005.81  1011.27  1045.72
                             1093.11  1128.26  1161.53  1178.58  1193.75
                             1298.24  1306.30  1361.39  1381.97  1410.06
                             1413.97  1491.59  1523.61  1571.45  1573.41
                             1592.08  1646.96  1688.01  1789.92  1790.89
                             1808.74  1839.84  1925.90  1975.95  1980.34
                             1984.31  2025.76  2031.33  2096.03  2103.55
                             2111.12  2122.18  2122.64  2125.77  2140.91
                             2195.24  2315.87  2350.55  2360.56  4374.86
                             4374.92  4475.99  4476.01  4484.97  4484.98
                             4549.74  4550.18  4571.24  4571.87

 Zero-point correction=                           0.212044 (Hartree/Particle)
 Thermal correction to Energy=                    0.228009
 Thermal correction to Enthalpy=                  0.228953
 Thermal correction to Gibbs Free Energy=         0.170044
 Sum of electronic and zero-point Energies=           -991.196787
 Sum of electronic and thermal Energies=              -991.180822
 Sum of electronic and thermal Enthalpies=            -991.179878
 Sum of electronic and thermal Free Energies=         -991.238787

                     E (Thermal)             CV                S
                      KCal/Mol        Cal/Mol-Kelvin    Cal/Mol-Kelvin
 Total                  143.078             65.272            123.984
 Electronic               0.000              0.000              0.000
 Translational            0.889              2.981             42.723
 Rotational               0.889              2.981             33.319
 Vibrational            141.300             59.311             47.943
 Vibration     1          0.596              1.976              4.659
 Vibration     2          0.600              1.961              3.840
 Vibration     3          0.603              1.952              3.545
 Vibration     4          0.610              1.929              3.035
 Vibration     5          0.618              1.903              2.677
 Vibration     6          0.634              1.852              2.213
 Vibration     7          0.642              1.825              2.042
 Vibration     8          0.645              1.819              2.004
 Vibration     9          0.647              1.811              1.963
 Vibration    10          0.674              1.729              1.600
 Vibration    11          0.677              1.719              1.564
 Vibration    12          0.683              1.703              1.507
 Vibration    13          0.684              1.698              1.493
 Vibration    14          0.727              1.575              1.165
 Vibration    15          0.745              1.526              1.064
 Vibration    16          0.753              1.504              1.023
 Vibration    17          0.790              1.409              0.865
 Vibration    18          0.809              1.362              0.797
 Vibration    19          0.824              1.324              0.746
 Vibration    20          0.839              1.289              0.704
 Vibration    21          0.862              1.234              0.640
 Vibration    22          0.869              1.218              0.623
 Vibration    23          0.876              1.203              0.607
 Vibration    24          0.891              1.171              0.575
 Vibration    25          0.913              1.122              0.528
 Vibration    26          0.918              1.113              0.519
 Vibration    27          0.932              1.083              0.493
 Vibration    28          0.954              1.041              0.457
 Vibration    29          0.973              1.003              0.427
 Vibration    30          0.976              0.998              0.423

                           ! Non-Optimized Parameters !
 Normal termination of Gaussian 16 at Sun Feb 11 03:28:57 2024.
