 Gaussian 16, Revision A.03,
 Gaussian 16:  ES64L-G16RevA.03 25-Dec-2016

 ----------------------------------------------------------------------
 #P UB3LYP/6-311++G(d,p) nosym opt freq SCRF=(PCM,Solvent=n,n-DiMethylF
 ormamide)
 ----------------------------------------------------------------------

 -------
 Reduced
 -------
 Symbolic Z-matrix:
 Charge = -2 Multiplicity = 1

 SCF Done:  E(UB3LYP) =  -778.908826254     A.U. after   14 cycles
 SCF Done:  E(UB3LYP) =  -778.909297814     A.U. after   11 cycles
 SCF Done:  E(UB3LYP) =  -778.909378687     A.U. after   11 cycles
 SCF Done:  E(UB3LYP) =  -778.909382853     A.U. after   10 cycles
 Optimization completed.
    -- Stationary point found.
 Normal termination of Gaussian 16 at Sat Feb 10 10:08:25 2024.

 ----------------------------------------------------------------------
 #P Geom=AllCheck Guess=TCheck SCRF=Check GenChk UB3LYP/6-311++G(d,p) F
 req
 ----------------------------------------------------------------------

 Structure from the checkpoint file:  "028-an.chk"
 -------
 Reduced
 -------
 Charge = -2 Multiplicity = 1

                          Input orientation:
 ---------------------------------------------------------------------
 Center     Atomic      Atomic             Coordinates (Angstroms)
 Number     Number       Type             X           Y           Z
 ---------------------------------------------------------------------
      1          9           0       -2.675961    0.558670   -0.014702
      2          6           0       -1.337523    0.238137   -0.007199
      3          6           0       -0.428128    1.288483   -0.017280
      4          9           0       -0.936818    2.566737   -0.034873
      5          6           0        0.983013    1.136038   -0.010533
      6          8           0        1.832714    2.120543   -0.019222
      7          6           0        1.337523   -0.238137    0.007152
      8          6           0        0.428128   -1.288485    0.017231
      9          9           0        0.936818   -2.566735    0.035038
     10          6           0       -0.983012   -1.136041    0.010267
     11          8           0       -1.832715   -2.120541    0.019244
     12          9           0        2.675962   -0.558669    0.014877
 ---------------------------------------------------------------------

 SCF Done:  E(UB3LYP) =  -778.909382853     A.U. after    1 cycles

 Alpha  occ. eigenvalues --  -24.66983 -24.66983 -24.66977 -24.66977 -19.02985
 Alpha  occ. eigenvalues --  -19.02984 -10.21954 -10.21952 -10.21899 -10.21898
 Alpha  occ. eigenvalues --  -10.19429 -10.19427  -1.20804  -1.20745  -1.19419
 Alpha  occ. eigenvalues --   -1.19375  -0.94205  -0.93834  -0.81494  -0.71918
 Alpha  occ. eigenvalues --   -0.68535  -0.60366  -0.59319  -0.52831  -0.52412
 Alpha  occ. eigenvalues --   -0.52024  -0.48845  -0.46941  -0.45819  -0.45381
 Alpha  occ. eigenvalues --   -0.43431  -0.42881  -0.41073  -0.40400  -0.37648
 Alpha  occ. eigenvalues --   -0.37509  -0.36276  -0.34670  -0.34614  -0.32022
 Alpha  occ. eigenvalues --   -0.23628  -0.21561  -0.21434  -0.21324  -0.13619
 Alpha virt. eigenvalues --   -0.00739   0.03001   0.03089   0.03141   0.05828
 Alpha virt. eigenvalues --    0.06030   0.06138   0.06856   0.08541   0.08872
 Alpha virt. eigenvalues --    0.09718   0.09742   0.09946   0.11711   0.13153

  Beta  occ. eigenvalues --  -24.66983 -24.66983 -24.66977 -24.66977 -19.02985
  Beta  occ. eigenvalues --  -19.02984 -10.21954 -10.21952 -10.21899 -10.21898
  Beta  occ. eigenvalues --  -10.19429 -10.19427  -1.20804  -1.20745  -1.19419
  Beta  occ. eigenvalues --   -1.19375  -0.94205  -0.93834  -0.81494  -0.71918
  Beta  occ. eigenvalues --   -0.68535  -0.60366  -0.59319  -0.52831  -0.52412
  Beta  occ. eigenvalues --   -0.52024  -0.48845  -0.46941  -0.45819  -0.45381
  Beta  occ. eigenvalues --   -0.43431  -0.42881  -0.41073  -0.40400  -0.37648
  Beta  occ. eigenvalues --   -0.37509  -0.36276  -0.34670  -0.34614  -0.32022
  Beta  occ. eigenvalues --   -0.23628  -0.21561  -0.21434  -0.21324  -0.13619
  Beta virt. eigenvalues --   -0.00739   0.03001   0.03089   0.03141   0.05828
  Beta virt. eigenvalues --    0.06030   0.06138   0.06856   0.08541   0.08872
  Beta virt. eigenvalues --    0.09718   0.09742   0.09946   0.11711   0.13153

 Mulliken charges and spin densities:
               1          2
     1  F   -0.272820   0.000000
     2  C    0.098053  -0.000000
     3  C    0.098258   0.000000
     4  F   -0.272240  -0.000000
     5  C    0.093352   0.000000
     6  O   -0.744614  -0.000000
     7  C    0.098062   0.000000
     8  C    0.098248   0.000000
     9  F   -0.272240  -0.000000
    10  C    0.093376  -0.000000
    11  O   -0.744614   0.000000
    12  F   -0.272821  -0.000000
 Sum of Mulliken charges =  -2.00000  -0.00000

 Dipole moment (field-independent basis, Debye):
    X=             -0.0000    Y=             -0.0000    Z=             -0.0003  Tot=              0.0003
 Quadrupole moment (field-independent basis, Debye-Ang):
   XX=           -111.1744   YY=           -117.4138   ZZ=            -68.7395
   XY=            -21.3817   XZ=              0.1169   YZ=              0.5169

  Exact polarizability: 150.467  27.979 158.570  -0.058  -1.015  67.389
 Approx polarizability: 177.524  27.419 185.532   0.019  -1.257  73.933

                      1                      2                      3
                      A                      A                      A
 Frequencies --    126.4355               137.5837               176.7023
 Red. masses --     16.6765                18.3639                17.6891
 Frc consts  --      0.1571                 0.2048                 0.3254
 IR Inten    --     15.9514                 1.7318                 0.0000

                      4                      5                      6
                      A                      A                      A
 Frequencies --    199.6572               280.7052               288.9966
 Red. masses --     13.7586                12.5486                18.5039
 Frc consts  --      0.3231                 0.5826                 0.9105
 IR Inten    --     11.9874                 0.0000                 0.0000

                      7                      8                      9
                      A                      A                      A
 Frequencies --    302.9120               310.3760               324.8054
 Red. masses --     18.5983                16.7522                17.1007
 Frc consts  --      1.0054                 0.9508                 1.0629
 IR Inten    --      0.0206                 0.0000                 0.9722

                     10                     11                     12
                      A                      A                      A
 Frequencies --    336.6662               361.9720               443.4712
 Red. masses --     16.1967                12.6087                16.0875
 Frc consts  --      1.0816                 0.9734                 1.8641
 IR Inten    --      5.8909                 0.0000                 0.0000

                     13                     14                     15
                      A                      A                      A
 Frequencies --    448.8913               556.5615               596.5567
 Red. masses --     15.6117                15.6597                16.8557
 Frc consts  --      1.8535                 2.8580                 3.5343
 IR Inten    --      0.0000                 0.0000                12.2638

                     16                     17                     18
                      A                      A                      A
 Frequencies --    603.8714               706.4849               720.0959
 Red. masses --     12.1711                12.2173                12.1269
 Frc consts  --      2.6150                 3.5928                 3.7049
 IR Inten    --      0.0038                 3.5593                 0.0000

                     19                     20                     21
                      A                      A                      A
 Frequencies --    793.6098               922.4595               999.1574
 Red. masses --     12.6006                14.2726                13.6635
 Frc consts  --      4.6758                 7.1556                 8.0368
 IR Inten    --      0.0000               617.5586               731.9944

                     22                     23                     24
                      A                      A                      A
 Frequencies --   1021.1862              1161.5411              1185.4124
 Red. masses --     13.5918                13.3340                12.0513
 Frc consts  --      8.3510                10.5993                 9.9776
 IR Inten    --      0.0000                 0.0000               442.4339

                     25                     26                     27
                      A                      A                      A
 Frequencies --   1261.4536              1437.5329              1444.7140
 Red. masses --     12.5617                12.3613                12.8425
 Frc consts  --     11.7772                15.0505                15.7929
 IR Inten    --     57.9605              2370.7049                 0.0000

                     28                     29                     30
                      A                      A                      A
 Frequencies --   1473.4712              1497.3825              1654.6125
 Red. masses --     12.1662                12.0219                12.0443
 Frc consts  --     15.5628                15.8814                19.4278
 IR Inten    --    164.1763                 0.0000                 0.0000

 - Thermochemistry -
 -------------------
 Temperature   298.150 Kelvin.  Pressure   1.00000 Atm.
 Atom     1 has atomic number  9 and mass  18.99840

 Molecular mass:   179.98344 amu.
 Principal axes and moments of inertia in atomic units:
                           1         2         3
     Eigenvalues --  1652.402011781.894753434.29639
           X            0.75542   0.65523  -0.00324
           Y           -0.65516   0.75540   0.01219
           Z            0.01043  -0.00709   0.99992
 This molecule is an asymmetric top.
 Rotational symmetry number  1.
 Warning -- assumption of classical behavior for rotation
           may cause significant error
 Rotational temperatures (Kelvin)      0.05242     0.04861     0.02522
 Rotational constants (GHZ):           1.09219     1.01282     0.52551
 Zero-point vibrational energy     130245.1 (Joules/Mol)
                                   31.12932 (Kcal/Mol)
 Warning -- explicit consideration of  16 degrees of freedom as
           vibrations may cause significant error
 Vibrational temperatures:    181.91   197.95   254.24   287.26   403.87
          (Kelvin)            415.80   435.82   446.56   467.32   484.39
                              520.80   638.06   645.85   800.77   858.31
                              868.84  1016.47  1036.06  1141.83  1327.21
                             1437.56  1469.26  1671.20  1705.54  1814.95
                             2068.29  2078.62  2120.00  2154.40  2380.62

 Zero-point correction=                           0.049608 (Hartree/Particle)
 Thermal correction to Energy=                    0.059299
 Thermal correction to Enthalpy=                  0.060243
 Thermal correction to Gibbs Free Energy=         0.014522
 Sum of electronic and zero-point Energies=           -778.859775
 Sum of electronic and thermal Energies=              -778.850084
 Sum of electronic and thermal Enthalpies=            -778.849140
 Sum of electronic and thermal Free Energies=         -778.894861

                     E (Thermal)             CV                S
                      KCal/Mol        Cal/Mol-Kelvin    Cal/Mol-Kelvin
 Total                   37.210             35.417             96.228
 Electronic               0.000              0.000              0.000
 Translational            0.889              2.981             41.470
 Rotational               0.889              2.981             30.692
 Vibrational             35.433             29.456             24.065
 Vibration     1          0.611              1.927              3.000
 Vibration     2          0.614              1.916              2.837
 Vibration     3          0.628              1.871              2.363
 Vibration     4          0.638              1.840              2.136
 Vibration     5          0.680              1.709              1.529
 Vibration     6          0.686              1.694              1.480
 Vibration     7          0.694              1.668              1.401
 Vibration     8          0.699              1.654              1.360
 Vibration     9          0.709              1.626              1.286
 Vibration    10          0.717              1.602              1.228
 Vibration    11          0.736              1.551              1.114
 Vibration    12          0.803              1.375              0.816
 Vibration    13          0.808              1.363              0.799
 Vibration    14          0.912              1.125              0.531
 Vibration    15          0.954              1.039              0.456
 Vibration    16          0.962              1.024              0.443

 Optimization completed.
    -- Stationary point found.
 Normal termination of Gaussian 16 at Sat Feb 10 10:16:32 2024.
