 Gaussian 16, Revision A.03,
 Gaussian 16:  ES64L-G16RevA.03 25-Dec-2016

 ----------------------------------------------------------------------
 #P UB3LYP/6-311++G(d,p) nosym opt freq SCRF=(PCM,Solvent=n,n-DiMethylF
 ormamide)
 ----------------------------------------------------------------------

 -------
 Reduced
 -------
 Symbolic Z-matrix:
 Charge = -2 Multiplicity = 1

 SCF Done:  E(UB3LYP) =  -712.455313531     A.U. after   17 cycles
 SCF Done:  E(UB3LYP) =  -712.457664478     A.U. after   14 cycles
 SCF Done:  E(UB3LYP) =  -712.458015927     A.U. after   14 cycles
 SCF Done:  E(UB3LYP) =  -712.457506828     A.U. after   13 cycles
 SCF Done:  E(UB3LYP) =  -712.458062225     A.U. after   14 cycles
 SCF Done:  E(UB3LYP) =  -712.458365223     A.U. after   14 cycles
 SCF Done:  E(UB3LYP) =  -712.458396963     A.U. after   12 cycles
 SCF Done:  E(UB3LYP) =  -712.458411784     A.U. after   13 cycles
 SCF Done:  E(UB3LYP) =  -712.458421643     A.U. after   12 cycles
 SCF Done:  E(UB3LYP) =  -712.458423464     A.U. after   11 cycles
 SCF Done:  E(UB3LYP) =  -712.458423872     A.U. after   10 cycles
 Optimization completed.
    -- Stationary point found.
 Normal termination of Gaussian 16 at Sat Feb 10 14:01:36 2024.

 ----------------------------------------------------------------------
 #P Geom=AllCheck Guess=TCheck SCRF=Check GenChk UB3LYP/6-311++G(d,p) F
 req
 ----------------------------------------------------------------------

 Structure from the checkpoint file:  "104-an.chk"
 -------
 Reduced
 -------
 Charge = -2 Multiplicity = 1

                          Input orientation:
 ---------------------------------------------------------------------
 Center     Atomic      Atomic             Coordinates (Angstroms)
 Number     Number       Type             X           Y           Z
 ---------------------------------------------------------------------
      1          6           0       -2.379294   -2.353421    5.082275
      2          6           0       -1.400000   -3.238929    4.547859
      3          6           0       -1.365295   -3.502544    3.155639
      4          6           0       -2.257815   -2.932460    2.214438
      5          6           0       -3.236920   -2.055730    2.765255
      6          6           0       -3.302856   -1.783346    4.134266
      7          8           0       -2.496662   -2.011774    6.359810
      8          8           0       -2.200464   -3.192545    0.917228
      9          7           0       -4.282208   -0.944174    4.709078
     10          6           0       -4.854748    0.189945    3.981650
     11          6           0       -6.182898   -0.180983    3.302479
     12          6           0       -5.053039    1.366991    4.942308
     13          1           0       -3.953595   -1.605180    2.083480
     14          1           0       -3.969133   -0.734542    5.654532
     15          1           0       -4.151609    0.504508    3.194929
     16          1           0       -6.558720    0.651780    2.698465
     17          1           0       -6.937666   -0.427377    4.056705
     18          1           0       -6.064671   -1.047876    2.649306
     19          1           0       -5.511739    2.216361    4.429193
     20          1           0       -4.099288    1.697870    5.363351
     21          1           0       -5.710935    1.079527    5.769871
     22          6           0       -0.371443   -3.897864    5.495386
     23          6           0       -1.108928   -4.741901    6.562271
     24          6           0        0.617748   -4.834494    4.773646
     25          6           0        0.463539   -2.803162    6.201589
     26          1           0       -0.616885   -4.180618    2.758264
     27          1           0       -1.824039   -4.118346    7.099852
     28          1           0       -0.397300   -5.172869    7.277824
     29          1           0       -1.649332   -5.569428    6.089393
     30          1           0        1.311117   -5.262127    5.506042
     31          1           0        1.213185   -4.304775    4.024348
     32          1           0        0.109075   -5.664730    4.274959
     33          1           0       -0.199732   -2.108364    6.717483
     34          1           0        1.059141   -2.245005    5.470738
     35          1           0        1.155886   -3.248050    6.927472
 ---------------------------------------------------------------------

 SCF Done:  E(UB3LYP) =  -712.458423872     A.U. after    2 cycles

 Alpha  occ. eigenvalues --  -19.00401 -19.00259 -14.27680 -10.18899 -10.15900
 Alpha  occ. eigenvalues --  -10.15604 -10.15131 -10.15109 -10.15052 -10.14524
 Alpha  occ. eigenvalues --  -10.13721 -10.12975 -10.12973 -10.12060 -10.10643
 Alpha  occ. eigenvalues --  -10.10070  -0.91806  -0.90285  -0.87902  -0.79553
 Alpha  occ. eigenvalues --   -0.76738  -0.73795  -0.68040  -0.66982  -0.66319
 Alpha  occ. eigenvalues --   -0.65925  -0.62986  -0.58490  -0.55190  -0.52907
 Alpha  occ. eigenvalues --   -0.49457  -0.46334  -0.45145  -0.43565  -0.42311
 Alpha  occ. eigenvalues --   -0.41730  -0.41466  -0.41247  -0.39156  -0.38492
 Alpha  occ. eigenvalues --   -0.37647  -0.37411  -0.36728  -0.35396  -0.34878
 Alpha  occ. eigenvalues --   -0.34386  -0.34083  -0.33338  -0.32907  -0.32328
 Alpha  occ. eigenvalues --   -0.31110  -0.30780  -0.30063  -0.29457  -0.28632
 Alpha  occ. eigenvalues --   -0.24941  -0.20566  -0.18535  -0.18255  -0.17159
 Alpha  occ. eigenvalues --   -0.10559
 Alpha virt. eigenvalues --   -0.00157   0.00543   0.01481   0.01746   0.02424
 Alpha virt. eigenvalues --    0.02626   0.02889   0.03706   0.04062   0.04320
 Alpha virt. eigenvalues --    0.04553   0.04746   0.05547   0.05688   0.05990

  Beta  occ. eigenvalues --  -19.00401 -19.00259 -14.27680 -10.18899 -10.15900
  Beta  occ. eigenvalues --  -10.15604 -10.15131 -10.15109 -10.15052 -10.14524
  Beta  occ. eigenvalues --  -10.13721 -10.12975 -10.12973 -10.12060 -10.10643
  Beta  occ. eigenvalues --  -10.10070  -0.91806  -0.90285  -0.87902  -0.79553
  Beta  occ. eigenvalues --   -0.76738  -0.73795  -0.68040  -0.66982  -0.66319
  Beta  occ. eigenvalues --   -0.65925  -0.62986  -0.58490  -0.55190  -0.52907
  Beta  occ. eigenvalues --   -0.49457  -0.46334  -0.45145  -0.43565  -0.42311
  Beta  occ. eigenvalues --   -0.41730  -0.41466  -0.41247  -0.39156  -0.38492
  Beta  occ. eigenvalues --   -0.37647  -0.37411  -0.36728  -0.35396  -0.34878
  Beta  occ. eigenvalues --   -0.34386  -0.34083  -0.33338  -0.32907  -0.32328
  Beta  occ. eigenvalues --   -0.31110  -0.30780  -0.30063  -0.29457  -0.28632
  Beta  occ. eigenvalues --   -0.24941  -0.20566  -0.18535  -0.18255  -0.17159
  Beta  occ. eigenvalues --   -0.10559
  Beta virt. eigenvalues --   -0.00157   0.00543   0.01481   0.01746   0.02424
  Beta virt. eigenvalues --    0.02626   0.02889   0.03706   0.04062   0.04320
  Beta virt. eigenvalues --    0.04553   0.04746   0.05547   0.05688   0.05990

 Mulliken charges and spin densities:
               1          2
     1  C   -1.734152   0.000000
     2  C    1.095451  -0.000000
     3  C   -0.451185  -0.000000
     4  C   -0.570577  -0.000000
     5  C    1.025463  -0.000000
     6  C   -0.409863  -0.000000
     7  O   -0.678254  -0.000000
     8  O   -0.767610  -0.000000
     9  N   -0.052485   0.000000
    10  C   -0.021376   0.000000
    11  C   -0.416255  -0.000000
    12  C   -0.651065  -0.000000
    13  H    0.154421  -0.000000
    14  H    0.319505  -0.000000
    15  H    0.128261   0.000000
    16  H    0.127542  -0.000000
    17  H    0.136654   0.000000
    18  H    0.134678   0.000000
    19  H    0.144806  -0.000000
    20  H    0.153818  -0.000000
    21  H    0.140483   0.000000
    22  C    0.669950   0.000000
    23  C   -0.672416  -0.000000
    24  C   -0.501239   0.000000
    25  C   -0.676420  -0.000000
    26  H    0.121212  -0.000000
    27  H    0.179348  -0.000000
    28  H    0.124583   0.000000
    29  H    0.118137   0.000000
    30  H    0.157141   0.000000
    31  H    0.123519   0.000000
    32  H    0.124086   0.000000
    33  H    0.184655  -0.000000
    34  H    0.114893   0.000000
    35  H    0.124294   0.000000
 Sum of Mulliken charges =  -2.00000  -0.00000

 Dipole moment (field-independent basis, Debye):
    X=             22.2897    Y=             26.9846    Z=            -33.8194  Tot=             48.6698
 Quadrupole moment (field-independent basis, Debye-Ang):
   XX=           -169.7812   YY=           -187.5513   ZZ=           -290.3408
   XY=            -61.4910   XZ=             81.0014   YZ=             84.8081

  Exact polarizability: 280.928 -57.846 259.709   4.297  12.687 315.146
 Approx polarizability: 286.675 -53.367 266.074  -1.339  17.338 340.446

                      1                      2                      3
                      A                      A                      A
 Frequencies --     39.0711                61.6575                78.7200
 Red. masses --      3.5523                 2.6476                 3.5564
 Frc consts  --      0.0032                 0.0059                 0.0130
 IR Inten    --     11.1484                 0.5982                 5.1742

                      4                      5                      6
                      A                      A                      A
 Frequencies --     91.6322               121.5098               170.9597
 Red. masses --      4.0463                 3.8297                 6.3059
 Frc consts  --      0.0200                 0.0333                 0.1086
 IR Inten    --      5.7240                14.3117                10.6826

                      7                      8                      9
                      A                      A                      A
 Frequencies --    188.7669               224.5932               233.9380
 Red. masses --      3.6868                 1.0529                 3.6491
 Frc consts  --      0.0774                 0.0313                 0.1177
 IR Inten    --      3.2091                 1.2432                 0.6806

                     10                     11                     12
                      A                      A                      A
 Frequencies --    250.6374               252.3301               255.4954
 Red. masses --      1.5970                 1.2779                 1.3728
 Frc consts  --      0.0591                 0.0479                 0.0528
 IR Inten    --      1.5469                 2.2189                 2.0501

                     13                     14                     15
                      A                      A                      A
 Frequencies --    278.5761               290.6404               306.2879
 Red. masses --      2.2667                 1.4263                 2.9209
 Frc consts  --      0.1036                 0.0710                 0.1614
 IR Inten    --     11.9882                 4.4472                 2.8045

                     16                     17                     18
                      A                      A                      A
 Frequencies --    329.6836               333.8676               341.1595
 Red. masses --      1.1913                 2.4268                 3.0388
 Frc consts  --      0.0763                 0.1594                 0.2084
 IR Inten    --      4.8511                11.0087                20.4996

                     19                     20                     21
                      A                      A                      A
 Frequencies --    381.3508               399.0754               414.8496
 Red. masses --      3.1652                 3.0218                 2.6738
 Frc consts  --      0.2712                 0.2835                 0.2711
 IR Inten    --      1.7830                 9.4629                 1.6353

                     22                     23                     24
                      A                      A                      A
 Frequencies --    417.8656               443.7025               477.8338
 Red. masses --      3.1013                 4.0228                 3.3981
 Frc consts  --      0.3191                 0.4666                 0.4571
 IR Inten    --      8.4935                 0.2243                 0.4067

                     25                     26                     27
                      A                      A                      A
 Frequencies --    491.5151               537.6531               586.9391
 Red. masses --      4.9293                 3.0731                 3.0372
 Frc consts  --      0.7016                 0.5234                 0.6165
 IR Inten    --      3.3054                 6.1577                23.7609

                     28                     29                     30
                      A                      A                      A
 Frequencies --    627.8067               638.6817               662.9057
 Red. masses --      3.9210                 2.1586                 3.6372
 Frc consts  --      0.9105                 0.5188                 0.9417
 IR Inten    --     10.4441                27.4695                19.9550

                     31                     32                     33
                      A                      A                      A
 Frequencies --    726.4157               772.8848               790.2166
 Red. masses --      1.9922                 5.2543                 1.6571
 Frc consts  --      0.6194                 1.8492                 0.6097
 IR Inten    --    169.5260                11.4255                32.9995

                     34                     35                     36
                      A                      A                      A
 Frequencies --    793.6341               809.2879               814.6082
 Red. masses --      2.9562                 3.8848                 2.2298
 Frc consts  --      1.0970                 1.4991                 0.8718
 IR Inten    --    165.1711                55.4709                85.2660

                     37                     38                     39
                      A                      A                      A
 Frequencies --    848.5693               916.1121               920.7978
 Red. masses --      2.3276                 2.2780                 1.7752
 Frc consts  --      0.9875                 1.1264                 0.8868
 IR Inten    --      5.8885                 8.3023                 0.1032

                     40                     41                     42
                      A                      A                      A
 Frequencies --    927.2504               931.6245               945.2226
 Red. masses --      1.2699                 1.8342                 1.5208
 Frc consts  --      0.6433                 0.9380                 0.8006
 IR Inten    --      9.1364                11.4567                 4.3505

                     43                     44                     45
                      A                      A                      A
 Frequencies --    953.6431               980.3354              1022.6048
 Red. masses --      1.2041                 2.4400                 1.7744
 Frc consts  --      0.6452                 1.3816                 1.0932
 IR Inten    --      0.6300                51.1422                49.6836

                     46                     47                     48
                      A                      A                      A
 Frequencies --   1046.6192              1052.7242              1120.0983
 Red. masses --      1.3913                 1.7410                 1.9287
 Frc consts  --      0.8979                 1.1368                 1.4257
 IR Inten    --      0.6677                 5.8252                13.1136

                     49                     50                     51
                      A                      A                      A
 Frequencies --   1150.5504              1172.4716              1179.8419
 Red. masses --      2.4685                 2.0288                 4.7038
 Frc consts  --      1.9253                 1.6432                 3.8579
 IR Inten    --    217.1500                54.3554               555.6849

                     52                     53                     54
                      A                      A                      A
 Frequencies --   1194.6858              1210.0219              1211.9696
 Red. masses --      2.4198                 2.7222                 2.6738
 Frc consts  --      2.0349                 2.3483                 2.3140
 IR Inten    --     53.6715                11.2161                26.5581

                     55                     56                     57
                      A                      A                      A
 Frequencies --   1234.6640              1246.2888              1262.7118
 Red. masses --      2.3001                 2.1576                 2.8328
 Frc consts  --      2.0659                 1.9745                 2.6612
 IR Inten    --    437.5340               117.6193                92.5850

                     58                     59                     60
                      A                      A                      A
 Frequencies --   1331.6080              1338.8789              1362.3528
 Red. masses --      4.3659                 1.4895                 1.2173
 Frc consts  --      4.5612                 1.5731                 1.3311
 IR Inten    --    131.3237               148.6772                17.4294

                     61                     62                     63
                      A                      A                      A
 Frequencies --   1367.0644              1372.7377              1386.7379
 Red. masses --      1.2565                 1.2446                 1.2558
 Frc consts  --      1.3835                 1.3818                 1.4229
 IR Inten    --     97.4664                19.9802                49.0133

                     64                     65                     66
                      A                      A                      A
 Frequencies --   1394.8268              1403.5494              1410.8323
 Red. masses --      1.4524                 1.2658                 2.0272
 Frc consts  --      1.6649                 1.4691                 2.3774
 IR Inten    --    164.0798                24.6243               225.2757

                     67                     68                     69
                      A                      A                      A
 Frequencies --   1426.8095              1465.1340              1469.3339
 Red. masses --      4.3069                 1.0475                 1.6673
 Frc consts  --      5.1659                 1.3249                 2.1208
 IR Inten    --    431.7869                 0.3382               175.1808

                     70                     71                     72
                      A                      A                      A
 Frequencies --   1478.1153              1479.9570              1484.3660
 Red. masses --      1.1191                 1.0683                 1.0984
 Frc consts  --      1.4406                 1.3786                 1.4259
 IR Inten    --      6.7814                 3.3890                31.8960

                     73                     74                     75
                      A                      A                      A
 Frequencies --   1485.4727              1486.5940              1489.3084
 Red. masses --      1.0659                 1.0564                 1.0588
 Frc consts  --      1.3858                 1.3756                 1.3837
 IR Inten    --      8.6646                15.4616                 3.8254

                     76                     77                     78
                      A                      A                      A
 Frequencies --   1498.2076              1504.4968              1515.4663
 Red. masses --      1.0628                 1.0525                 1.0602
 Frc consts  --      1.4056                 1.4036                 1.4346
 IR Inten    --     23.7102                 5.1565                 2.6712

                     79                     80                     81
                      A                      A                      A
 Frequencies --   1525.2823              1599.7438              2947.8249
 Red. masses --      3.6619                 5.8066                 1.0821
 Frc consts  --      5.0195                 8.7554                 5.5403
 IR Inten    --    266.1379               156.5254                90.9912

                     82                     83                     84
                      A                      A                      A
 Frequencies --   2989.3087              2994.4440              3010.4747
 Red. masses --      1.0399                 1.0397                 1.0360
 Frc consts  --      5.4752                 5.4927                 5.5318
 IR Inten    --     94.8296               144.0862               118.4867

                     85                     86                     87
                      A                      A                      A
 Frequencies --   3010.9532              3016.0077              3044.6871
 Red. masses --      1.0362                 1.0371                 1.0989
 Frc consts  --      5.5348                 5.5582                 6.0022
 IR Inten    --     43.9629                64.5673                63.7724

                     88                     89                     90
                      A                      A                      A
 Frequencies --   3047.8858              3064.9796              3069.9312
 Red. masses --      1.0978                 1.0998                 1.1015
 Frc consts  --      6.0087                 6.0874                 6.1166
 IR Inten    --     87.3834               133.4999                23.9103

                     91                     92                     93
                      A                      A                      A
 Frequencies --   3075.7395              3077.2752              3087.8388
 Red. masses --      1.1004                 1.1016                 1.1017
 Frc consts  --      6.1334                 6.1462                 6.1889
 IR Inten    --    108.5766                80.2397                65.1615

                     94                     95                     96
                      A                      A                      A
 Frequencies --   3097.5028              3107.5212              3109.1503
 Red. masses --      1.0990                 1.0974                 1.0974
 Frc consts  --      6.2126                 6.2436                 6.2501
 IR Inten    --     62.8186                 7.3581                17.5130

                     97                     98                     99
                      A                      A                      A
 Frequencies --   3128.0050              3151.7513              3470.5970
 Red. masses --      1.0877                 1.0854                 1.0740
 Frc consts  --      6.2705                 6.3526                 7.6222
 IR Inten    --     78.2004                75.3817               104.1652

 - Thermochemistry -
 -------------------
 Temperature   298.150 Kelvin.  Pressure   1.00000 Atm.
 Atom     1 has atomic number  6 and mass  12.00000

 Molecular mass:   221.14158 amu.
 Principal axes and moments of inertia in atomic units:
                           1         2         3
     Eigenvalues --  2209.055815518.762327130.20329
           X            0.74690  -0.02084   0.66461
           Y           -0.63377   0.28011   0.72102
           Z            0.20119   0.95974  -0.19600
 This molecule is an asymmetric top.
 Rotational symmetry number  1.
 Warning -- assumption of classical behavior for rotation
           may cause significant error
 Rotational temperatures (Kelvin)      0.03921     0.01569     0.01215
 Rotational constants (GHZ):           0.81697     0.32702     0.25311
 Zero-point vibrational energy     771258.3 (Joules/Mol)
                                  184.33515 (Kcal/Mol)
 Warning -- explicit consideration of  27 degrees of freedom as
           vibrations may cause significant error
 Vibrational temperatures:     56.21    88.71   113.26   131.84   174.83
          (Kelvin)            245.97   271.59   323.14   336.58   360.61
                              363.05   367.60   400.81   418.17   440.68
                              474.34   480.36   490.85   548.68   574.18
                              596.88   601.22   638.39   687.50   707.18
                              773.56   844.47   903.27   918.92   953.77
                             1045.15  1112.01  1136.95  1141.86  1164.38
                             1172.04  1220.90  1318.08  1324.82  1334.11
                             1340.40  1359.96  1372.08  1410.48  1471.30
                             1505.85  1514.64  1611.57  1655.39  1686.93
                             1697.53  1718.89  1740.95  1743.75  1776.41
                             1793.13  1816.76  1915.89  1926.35  1960.12
                             1966.90  1975.06  1995.21  2006.84  2019.39
                             2029.87  2052.86  2108.00  2114.04  2126.68
                             2129.33  2135.67  2137.26  2138.88  2142.78
                             2155.59  2164.64  2180.42  2194.54  2301.67
                             4241.26  4300.95  4308.34  4331.40  4332.09
                             4339.36  4380.63  4385.23  4409.82  4416.95
                             4425.30  4427.51  4442.71  4456.62  4471.03
                             4473.37  4500.50  4534.67  4993.42

 Zero-point correction=                           0.293757 (Hartree/Particle)
 Thermal correction to Energy=                    0.310622
 Thermal correction to Enthalpy=                  0.311566
 Thermal correction to Gibbs Free Energy=         0.250521
 Sum of electronic and zero-point Energies=           -712.164667
 Sum of electronic and thermal Energies=              -712.147802
 Sum of electronic and thermal Enthalpies=            -712.146857
 Sum of electronic and thermal Free Energies=         -712.207902

                     E (Thermal)             CV                S
                      KCal/Mol        Cal/Mol-Kelvin    Cal/Mol-Kelvin
 Total                  194.918             66.089            128.480
 Electronic               0.000              0.000              0.000
 Translational            0.889              2.981             42.084
 Rotational               0.889              2.981             32.830
 Vibrational            193.141             60.127             53.566
 Vibration     1          0.594              1.981              5.306
 Vibration     2          0.597              1.973              4.403
 Vibration     3          0.600              1.963              3.923
 Vibration     4          0.602              1.955              3.625
 Vibration     5          0.609              1.931              3.076
 Vibration     6          0.626              1.878              2.425
 Vibration     7          0.633              1.855              2.240
 Vibration     8          0.649              1.804              1.922
 Vibration     9          0.654              1.789              1.849
 Vibration    10          0.663              1.762              1.726
 Vibration    11          0.664              1.759              1.714
 Vibration    12          0.666              1.754              1.692
 Vibration    13          0.679              1.713              1.542
 Vibration    14          0.687              1.691              1.470
 Vibration    15          0.697              1.662              1.382
 Vibration    16          0.712              1.616              1.262
 Vibration    17          0.715              1.608              1.241
 Vibration    18          0.721              1.593              1.207
 Vibration    19          0.751              1.510              1.034
 Vibration    20          0.765              1.472              0.966
 Vibration    21          0.778              1.438              0.910
 Vibration    22          0.781              1.431              0.899
 Vibration    23          0.803              1.375              0.815
 Vibration    24          0.834              1.299              0.716
 Vibration    25          0.847              1.269              0.680
 Vibration    26          0.893              1.167              0.570
 Vibration    27          0.944              1.060              0.473

                           ! Non-Optimized Parameters !
 Normal termination of Gaussian 16 at Sat Feb 10 15:16:24 2024.
