 Q-Chem 5.4, Q-Chem, Inc., Pleasanton, CA (2021)
 Q-Chem 5.4.0 for Intel X86 EM64T Linux

User input:
--------------------------------------------------------------
$molecule
0 1
C                 -1.8598630000      0.3640130000     -0.1926560000
C                 -2.8275470000      1.0394090000     -0.8482920000
C                 -2.5932400000      2.1217430000     -1.8629370000
C                 -4.2729520000      0.7516500000     -0.5737210000
O                 -5.1395470000      1.4172310000     -1.1258790000
C                 -4.6508410000     -0.3194580000      0.3781070000
C                 -3.6863580000     -0.9923880000      1.0606230000
O                 -3.8198800000     -1.9381110000      1.9946370000
C                 -5.0672680000     -2.5954140000      2.2620760000
C                 -2.2329310000     -0.6800510000      0.8123630000
O                 -1.3769130000     -1.2923120000      1.4217540000
O                 -5.9748080000     -0.4913910000      0.6619600000
C                 -6.8427600000     -0.8897460000     -0.4143130000
H                 -3.1098570000      3.0368540000     -1.5628180000
H                 -3.0199640000      1.8386230000     -2.8297060000
H                 -1.5362410000      2.3418300000     -1.9948100000
H                 -5.4672280000     -3.0511320000      1.3534020000
H                 -4.8168920000     -3.3724000000      2.9825190000
H                 -5.7977090000     -1.9059920000      2.6814030000
H                 -6.8834730000     -0.1248290000     -1.1878790000
H                 -7.8262800000     -1.0186690000      0.0356750000
H                 -6.5068670000     -1.8431320000     -0.8376300000
C                 -0.3789700000      0.5920820000     -0.3606640000
C                  0.1844290000      1.6314790000      0.6311090000
C                  1.6965530000      1.8297820000      0.4834900000
C                  2.2717890000      2.8622030000      1.4596650000
C                  3.7843520000      3.0654660000      1.3154780000
C                  4.3608640000      4.0957050000      2.2932120000
C                  5.8735520000      4.2990960000      2.1509090000
C                  6.4501930000      5.3287870000      3.1288760000
C                  7.9629740000      5.5328880000      2.9882450000
C                  8.5294530000      6.5631520000      3.9696610000
H                 -0.1624290000      0.9087130000     -1.3835120000
H                  0.1364050000     -0.3571170000     -0.1986940000
H                 -0.0437600000      1.3083380000      1.6521580000
H                 -0.3289950000      2.5891940000      0.4839450000
H                  1.9248470000      2.1376930000     -0.5454550000
H                  2.2017910000      0.8675060000      0.6334700000
H                  2.0446870000      2.5519970000      2.4875500000
H                  1.7621440000      3.8233130000      1.3126370000
H                  4.0114910000      3.3760250000      0.2872820000
H                  4.2934850000      2.1040470000      1.4614190000
H                  4.1330650000      3.7850240000      3.3210810000
H                  3.8515090000      5.0571910000      2.1474120000
H                  6.1015790000      4.6097970000      1.1229380000
H                  6.3827590000      3.3375610000      2.2967730000
H                  6.2226310000      5.0187470000      4.1572390000
H                  5.9418070000      6.2910430000      2.9834920000
H                  8.1908460000      5.8434670000      1.9611970000
H                  8.4713360000      4.5719420000      3.1342060000
H                  8.0657660000      7.5441590000      3.8248200000
H                  9.6089660000      6.6848140000      3.8436250000
H                  8.3481520000      6.2629700000      5.0066500000
$end

$rem
BASIS  =  6-311++G(d,p)
GUI  =  2
JOB_TYPE  =  SP
METHOD  =  B3LYP
SCF_CONVERGENCE  = 8
SOLVENT_METHOD = sm12
$end

$smx
solvent dimethylformamide
charges CM5
$end

--------------------------------------------------------------

             Standard Nuclear Orientation (Angstroms)
    I     Atom           X                Y                Z
 ----------------------------------------------------------------
    1      C      -1.8598630000     0.3640130000    -0.1926560000
    2      C      -2.8275470000     1.0394090000    -0.8482920000
    3      C      -2.5932400000     2.1217430000    -1.8629370000
    4      C      -4.2729520000     0.7516500000    -0.5737210000
    5      O      -5.1395470000     1.4172310000    -1.1258790000
    6      C      -4.6508410000    -0.3194580000     0.3781070000
    7      C      -3.6863580000    -0.9923880000     1.0606230000
    8      O      -3.8198800000    -1.9381110000     1.9946370000
    9      C      -5.0672680000    -2.5954140000     2.2620760000
   10      C      -2.2329310000    -0.6800510000     0.8123630000
   11      O      -1.3769130000    -1.2923120000     1.4217540000
   12      O      -5.9748080000    -0.4913910000     0.6619600000
   13      C      -6.8427600000    -0.8897460000    -0.4143130000
   14      H      -3.1098570000     3.0368540000    -1.5628180000
   15      H      -3.0199640000     1.8386230000    -2.8297060000
   16      H      -1.5362410000     2.3418300000    -1.9948100000
   17      H      -5.4672280000    -3.0511320000     1.3534020000
   18      H      -4.8168920000    -3.3724000000     2.9825190000
   19      H      -5.7977090000    -1.9059920000     2.6814030000
   20      H      -6.8834730000    -0.1248290000    -1.1878790000
   21      H      -7.8262800000    -1.0186690000     0.0356750000
   22      H      -6.5068670000    -1.8431320000    -0.8376300000
   23      C      -0.3789700000     0.5920820000    -0.3606640000
   24      C       0.1844290000     1.6314790000     0.6311090000
   25      C       1.6965530000     1.8297820000     0.4834900000
   26      C       2.2717890000     2.8622030000     1.4596650000
   27      C       3.7843520000     3.0654660000     1.3154780000
   28      C       4.3608640000     4.0957050000     2.2932120000
   29      C       5.8735520000     4.2990960000     2.1509090000
   30      C       6.4501930000     5.3287870000     3.1288760000
   31      C       7.9629740000     5.5328880000     2.9882450000
   32      C       8.5294530000     6.5631520000     3.9696610000
   33      H      -0.1624290000     0.9087130000    -1.3835120000
   34      H       0.1364050000    -0.3571170000    -0.1986940000
   35      H      -0.0437600000     1.3083380000     1.6521580000
   36      H      -0.3289950000     2.5891940000     0.4839450000
   37      H       1.9248470000     2.1376930000    -0.5454550000
   38      H       2.2017910000     0.8675060000     0.6334700000
   39      H       2.0446870000     2.5519970000     2.4875500000
   40      H       1.7621440000     3.8233130000     1.3126370000
   41      H       4.0114910000     3.3760250000     0.2872820000
   42      H       4.2934850000     2.1040470000     1.4614190000
   43      H       4.1330650000     3.7850240000     3.3210810000
   44      H       3.8515090000     5.0571910000     2.1474120000
   45      H       6.1015790000     4.6097970000     1.1229380000
   46      H       6.3827590000     3.3375610000     2.2967730000
   47      H       6.2226310000     5.0187470000     4.1572390000
   48      H       5.9418070000     6.2910430000     2.9834920000
   49      H       8.1908460000     5.8434670000     1.9611970000
   50      H       8.4713360000     4.5719420000     3.1342060000
   51      H       8.0657660000     7.5441590000     3.8248200000
   52      H       9.6089660000     6.6848140000     3.8436250000
   53      H       8.3481520000     6.2629700000     5.0066500000
 ----------------------------------------------------------------

   15   -1043.2445493059      5.30e-09  Convergence criterion met
 Total energy in the final basis set =    -1043.2628969905

                    Orbital Energies (a.u.)
 --------------------------------------------------------------

 Alpha MOs
 -- Occupied --
-19.1717 -19.1529 -19.1316 -19.1262 -10.2797 -10.2751 -10.2618 -10.2462
-10.2211 -10.2145 -10.2088 -10.2050 -10.1748 -10.1704 -10.1688 -10.1654
-10.1635 -10.1635 -10.1629 -10.1625 -10.1624 -10.1621 -10.1577  -1.0970
 -1.0742  -1.0595  -1.0482  -0.8599  -0.8175  -0.8092  -0.7961  -0.7751
 -0.7486  -0.7384  -0.7246  -0.7047  -0.6798  -0.6620  -0.6491  -0.6143
 -0.5930  -0.5867  -0.5811  -0.5762  -0.5746  -0.5508  -0.5275  -0.5091
 -0.4910  -0.4887  -0.4768  -0.4669  -0.4589  -0.4582  -0.4535  -0.4474
 -0.4457  -0.4361  -0.4348  -0.4258  -0.4226  -0.4215  -0.4176  -0.4056
 -0.3997  -0.3974  -0.3942  -0.3893  -0.3834  -0.3684  -0.3659  -0.3610
 -0.3533  -0.3502  -0.3463  -0.3451  -0.3409  -0.3322  -0.3293  -0.3261
 -0.3242  -0.3235  -0.3107  -0.3057  -0.2806  -0.2784  -0.2663  -0.2389

          Ground-State Mulliken Net Atomic Charges

     Atom                 Charge (a.u.)
  ----------------------------------------
      1 C                     1.517991
      2 C                     0.730046
      3 C                    -0.063145
      4 C                    -1.046721
      5 O                    -0.303437
      6 C                     0.172753
      7 C                    -0.256495
      8 O                    -0.216308
      9 C                    -0.140873
     10 C                    -1.566008
     11 O                    -0.284309
     12 O                    -0.192332
     13 C                    -0.200282
     14 H                     0.172697
     15 H                     0.197863
     16 H                     0.230207
     17 H                     0.221087
     18 H                     0.243118
     19 H                     0.193269
     20 H                     0.128806
     21 H                     0.216016
     22 H                     0.179640
     23 C                    -0.087701
     24 C                    -0.752628
     25 C                     0.104095
     26 C                     0.051427
     27 C                     0.121013
     28 C                    -0.122776
     29 C                    -0.321696
     30 C                    -0.613868
     31 C                    -0.363125
     32 C                    -0.675057
     33 H                     0.268953
     34 H                     0.170167
     35 H                     0.128637
     36 H                     0.130283
     37 H                     0.121377
     38 H                     0.097073
     39 H                     0.098423
     40 H                     0.115190
     41 H                     0.116081
     42 H                     0.113251
     43 H                     0.111027
     44 H                     0.115260
     45 H                     0.114454
     46 H                     0.112615
     47 H                     0.104743
     48 H                     0.105669
     49 H                     0.130112
     50 H                     0.129109
     51 H                     0.141837
     52 H                     0.161094
     53 H                     0.141380
  ----------------------------------------
  Sum of atomic charges =     0.000000

                    Cartesian Multipole Moments
 -----------------------------------------------------------------
    Charge (ESU x 10^10)
                -0.0000
    Dipole Moment (Debye)
         X      -1.0866      Y      -0.8095      Z      -1.4050
       Tot       1.9520
    Quadrupole Moments (Debye-Ang)
        XX    -132.1985     XY      18.8171     YY    -141.4661
        XZ      -3.2682     YZ      -0.7170     ZZ    -144.4870

 Total job time:  2425.67s(wall), 18101.76s(cpu)
        *  Thank you very much for using Q-Chem.  Have a nice day.  *
