 Q-Chem 5.4, Q-Chem, Inc., Pleasanton, CA (2021)
 Q-Chem 5.4.0 for Intel X86 EM64T Linux

User input:
--------------------------------------------------------------
$molecule
0 1
C                  2.1599690000     -2.5208730000     -4.0274120000
C                  1.2756170000     -3.0669170000     -4.9520070000
C                 -0.0436450000     -2.6110810000     -5.0156910000
C                  1.7282310000     -1.5141390000     -3.1602960000
C                  0.4053380000     -1.0563000000     -3.2251070000
C                 -0.4787440000     -1.6083840000     -4.1552610000
C                  2.6767380000     -0.9341090000     -2.1679910000
C                  2.1830180000      0.1364390000     -1.2456420000
C                  0.9098330000      0.5952810000     -1.3274740000
C                 -0.0606480000      0.0197760000     -2.3063180000
O                  3.8337410000     -1.3220000000     -2.1084010000
O                 -1.2131850000      0.4253440000     -2.3479640000
H                  1.6115300000     -3.8482470000     -5.6242970000
H                 -0.7301840000     -3.0391270000     -5.7373170000
C                  3.1802610000      0.6685570000     -0.2529610000
H                  3.1863600000     -2.8597150000     -3.9606880000
H                 -1.4965090000     -1.2397050000     -4.1875270000
H                  3.5016450000      1.6790380000     -0.5291680000
H                  4.0647320000      0.0345270000     -0.2303040000
H                  2.7453570000      0.7221370000      0.7469070000
C                  0.3675790000      1.6846240000     -0.4260810000
C                 -0.2227480000      1.1194330000      0.8475360000
C                  0.0005370000      1.5093820000      2.1101910000
C                 -0.7266890000      0.8241930000      3.2495090000
C                  0.9331230000      2.6257670000      2.5119600000
C                 -1.7658820000      1.7205160000      3.9686150000
C                 -2.4294490000      1.0116860000      5.1168240000
C                 -3.7184410000      0.6752220000      5.2590160000
C                 -4.8026430000      0.9664530000      4.2520420000
C                 -4.1966620000     -0.0473560000      6.4952070000
H                 -0.4233300000      2.2058080000     -0.9737050000
H                  1.1526430000      2.4098560000     -0.2121220000
H                 -0.9318160000      0.3102130000      0.6872690000
H                  0.0070540000      0.4790910000      3.9905830000
H                 -1.2364350000     -0.0679910000      2.8755560000
H                  1.5420410000      2.9947000000      1.6866310000
H                  1.6084770000      2.2934080000      3.3083910000
H                  0.3759210000      3.4799430000      2.9114440000
H                 -2.4960870000      2.0698490000      3.2351540000
H                 -1.2617740000      2.6151800000      4.3540830000
H                 -1.7528260000      0.7326810000      5.9247490000
H                 -4.4387080000      1.4695830000      3.3568380000
H                 -5.5825270000      1.5946160000      4.6986900000
H                 -5.2937450000      0.0373900000      3.9398840000
H                 -3.3809830000     -0.2385330000      7.1953960000
H                 -4.6564030000     -1.0082640000      6.2349770000
H                 -4.9653460000      0.5350260000      7.0172810000
$end
$rem
MAX_SCF_CYCLES=200
BASIS  =  6-311++G(d,p)
GUI  =  2
JOB_TYPE  =  SP
METHOD  =  B3LYP
SCF_CONVERGENCE  = 8
SOLVENT_METHOD = COSMO
$end
$solvent
dielectric 37.219
opticaldielectric 1.43
$end

--------------------------------------------------------------

             Standard Nuclear Orientation (Angstroms)
    I     Atom           X                Y                Z
 ----------------------------------------------------------------
    1      C       5.1968068971     0.5246609719    -1.1179062242
    2      C       5.7309913174     1.7938763680    -0.9207826410
    3      C       5.0699779083     2.7147027963    -0.1038161194
    4      C       3.9964639041     0.1695362940    -0.4975318477
    5      C       3.3342443944     1.0928483913     0.3227260368
    6      C       3.8748886447     2.3662498682     0.5169853040
    7      C       3.4244750588    -1.1894083465    -0.7140214966
    8      C       2.1322144935    -1.5380751989    -0.0439064365
    9      C       1.5066443846    -0.6517640642     0.7693260719
   10      C       2.0560555468     0.7194934269     0.9906295304
   11      O       3.9978563430    -2.0034753901    -1.4219728292
   12      O       1.4647099536     1.5163897314     1.7046519373
   13      H       6.6623790101     2.0685783663    -1.4028031121
   14      H       5.4890501927     3.7030545693     0.0473210828
   15      C       1.5945562170    -2.9164180621    -0.3162174058
   16      H       5.6922509198    -0.2040889708    -1.7473529809
   17      H       3.3460577803     3.0638383245     1.1545738528
   18      H       1.7073536670    -3.5581658864     0.5647401976
   19      H       2.1417515983    -3.3795104518    -1.1353138493
   20      H       0.5319620697    -2.8791614704    -0.5637127543
   21      C       0.2053974579    -0.9618178743     1.4791429379
   22      C      -0.9968012363    -0.5980691619     0.6350859078
   23      C      -2.0758139105    -1.3447126888     0.3621955353
   24      C      -3.1934568157    -0.7711656393    -0.4853333695
   25      C      -2.2935463343    -2.7529983685     0.8589595449
   26      C      -4.5121839550    -0.5217557260     0.2887363161
   27      C      -5.6024549234     0.0063342460    -0.6020920832
   28      C      -6.2155733327     1.1967110404    -0.5571936671
   29      C      -5.9229058358     2.2809072651     0.4493699879
   30      C      -7.2936694910     1.5487474886    -1.5535678398
   31      H       0.1777829876    -0.3669581613     2.3969889034
   32      H       0.1848390492    -2.0128101243     1.7673408455
   33      H      -0.9655263499     0.4107377119     0.2293390394
   34      H      -3.4031421358    -1.4562214293    -1.3180370893
   35      H      -2.8682109000     0.1726696271    -0.9314994873
   36      H      -1.4131746594    -3.1799004403     1.3393354211
   37      H      -2.5801144730    -3.4116080176     0.0313244200
   38      H      -3.1113928420    -2.7920349563     1.5864768359
   39      H      -4.3085142154     0.1561108199     1.1207300111
   40      H      -4.8504441649    -1.4654741953     0.7338313719
   41      H      -5.9123751703    -0.6809011003    -1.3895324296
   42      H      -5.1289137581     2.0202681062     1.1483853612
   43      H      -6.8214907577     2.5163992772     1.0319426395
   44      H      -5.6321731958     3.2069742272    -0.0601948883
   45      H      -7.4723214512     0.7378967571    -2.2626165549
   46      H      -7.0246394114     2.4470981824    -2.1219114610
   47      H      -8.2393865013     1.7725963463    -1.0455164914
 ----------------------------------------------------------------

   15    -965.3762430272      6.08e-09  Convergence criterion met
 Total energy in the final basis set =     -965.3762430272
   10    -965.3914048361      8.77e-09  Convergence criterion met
 Total energy in the final basis set =     -965.3914048361

                    Orbital Energies (a.u.)
 --------------------------------------------------------------

 Alpha MOs
 -- Occupied --
-19.1347 -19.1341 -10.2826 -10.2820 -10.2134 -10.2107 -10.2055 -10.2050
-10.1955 -10.1954 -10.1950 -10.1946 -10.1802 -10.1791 -10.1753 -10.1699
-10.1677 -10.1669 -10.1662 -10.1617 -10.1586 -10.1584 -10.1579  -1.0688
 -1.0669  -0.8888  -0.8540  -0.8258  -0.8092  -0.7871  -0.7762  -0.7643
 -0.7409  -0.7092  -0.6896  -0.6858  -0.6790  -0.6595  -0.6304  -0.6154
 -0.5983  -0.5830  -0.5509  -0.5236  -0.5188  -0.5143  -0.5001  -0.4807
 -0.4722  -0.4631  -0.4604  -0.4597  -0.4551  -0.4492  -0.4409  -0.4328
 -0.4298  -0.4251  -0.4200  -0.4154  -0.4094  -0.4082  -0.4016  -0.3922
 -0.3854  -0.3818  -0.3773  -0.3740  -0.3709  -0.3687  -0.3661  -0.3644
 -0.3553  -0.3476  -0.3311  -0.3208  -0.2913  -0.2905  -0.2773  -0.2767
 -0.2709  -0.2480  -0.2325

          Ground-State Mulliken Net Atomic Charges

     Atom                 Charge (a.u.)
  ----------------------------------------
      1 C                     0.184062
      2 C                    -0.494333
      3 C                    -0.437414
      4 C                    -0.066377
      5 C                     0.240848
      6 C                     0.064227
      7 C                    -0.922494
      8 C                     0.858236
      9 C                     1.115948
     10 C                    -0.941982
     11 O                    -0.296017
     12 O                    -0.277789
     13 H                     0.222327
     14 H                     0.225848
     15 C                    -0.512257
     16 H                     0.205610
     17 H                     0.203320
     18 H                     0.227730
     19 H                     0.191445
     20 H                     0.186360
     21 C                    -0.171643
     22 C                    -1.019271
     23 C                     1.250556
     24 C                    -0.836619
     25 C                    -0.744720
     26 C                    -0.311923
     27 C                    -0.074131
     28 C                     0.362561
     29 C                    -0.682659
     30 C                    -0.657410
     31 H                     0.240627
     32 H                     0.200548
     33 H                     0.237306
     34 H                     0.170129
     35 H                     0.165328
     36 H                     0.115448
     37 H                     0.187589
     38 H                     0.185009
     39 H                     0.140138
     40 H                     0.145149
     41 H                     0.194676
     42 H                     0.143118
     43 H                     0.153463
     44 H                     0.156851
     45 H                     0.160887
     46 H                     0.157754
     47 H                     0.153940
  ----------------------------------------
  Sum of atomic charges =     0.000000

                    Cartesian Multipole Moments
 -----------------------------------------------------------------
    Charge (ESU x 10^10)
                 0.0000
    Dipole Moment (Debye)
         X      -0.0398      Y       0.4698      Z       0.0440
       Tot       0.4735
    Quadrupole Moments (Debye-Ang)
        XX    -124.5268     XY      16.7449     YY    -131.8362
        XZ       1.8039     YZ      -9.3486     ZZ    -145.0271

 Total job time:  366.79s(wall), 2801.31s(cpu)
        *  Thank you very much for using Q-Chem.  Have a nice day.  *
