 Q-Chem 5.4, Q-Chem, Inc., Pleasanton, CA (2021)
 Q-Chem 5.4.0 for Intel X86 EM64T Linux

User input:
--------------------------------------------------------------
$molecule
-2 1
C                 -0.7993500000      2.8581910000      0.3569350000
C                 -1.4906060000      2.9604780000     -0.8326070000
C                 -1.0245820000      2.2836600000     -1.9881100000
C                  0.3879080000      2.0821340000      0.4657370000
C                  0.8611790000      1.3919080000     -0.7110250000
C                  0.1301030000      1.5192860000     -1.9059350000
C                  1.0895120000      1.9894300000      1.7060080000
C                  2.2595060000      1.1855060000      1.7024990000
C                  2.7542590000      0.5019140000      0.5714660000
C                  2.0815260000      0.5658140000     -0.7041330000
O                  0.7520010000      2.5684670000      2.8316000000
O                  2.4777160000     -0.0414460000     -1.7438330000
O                  2.8760270000      1.1424150000      2.9218060000
H                 -1.1389480000      3.3672610000      1.2533710000
H                 -2.3968690000      3.5619000000     -0.8847430000
H                 -1.5681700000      2.3621910000     -2.9268930000
H                  0.5155150000      0.9854170000     -2.7690950000
H                  2.2508140000      1.7223880000      3.4318440000
S                  4.3156010000     -0.3452900000      0.6845600000
C                  3.9425880000     -2.0857440000      0.7873220000
C                  2.6497070000     -2.6131560000      0.6633640000
C                  5.0011720000     -2.9822310000      0.9945920000
C                  2.4367450000     -3.9850660000      0.7516560000
C                  4.7742450000     -4.3548990000      1.0780030000
C                  3.4872200000     -4.8895280000      0.9600190000
C                  3.2365890000     -6.3779970000      1.0497760000
H                  1.8244980000     -1.9331390000      0.4901590000
H                  6.0125700000     -2.5980130000      1.0956390000
H                  1.4218680000     -4.3640350000      0.6494100000
H                  5.6168130000     -5.0237030000      1.2435530000
H                  4.1597440000     -6.9294080000      1.2543040000
H                  2.8181980000     -6.7798160000      0.1184060000
H                  2.5271580000     -6.6264250000      1.8493420000
$end
$rem
MAX_SCF_CYCLES=200
BASIS  =  6-311++G(d,p)
GUI  =  2
JOB_TYPE  =  SP
METHOD  =  B3LYP
SOLVENT_METHOD = PCM
$end
$pcm
theory = CPCM
$end
$solvent
dielectric 37.219
opticaldielectric 1.43
$end

--------------------------------------------------------------

             Standard Nuclear Orientation (Angstroms)
    I     Atom           X                Y                Z
 ----------------------------------------------------------------
    1      C      -0.7993500000     2.8581910000     0.3569350000
    2      C      -1.4906060000     2.9604780000    -0.8326070000
    3      C      -1.0245820000     2.2836600000    -1.9881100000
    4      C       0.3879080000     2.0821340000     0.4657370000
    5      C       0.8611790000     1.3919080000    -0.7110250000
    6      C       0.1301030000     1.5192860000    -1.9059350000
    7      C       1.0895120000     1.9894300000     1.7060080000
    8      C       2.2595060000     1.1855060000     1.7024990000
    9      C       2.7542590000     0.5019140000     0.5714660000
   10      C       2.0815260000     0.5658140000    -0.7041330000
   11      O       0.7520010000     2.5684670000     2.8316000000
   12      O       2.4777160000    -0.0414460000    -1.7438330000
   13      O       2.8760270000     1.1424150000     2.9218060000
   14      H      -1.1389480000     3.3672610000     1.2533710000
   15      H      -2.3968690000     3.5619000000    -0.8847430000
   16      H      -1.5681700000     2.3621910000    -2.9268930000
   17      H       0.5155150000     0.9854170000    -2.7690950000
   18      H       2.2508140000     1.7223880000     3.4318440000
   19      S       4.3156010000    -0.3452900000     0.6845600000
   20      C       3.9425880000    -2.0857440000     0.7873220000
   21      C       2.6497070000    -2.6131560000     0.6633640000
   22      C       5.0011720000    -2.9822310000     0.9945920000
   23      C       2.4367450000    -3.9850660000     0.7516560000
   24      C       4.7742450000    -4.3548990000     1.0780030000
   25      C       3.4872200000    -4.8895280000     0.9600190000
   26      C       3.2365890000    -6.3779970000     1.0497760000
   27      H       1.8244980000    -1.9331390000     0.4901590000
   28      H       6.0125700000    -2.5980130000     1.0956390000
   29      H       1.4218680000    -4.3640350000     0.6494100000
   30      H       5.6168130000    -5.0237030000     1.2435530000
   31      H       4.1597440000    -6.9294080000     1.2543040000
   32      H       2.8181980000    -6.7798160000     0.1184060000
   33      H       2.5271580000    -6.6264250000     1.8493420000
 ----------------------------------------------------------------

    9   -1279.4328007974      3.32e-06  Convergence criterion met
 Total energy in the final basis set =    -1279.4328007974

                    Orbital Energies (a.u.)
 --------------------------------------------------------------

 Alpha MOs
 -- Occupied --
-88.8345 -19.1177 -19.0332 -19.0318 -10.1953 -10.1930 -10.1898 -10.1747
-10.1686 -10.1678 -10.1675 -10.1666 -10.1655 -10.1591 -10.1577 -10.1543
-10.1506 -10.1487 -10.1487 -10.1470 -10.1429  -7.9204  -5.8842  -5.8801
 -5.8749  -1.0349  -0.9588  -0.9337  -0.8587  -0.8308  -0.7974  -0.7690
 -0.7412  -0.7337  -0.7277  -0.6950  -0.6599  -0.6368  -0.6043  -0.5924
 -0.5804  -0.5614  -0.5417  -0.5088  -0.4936  -0.4741  -0.4639  -0.4525
 -0.4435  -0.4298  -0.4257  -0.4146  -0.4130  -0.4056  -0.4029  -0.3914
 -0.3793  -0.3786  -0.3719  -0.3630  -0.3574  -0.3540  -0.3492  -0.3356
 -0.3340  -0.3252  -0.3142  -0.3030  -0.3024  -0.2749  -0.2530  -0.2349
 -0.2327  -0.2238  -0.2107  -0.2096  -0.1962  -0.1193

          Ground-State Mulliken Net Atomic Charges

     Atom                 Charge (a.u.)
  ----------------------------------------
      1 C                    -0.170017
      2 C                    -0.576137
      3 C                    -0.534080
      4 C                     0.241802
      5 C                    -0.012617
      6 C                    -0.065295
      7 C                    -0.816445
      8 C                    -0.707725
      9 C                     2.526427
     10 C                    -0.798822
     11 O                    -0.752174
     12 O                    -0.598779
     13 O                    -0.295965
     14 H                     0.167952
     15 H                     0.170947
     16 H                     0.173965
     17 H                     0.167177
     18 H                     0.290039
     19 S                     0.009991
     20 C                    -0.106773
     21 C                    -0.199988
     22 C                    -0.218679
     23 C                    -0.046016
     24 C                    -1.127192
     25 C                     0.502691
     26 C                    -0.536031
     27 H                     0.211817
     28 H                     0.210998
     29 H                     0.221596
     30 H                     0.170129
     31 H                     0.165809
     32 H                     0.167971
     33 H                     0.163420
  ----------------------------------------
  Sum of atomic charges =    -2.000003

                    Cartesian Multipole Moments
 -----------------------------------------------------------------
    Charge (ESU x 10^10)
                -9.6064
    Dipole Moment (Debye)
         X     -18.5135      Y     -11.3554      Z      -5.6119
       Tot      22.4318
    Quadrupole Moments (Debye-Ang)
        XX    -192.2964     XY      -7.4319     YY    -159.6173
        XZ      -3.0615     YZ     -23.2868     ZZ    -183.8358

 Total job time:  342.64s(wall), 538.70s(cpu)
        *  Thank you very much for using Q-Chem.  Have a nice day.  *
