 Gaussian 16, Revision A.03,
 Gaussian 16:  ES64L-G16RevA.03 25-Dec-2016

 ----------------------------------------------------------------
 #P UB3LYP/6-311++G(d,p) SCRF=(PCM,Solvent=n,n-DiMethylFormamide)
 ----------------------------------------------------------------

 -------
 Reduced
 -------
 Symbolic Z-matrix:
 Charge = -2 Multiplicity = 1

                         Standard orientation:
 ---------------------------------------------------------------------
 Center     Atomic      Atomic             Coordinates (Angstroms)
 Number     Number       Type             X           Y           Z
 ---------------------------------------------------------------------
      1          6           0        4.248025   -1.624771    0.047618
      2          6           0        2.948715   -0.865797    0.036331
      3          6           0        2.947095    0.548383   -0.035509
      4          6           0        1.772020    1.257096   -0.025449
      5         17           0        2.011509    3.037850   -0.150294
      6          6           0        0.482266    0.648045    0.043486
      7          6           0       -0.752765    1.416921    0.117513
      8          8           0       -0.802583    2.684594    0.234690
      9          6           0       -1.975873    0.633370    0.049112
     10          6           0       -3.219789    1.310061    0.060646
     11          6           0       -4.423867    0.637778   -0.004951
     12          6           0       -4.427453   -0.783052   -0.080262
     13          6           0       -3.232401   -1.469845   -0.091151
     14          6           0       -1.979183   -0.801496   -0.028934
     15          6           0       -0.765588   -1.570964   -0.032251
     16          8           0       -0.828368   -2.876688   -0.098884
     17          6           0        0.469756   -0.826219    0.031571
     18          6           0        1.731347   -1.539039    0.060031
     19          7           0        1.726884   -2.934324    0.150080
     20          1           0        4.332472   -2.284625    0.920790
     21          1           0        4.381422   -2.276151   -0.839643
     22          1           0        5.101117   -0.938588    0.056769
     23          1           0        3.890082    1.082680   -0.082895
     24          1           0       -3.176164    2.392825    0.122062
     25          1           0       -5.363106    1.188067    0.001261
     26          1           0       -5.371005   -1.324587   -0.127911
     27          1           0       -3.200851   -2.552898   -0.145435
     28          1           0        0.760115   -3.285346   -0.018489
     29          1           0        2.475853   -3.390636   -0.355337
 ---------------------------------------------------------------------

 SCF Done:  E(UB3LYP) =  -1243.50868849     A.U. after   18 cycles

 The electronic state is 1-A.
 Alpha  occ. eigenvalues -- -101.52344 -19.02459 -19.01662 -14.27678 -10.19903
 Alpha  occ. eigenvalues --  -10.18541 -10.17981 -10.17689 -10.15566 -10.15026
 Alpha  occ. eigenvalues --  -10.15006 -10.14958 -10.14919 -10.14771 -10.14600
 Alpha  occ. eigenvalues --  -10.14581 -10.14572 -10.13633 -10.13508  -9.43816
 Alpha  occ. eigenvalues --   -7.20237  -7.19346  -7.19261  -0.94543  -0.94182
 Alpha  occ. eigenvalues --   -0.88395  -0.84632  -0.82548  -0.79093  -0.76266
 Alpha  occ. eigenvalues --   -0.72429  -0.72246  -0.69428  -0.67289  -0.63004
 Alpha  occ. eigenvalues --   -0.60342  -0.58780  -0.54927  -0.52704  -0.51785
 Alpha  occ. eigenvalues --   -0.48839  -0.47747  -0.44819  -0.43909  -0.42873
 Alpha  occ. eigenvalues --   -0.41749  -0.41219  -0.40663  -0.39734  -0.39330
 Alpha  occ. eigenvalues --   -0.38295  -0.37088  -0.36718  -0.35987  -0.35160
 Alpha  occ. eigenvalues --   -0.35076  -0.34294  -0.33348  -0.32062  -0.31430
 Alpha  occ. eigenvalues --   -0.30587  -0.30230  -0.28994  -0.27085  -0.22926
 Alpha  occ. eigenvalues --   -0.22535  -0.21578  -0.20590  -0.19079  -0.18543
 Alpha  occ. eigenvalues --   -0.10437
 Alpha virt. eigenvalues --   -0.02259  -0.00149   0.00090   0.00536   0.01349
 Alpha virt. eigenvalues --    0.02087   0.02345   0.02429   0.02894   0.03898
 Alpha virt. eigenvalues --    0.04274   0.04559   0.05318   0.05498   0.06443

  Beta  occ. eigenvalues -- -101.52344 -19.02459 -19.01662 -14.27678 -10.19903
  Beta  occ. eigenvalues --  -10.18541 -10.17981 -10.17689 -10.15566 -10.15026
  Beta  occ. eigenvalues --  -10.15006 -10.14958 -10.14919 -10.14771 -10.14600
  Beta  occ. eigenvalues --  -10.14581 -10.14572 -10.13633 -10.13508  -9.43816
  Beta  occ. eigenvalues --   -7.20237  -7.19346  -7.19261  -0.94543  -0.94182
  Beta  occ. eigenvalues --   -0.88395  -0.84632  -0.82548  -0.79093  -0.76266
  Beta  occ. eigenvalues --   -0.72429  -0.72246  -0.69428  -0.67289  -0.63004
  Beta  occ. eigenvalues --   -0.60342  -0.58780  -0.54927  -0.52704  -0.51785
  Beta  occ. eigenvalues --   -0.48839  -0.47747  -0.44819  -0.43909  -0.42873
  Beta  occ. eigenvalues --   -0.41749  -0.41219  -0.40663  -0.39734  -0.39330
  Beta  occ. eigenvalues --   -0.38295  -0.37088  -0.36718  -0.35987  -0.35160
  Beta  occ. eigenvalues --   -0.35076  -0.34294  -0.33348  -0.32062  -0.31430
  Beta  occ. eigenvalues --   -0.30587  -0.30230  -0.28994  -0.27085  -0.22926
  Beta  occ. eigenvalues --   -0.22535  -0.21578  -0.20590  -0.19079  -0.18543
  Beta  occ. eigenvalues --   -0.10437
  Beta virt. eigenvalues --   -0.02259  -0.00149   0.00090   0.00536   0.01349
  Beta virt. eigenvalues --    0.02087   0.02345   0.02429   0.02894   0.03898
  Beta virt. eigenvalues --    0.04274   0.04559   0.05318   0.05498   0.06443

 Mulliken charges and spin densities:
               1          2
     1  C   -0.469135  -0.000000
     2  C    0.123740  -0.000000
     3  C   -0.718156  -0.000000
     4  C    0.862319  -0.000000
     5  Cl   0.288691  -0.000000
     6  C    0.335356   0.000000
     7  C   -1.429049   0.000000
     8  O   -0.528816  -0.000000
     9  C    0.019143   0.000000
    10  C    0.082217  -0.000000
    11  C   -0.463166   0.000000
    12  C   -0.574272  -0.000000
    13  C    0.045093  -0.000000
    14  C   -0.125106   0.000000
    15  C   -0.483783   0.000000
    16  O   -0.619981  -0.000000
    17  C    0.213785   0.000000
    18  C    0.083674  -0.000000
    19  N   -0.455180   0.000000
    20  H    0.159762   0.000000
    21  H    0.158103   0.000000
    22  H    0.156067  -0.000000
    23  H    0.157991   0.000000
    24  H    0.142798   0.000000
    25  H    0.158891  -0.000000
    26  H    0.157251  -0.000000
    27  H    0.148555  -0.000000
    28  H    0.331556  -0.000000
    29  H    0.241651   0.000000
 Sum of Mulliken charges =  -2.00000  -0.00000

 Dipole moment (field-independent basis, Debye):
    X=              5.5986    Y=             -2.7913    Z=             -1.4873  Tot=              6.4302
 Quadrupole moment (field-independent basis, Debye-Ang):
   XX=           -149.8858   YY=           -184.0379   ZZ=           -131.4526
   XY=             -7.8322   XZ=             -2.0821   YZ=              1.7621

 Normal termination of Gaussian 16 at Sun Jan 14 01:28:45 2024.
