 Gaussian 16, Revision A.03,
 Gaussian 16:  ES64L-G16RevA.03 25-Dec-2016

 ----------------------------------------------------------------
 #P UB3LYP/6-311++G(d,p) SCRF=(PCM,Solvent=n,n-DiMethylFormamide)
 ----------------------------------------------------------------

 ------------------
 Quinone PCM in DMF
 ------------------
 Symbolic Z-matrix:
 Charge = -1 Multiplicity = 1

                         Standard orientation:
 ---------------------------------------------------------------------
 Center     Atomic      Atomic             Coordinates (Angstroms)
 Number     Number       Type             X           Y           Z
 ---------------------------------------------------------------------
      1          6           0       -3.752644   -1.676656    0.024049
      2          6           0       -5.076317   -1.256172    0.057427
      3          6           0       -5.380086    0.109445    0.068687
      4          6           0       -2.712718   -0.739766    0.001796
      5          6           0       -3.019237    0.628074    0.012888
      6          6           0       -4.354774    1.045620    0.046214
      7          6           0       -1.295683   -1.230642   -0.031514
      8          6           0       -1.931247    1.647311   -0.013631
      9          6           0       -0.227386   -0.244871   -0.042347
     10          6           0       -0.532315    1.151137   -0.044107
     11          6           0        1.148350   -0.659767   -0.074810
     12          6           0        2.166080    0.352876   -0.079266
     13          6           0        1.822044    1.683982   -0.099317
     14          6           0        0.480723    2.093286   -0.083251
     15          8           0       -1.105994   -2.457761   -0.047576
     16          8           0       -2.205112    2.842954   -0.013354
     17          7           0        1.499512   -1.955934   -0.104077
     18          1           0       -3.491968   -2.727611    0.015140
     19          1           0       -5.875898   -1.989372    0.074884
     20          1           0       -6.414188    0.436292    0.094818
     21          1           0       -4.557628    2.109691    0.053672
     22         16           0        3.947617   -0.074850    0.062605
     23          1           0        2.623890    2.412672   -0.124537
     24          1           0        0.759510   -2.643963   -0.130145
     25          1           0        2.480133   -2.169821   -0.289395
     26          1           0        0.217039    3.142860   -0.092212
     27          8           0        4.089491   -1.308304   -0.770247
     28          8           0        4.659078    1.105174   -0.470278
     29          8           0        4.136523   -0.320156    1.509920
 ---------------------------------------------------------------------

 SCF Done:  E(UB3LYP) =  -1367.81497803     A.U. after   16 cycles

 The electronic state is 1-A.
 Alpha  occ. eigenvalues --  -89.05543 -19.12636 -19.12215 -19.10081 -19.10016
 Alpha  occ. eigenvalues --  -19.09858 -14.32797 -10.27901 -10.27564 -10.25356
 Alpha  occ. eigenvalues --  -10.21005 -10.20715 -10.20440 -10.20270 -10.20198
 Alpha  occ. eigenvalues --  -10.19898 -10.19567 -10.19478 -10.19407 -10.19255
 Alpha  occ. eigenvalues --  -10.18796  -8.11414  -6.07688  -6.07668  -6.07602
 Alpha  occ. eigenvalues --   -1.12086  -1.05890  -1.05303  -0.98724  -0.98303
 Alpha  occ. eigenvalues --   -0.94522  -0.88690  -0.86730  -0.81223  -0.77421
 Alpha  occ. eigenvalues --   -0.77229  -0.75662  -0.69171  -0.67073  -0.65087
 Alpha  occ. eigenvalues --   -0.62031  -0.60046  -0.58664  -0.57302  -0.54803
 Alpha  occ. eigenvalues --   -0.52491  -0.50738  -0.50503  -0.49628  -0.47488
 Alpha  occ. eigenvalues --   -0.46969  -0.46066  -0.45886  -0.45344  -0.45191
 Alpha  occ. eigenvalues --   -0.45095  -0.44691  -0.42988  -0.41657  -0.41165
 Alpha  occ. eigenvalues --   -0.40210  -0.38904  -0.37879  -0.37191  -0.36435
 Alpha  occ. eigenvalues --   -0.34607  -0.34353  -0.33336  -0.31629  -0.30879
 Alpha  occ. eigenvalues --   -0.29856  -0.28451  -0.28330  -0.27489  -0.27137
 Alpha  occ. eigenvalues --   -0.27020  -0.26497  -0.22591
 Alpha virt. eigenvalues --   -0.11592  -0.06542  -0.03651  -0.01583  -0.00423
 Alpha virt. eigenvalues --    0.00474   0.01088   0.01921   0.02299   0.03173
 Alpha virt. eigenvalues --    0.03785   0.03981   0.04035   0.04290   0.04406

  Beta  occ. eigenvalues --  -89.05543 -19.12636 -19.12215 -19.10081 -19.10016
  Beta  occ. eigenvalues --  -19.09858 -14.32797 -10.27901 -10.27564 -10.25356
  Beta  occ. eigenvalues --  -10.21005 -10.20715 -10.20440 -10.20270 -10.20198
  Beta  occ. eigenvalues --  -10.19898 -10.19567 -10.19478 -10.19407 -10.19255
  Beta  occ. eigenvalues --  -10.18796  -8.11414  -6.07688  -6.07668  -6.07602
  Beta  occ. eigenvalues --   -1.12086  -1.05890  -1.05303  -0.98724  -0.98303
  Beta  occ. eigenvalues --   -0.94522  -0.88690  -0.86730  -0.81223  -0.77421
  Beta  occ. eigenvalues --   -0.77229  -0.75662  -0.69171  -0.67073  -0.65087
  Beta  occ. eigenvalues --   -0.62031  -0.60046  -0.58664  -0.57302  -0.54803
  Beta  occ. eigenvalues --   -0.52491  -0.50738  -0.50503  -0.49628  -0.47488
  Beta  occ. eigenvalues --   -0.46969  -0.46066  -0.45886  -0.45344  -0.45191
  Beta  occ. eigenvalues --   -0.45095  -0.44691  -0.42988  -0.41657  -0.41165
  Beta  occ. eigenvalues --   -0.40210  -0.38904  -0.37879  -0.37191  -0.36435
  Beta  occ. eigenvalues --   -0.34607  -0.34353  -0.33336  -0.31629  -0.30879
  Beta  occ. eigenvalues --   -0.29856  -0.28451  -0.28330  -0.27489  -0.27137
  Beta  occ. eigenvalues --   -0.27020  -0.26497  -0.22591
  Beta virt. eigenvalues --   -0.11592  -0.06542  -0.03651  -0.01583  -0.00423
  Beta virt. eigenvalues --    0.00474   0.01088   0.01921   0.02299   0.03173
  Beta virt. eigenvalues --    0.03785   0.03981   0.04035   0.04290   0.04406

 Mulliken charges and spin densities:
               1          2
     1  C    0.230314   0.000000
     2  C   -0.498565  -0.000000
     3  C   -0.428106  -0.000000
     4  C    0.154239  -0.000000
     5  C    0.053379   0.000000
     6  C    0.161298  -0.000000
     7  C   -0.450462   0.000000
     8  C   -0.526581   0.000000
     9  C    0.226295  -0.000000
    10  C    0.573861   0.000000
    11  C    0.422937  -0.000000
    12  C   -1.103765   0.000000
    13  C   -0.176096  -0.000000
    14  C    0.003933   0.000000
    15  O   -0.318195  -0.000000
    16  O   -0.282471   0.000000
    17  N   -0.442573   0.000000
    18  H    0.185645  -0.000000
    19  H    0.205085  -0.000000
    20  H    0.204428   0.000000
    21  H    0.180395  -0.000000
    22  S    0.586543   0.000000
    23  H    0.236280  -0.000000
    24  H    0.354432   0.000000
    25  H    0.312673   0.000000
    26  H    0.179552   0.000000
    27  O   -0.406620  -0.000000
    28  O   -0.312263  -0.000000
    29  O   -0.325590   0.000000
 Sum of Mulliken charges =  -1.00000  -0.00000

 Dipole moment (field-independent basis, Debye):
    X=            -19.5546    Y=             -0.4934    Z=             -0.8765  Tot=             19.5805
 Quadrupole moment (field-independent basis, Debye-Ang):
   XX=           -200.5418   YY=           -144.2341   ZZ=           -140.5710
   XY=              9.2555   XZ=             -3.1350   YZ=              0.7575

 Normal termination of Gaussian 16 at Sun Jan 14 01:33:38 2024.
