 Gaussian 16, Revision A.03,
 Gaussian 16:  ES64L-G16RevA.03 25-Dec-2016

 ----------------------------------------------------------------------
 #P UB3LYP/6-311++G(d,p) nosym opt freq SCRF=(PCM,Solvent=n,n-DiMethylF
 ormamide)
 ----------------------------------------------------------------------

 -------
 Radical
 -------
 Symbolic Z-matrix:
 Charge = -1 Multiplicity = 2

 SCF Done:  E(UB3LYP) =  -893.655472758     A.U. after   23 cycles
 SCF Done:  E(UB3LYP) =  -893.650734813     A.U. after   21 cycles
 SCF Done:  E(UB3LYP) =  -893.655726054     A.U. after   17 cycles
 SCF Done:  E(UB3LYP) =  -893.655784519     A.U. after   17 cycles
 SCF Done:  E(UB3LYP) =  -893.655809762     A.U. after   17 cycles
 SCF Done:  E(UB3LYP) =  -893.655824483     A.U. after   15 cycles
 SCF Done:  E(UB3LYP) =  -893.655827388     A.U. after   16 cycles
 SCF Done:  E(UB3LYP) =  -893.655835505     A.U. after   16 cycles
 SCF Done:  E(UB3LYP) =  -893.655836976     A.U. after   16 cycles
 SCF Done:  E(UB3LYP) =  -893.655837227     A.U. after   11 cycles
 Optimization completed.
    -- Stationary point found.
 Normal termination of Gaussian 16 at Sat Feb 10 17:47:22 2024.

 ----------------------------------------------------------------------
 #P Geom=AllCheck Guess=TCheck SCRF=Check GenChk UB3LYP/6-311++G(d,p) F
 req
 ----------------------------------------------------------------------

 Structure from the checkpoint file:  "174-rad.chk"
 -------
 Radical
 -------
 Charge = -1 Multiplicity = 2

                          Input orientation:
 ---------------------------------------------------------------------
 Center     Atomic      Atomic             Coordinates (Angstroms)
 Number     Number       Type             X           Y           Z
 ---------------------------------------------------------------------
      1          8           0        2.272701    2.867053   -1.189644
      2          7           0        2.650645    2.306364   -0.167265
      3          8           0        3.321610    2.850337    0.709477
      4          6           0        2.384310    0.861733   -0.032035
      5          6           0        3.505599    0.061022   -0.048189
      6          6           0        3.347461   -1.335472   -0.099220
      7          6           0        2.078088   -1.877304   -0.137435
      8          6           0        0.926404   -1.066545   -0.086918
      9          6           0       -0.390097   -1.708071   -0.112320
     10          8           0       -0.509869   -2.955093   -0.207886
     11          6           0       -1.554337   -0.826131   -0.016762
     12          6           0       -2.852137   -1.379006   -0.070450
     13          6           0       -3.973088   -0.578723    0.035448
     14          6           0       -3.828430    0.813024    0.205377
     15          6           0       -2.567937    1.375013    0.266107
     16          6           0       -1.407893    0.577601    0.152642
     17          6           0       -0.091774    1.215755    0.223965
     18          8           0        0.037391    2.440044    0.489547
     19          6           0        1.060699    0.354594    0.002656
     20          1           0        4.490769    0.510119   -0.066429
     21          1           0        4.223005   -1.972348   -0.130416
     22          1           0        1.935630   -2.949013   -0.199291
     23          1           0       -2.945134   -2.450842   -0.196172
     24          1           0       -4.963119   -1.018710   -0.010564
     25          1           0       -4.708081    1.441890    0.288199
     26          1           0       -2.442416    2.442710    0.397577
 ---------------------------------------------------------------------

 SCF Done:  E(UB3LYP) =  -893.655837227     A.U. after    1 cycles

 Alpha  occ. eigenvalues --  -19.16608 -19.16599 -19.08646 -19.08408 -14.55517
 Alpha  occ. eigenvalues --  -10.23777 -10.23679 -10.23493 -10.19814 -10.19668
 Alpha  occ. eigenvalues --  -10.18883 -10.18688 -10.18590 -10.18239 -10.18118
 Alpha  occ. eigenvalues --  -10.17862 -10.17781 -10.17630 -10.17569  -1.23912
 Alpha  occ. eigenvalues --   -1.06502  -1.01317  -1.00997  -0.88842  -0.86322
 Alpha  occ. eigenvalues --   -0.81173  -0.79580  -0.75693  -0.75296  -0.70822
 Alpha  occ. eigenvalues --   -0.67645  -0.64462  -0.63284  -0.59129  -0.57464
 Alpha  occ. eigenvalues --   -0.56010  -0.54273  -0.53260  -0.52665  -0.51253
 Alpha  occ. eigenvalues --   -0.48184  -0.47571  -0.46646  -0.46028  -0.43405
 Alpha  occ. eigenvalues --   -0.43013  -0.42414  -0.42142  -0.41199  -0.39107
 Alpha  occ. eigenvalues --   -0.38936  -0.38304  -0.37776  -0.35790  -0.35163
 Alpha  occ. eigenvalues --   -0.34502  -0.32622  -0.32079  -0.31712  -0.27914
 Alpha  occ. eigenvalues --   -0.26958  -0.26209  -0.25946  -0.25489  -0.24730
 Alpha  occ. eigenvalues --   -0.15271
 Alpha virt. eigenvalues --   -0.09225  -0.06177  -0.03219  -0.01447  -0.00247
 Alpha virt. eigenvalues --    0.00502   0.01490   0.02193   0.02555   0.04085
 Alpha virt. eigenvalues --    0.04217   0.04380   0.04537   0.05051   0.05464

  Beta  occ. eigenvalues --  -19.16581 -19.16552 -19.08118 -19.07834 -14.55472
  Beta  occ. eigenvalues --  -10.23744 -10.23545 -10.23318 -10.19819 -10.19545
  Beta  occ. eigenvalues --  -10.18766 -10.18655 -10.18567 -10.18197 -10.18055
  Beta  occ. eigenvalues --  -10.17836 -10.17740 -10.17630 -10.17553  -1.23830
  Beta  occ. eigenvalues --   -1.06429  -1.00390  -0.99998  -0.88626  -0.86167
  Beta  occ. eigenvalues --   -0.80929  -0.79257  -0.75507  -0.75124  -0.70534
  Beta  occ. eigenvalues --   -0.67107  -0.64244  -0.63030  -0.59053  -0.57316
  Beta  occ. eigenvalues --   -0.55775  -0.54117  -0.53045  -0.52579  -0.51072
  Beta  occ. eigenvalues --   -0.47930  -0.47456  -0.46504  -0.45939  -0.42975
  Beta  occ. eigenvalues --   -0.42315  -0.42167  -0.41591  -0.40901  -0.38894
  Beta  occ. eigenvalues --   -0.38050  -0.37647  -0.36734  -0.35662  -0.34399
  Beta  occ. eigenvalues --   -0.34167  -0.32323  -0.31939  -0.31503  -0.26545
  Beta  occ. eigenvalues --   -0.25930  -0.25442  -0.25319  -0.24952  -0.24209
  Beta virt. eigenvalues --   -0.09627  -0.08500  -0.05342  -0.02196  -0.01220
  Beta virt. eigenvalues --   -0.00230   0.00506   0.01498   0.02214   0.02559
  Beta virt. eigenvalues --    0.04241   0.04418   0.04581   0.04850   0.05081

 Mulliken charges and spin densities:
               1          2
     1  O   -0.042025   0.008975
     2  N   -0.159944   0.012545
     3  O   -0.041060   0.017296
     4  C   -0.300697   0.049934
     5  C    0.149801   0.001499
     6  C   -0.496818   0.079704
     7  C   -0.216957  -0.016208
     8  C    1.013172   0.073752
     9  C   -0.286959   0.070633
    10  O   -0.424660   0.195601
    11  C    0.349193   0.013682
    12  C    0.032067   0.017069
    13  C   -0.489038   0.033680
    14  C   -0.436808   0.019746
    15  C    0.070348   0.041378
    16  C    0.069192   0.018648
    17  C   -0.918909   0.084592
    18  O   -0.401720   0.218493
    19  C    0.214752   0.071075
    20  H    0.225324  -0.000001
    21  H    0.205190  -0.005224
    22  H    0.171381   0.000998
    23  H    0.169947  -0.001234
    24  H    0.185739  -0.002734
    25  H    0.187510  -0.001681
    26  H    0.171978  -0.002217
 Sum of Mulliken charges =  -1.00000   1.00000

 Dipole moment (field-independent basis, Debye):
    X=             -2.0369    Y=             -4.9568    Z=             -0.3154  Tot=              5.3683
 Quadrupole moment (field-independent basis, Debye-Ang):
   XX=           -107.0765   YY=           -157.6070   ZZ=           -118.1417
   XY=            -22.0889   XZ=             -1.8503   YZ=             -2.1569

  Exact polarizability: 503.487  53.418 410.391  -2.115  16.283 150.074
 Approx polarizability: 506.920  37.635 474.697   9.729  22.575 188.643

                      1                      2                      3
                      A                      A                      A
 Frequencies --     31.7419                48.8654                87.2535
 Red. masses --     12.0584                 6.9924                 8.8988
 Frc consts  --      0.0072                 0.0098                 0.0399
 IR Inten    --      9.2311                18.6132                15.4068

                      4                      5                      6
                      A                      A                      A
 Frequencies --    125.8214               151.5458               164.4948
 Red. masses --      5.0953                 8.0075                 5.9684
 Frc consts  --      0.0475                 0.1084                 0.0952
 IR Inten    --      1.6174                 0.7524                 3.0823

                      7                      8                      9
                      A                      A                      A
 Frequencies --    183.7657               223.8040               258.5803
 Red. masses --      9.2291                 5.3329                 6.1493
 Frc consts  --      0.1836                 0.1574                 0.2423
 IR Inten    --      3.9231                 3.6126                 6.2797

                     10                     11                     12
                      A                      A                      A
 Frequencies --    301.9884               328.8121               361.8166
 Red. masses --      8.8086                 8.1710                 6.8734
 Frc consts  --      0.4733                 0.5205                 0.5301
 IR Inten    --      2.6246                 2.2060                 1.1201

                     13                     14                     15
                      A                      A                      A
 Frequencies --    374.4879               397.8156               418.1824
 Red. masses --     11.8087                 5.8200                 5.9829
 Frc consts  --      0.9757                 0.5427                 0.6164
 IR Inten    --     28.7099                 3.9263                 1.8709

                     16                     17                     18
                      A                      A                      A
 Frequencies --    444.7351               459.8645               491.5068
 Red. masses --      4.0267                 6.4540                 7.0483
 Frc consts  --      0.4692                 0.8042                 1.0032
 IR Inten    --      2.0273                 2.7181                11.5485

                     19                     20                     21
                      A                      A                      A
 Frequencies --    501.2527               592.3094               614.4527
 Red. masses --      5.0478                 5.4841                 6.4121
 Frc consts  --      0.7473                 1.1336                 1.4264
 IR Inten    --      0.8991                38.8544                13.0071

                     22                     23                     24
                      A                      A                      A
 Frequencies --    649.4074               653.0413               684.4898
 Red. masses --      5.6378                 5.4123                 6.7128
 Frc consts  --      1.4009                 1.3599                 1.8530
 IR Inten    --     15.0190                13.6319                12.8852

                     25                     26                     27
                      A                      A                      A
 Frequencies --    704.8378               718.7999               736.2711
 Red. masses --      2.9465                 6.7983                 3.0478
 Frc consts  --      0.8625                 2.0695                 0.9735
 IR Inten    --    109.7784                 0.3966                 8.6447

                     28                     29                     30
                      A                      A                      A
 Frequencies --    750.4611               785.6938               794.7354
 Red. masses --      5.6444                 2.0873                 2.0603
 Frc consts  --      1.8729                 0.7592                 0.7667
 IR Inten    --     33.4049                 6.9300                54.5384

                     31                     32                     33
                      A                      A                      A
 Frequencies --    811.0151               825.5238               880.4857
 Red. masses --      6.7620                 2.8072                 9.3782
 Frc consts  --      2.6205                 1.1272                 4.2837
 IR Inten    --      7.1133                26.4193                22.2060

                     34                     35                     36
                      A                      A                      A
 Frequencies --    891.7483               933.7079               937.2649
 Red. masses --      1.4901                 1.9952                 2.8917
 Frc consts  --      0.6982                 1.0249                 1.4967
 IR Inten    --      0.0532                 1.3222                 4.6182

                     37                     38                     39
                      A                      A                      A
 Frequencies --    984.2861               991.9439               998.4126
 Red. masses --      6.8550                 1.3776                 1.3518
 Frc consts  --      3.9129                 0.7987                 0.7939
 IR Inten    --     38.5955                 2.4356                 2.9415

                     40                     41                     42
                      A                      A                      A
 Frequencies --   1006.0873              1040.8173              1083.0325
 Red. masses --      1.2978                 2.0030                 1.9268
 Frc consts  --      0.7740                 1.2784                 1.3316
 IR Inten    --      0.1589                23.7165                35.6824

                     43                     44                     45
                      A                      A                      A
 Frequencies --   1112.8055              1147.3816              1161.6654
 Red. masses --      2.1578                 1.5207                 1.6316
 Frc consts  --      1.5743                 1.1796                 1.2973
 IR Inten    --     36.6917                77.3153                43.9783

                     46                     47                     48
                      A                      A                      A
 Frequencies --   1176.8887              1198.7095              1202.3947
 Red. masses --      2.3402                 2.2410                 1.9190
 Frc consts  --      1.9098                 1.8972                 1.6346
 IR Inten    --    156.8228                50.8658                34.3115

                     49                     50                     51
                      A                      A                      A
 Frequencies --   1242.3907              1247.0328              1305.6537
 Red. masses --      3.3040                 2.1480                 7.2539
 Frc consts  --      3.0048                 1.9681                 7.2858
 IR Inten    --    138.4516               677.4358              2312.6490

                     52                     53                     54
                      A                      A                      A
 Frequencies --   1353.0227              1356.8514              1366.4137
 Red. masses --      2.4485                10.5957                10.4870
 Frc consts  --      2.6410                11.4933                11.5363
 IR Inten    --     21.9641                29.1612               137.3810

                     55                     56                     57
                      A                      A                      A
 Frequencies --   1415.6724              1439.8170              1479.8957
 Red. masses --      3.3172                 2.8895                 2.7697
 Frc consts  --      3.9170                 3.5292                 3.5740
 IR Inten    --    767.6953               177.8336                66.1073

                     58                     59                     60
                      A                      A                      A
 Frequencies --   1486.2632              1517.2670              1527.6878
 Red. masses --      3.1657                 4.5283                12.2296
 Frc consts  --      4.1201                 6.1420                16.8163
 IR Inten    --     10.4021              1047.1803               611.7767

                     61                     62                     63
                      A                      A                      A
 Frequencies --   1533.2156              1556.7846              1599.7543
 Red. masses --      7.4706                 5.6131                 7.5846
 Frc consts  --     10.3470                 8.0151                11.4364
 IR Inten    --    122.0057                23.1032                63.1273

                     64                     65                     66
                      A                      A                      A
 Frequencies --   1621.5125              1633.8848              3163.4297
 Red. masses --      6.2889                 6.4297                 1.0863
 Frc consts  --      9.7424                10.1132                 6.4050
 IR Inten    --     23.2918                17.5279                11.4005

                     67                     68                     69
                      A                      A                      A
 Frequencies --   3176.7670              3182.4087              3191.1695
 Red. masses --      1.0902                 1.0870                 1.0923
 Frc consts  --      6.4824                 6.4864                 6.5537
 IR Inten    --     18.4795                 3.9755                13.4569

                     70                     71                     72
                      A                      A                      A
 Frequencies --   3194.7093              3195.2289              3202.4682
 Red. masses --      1.0945                 1.0918                 1.0965
 Frc consts  --      6.5814                 6.5675                 6.6259
 IR Inten    --     49.2186                 8.4223                13.5804

 - Thermochemistry -
 -------------------
 Temperature   298.150 Kelvin.  Pressure   1.00000 Atm.
 Atom     1 has atomic number  8 and mass  15.99491

 Molecular mass:   253.03751 amu.
 Principal axes and moments of inertia in atomic units:
                           1         2         3
     Eigenvalues --  2640.394355686.082728068.04244
           X            0.94656  -0.32032   0.03775
           Y            0.32184   0.94572  -0.04503
           Z           -0.02128   0.05477   0.99827
 This molecule is an asymmetric top.
 Rotational symmetry number  1.
 Warning -- assumption of classical behavior for rotation
           may cause significant error
 Rotational temperatures (Kelvin)      0.03280     0.01523     0.01074
 Rotational constants (GHZ):           0.68351     0.31740     0.22369
 Zero-point vibrational energy     469021.7 (Joules/Mol)
                                  112.09888 (Kcal/Mol)
 Warning -- explicit consideration of  21 degrees of freedom as
           vibrations may cause significant error
 Vibrational temperatures:     45.67    70.31   125.54   181.03   218.04
          (Kelvin)            236.67   264.40   322.00   372.04   434.49
                              473.09   520.57   538.80   572.37   601.67
                              639.87   661.64   707.17   721.19   852.20
                              884.06   934.35   939.58   984.83  1014.10
                             1034.19  1059.33  1079.75  1130.44  1143.45
                             1166.87  1187.74  1266.82  1283.03  1343.40
                             1348.52  1416.17  1427.19  1436.49  1447.54
                             1497.50  1558.24  1601.08  1650.83  1671.38
                             1693.28  1724.68  1729.98  1787.52  1794.20
                             1878.54  1946.70  1952.21  1965.96  2036.84
                             2071.58  2129.24  2138.40  2183.01  2198.00
                             2205.96  2239.87  2301.69  2332.99  2350.80
                             4551.47  4570.66  4578.78  4591.38  4596.47
                             4597.22  4607.64

 Zero-point correction=                           0.178641 (Hartree/Particle)
 Thermal correction to Energy=                    0.192611
 Thermal correction to Enthalpy=                  0.193555
 Thermal correction to Gibbs Free Energy=         0.136300
 Sum of electronic and zero-point Energies=           -893.477196
 Sum of electronic and thermal Energies=              -893.463226
 Sum of electronic and thermal Enthalpies=            -893.462282
 Sum of electronic and thermal Free Energies=         -893.519537

                     E (Thermal)             CV                S
                      KCal/Mol        Cal/Mol-Kelvin    Cal/Mol-Kelvin
 Total                  120.865             55.062            120.504
 Electronic               0.000              0.000              1.377
 Translational            0.889              2.981             42.485
 Rotational               0.889              2.981             33.160
 Vibrational            119.088             49.101             43.482
 Vibration     1          0.594              1.983              5.717
 Vibration     2          0.595              1.978              4.863
 Vibration     3          0.601              1.958              3.721
 Vibration     4          0.611              1.927              3.009
 Vibration     5          0.619              1.901              2.653
 Vibration     6          0.623              1.886              2.497
 Vibration     7          0.631              1.862              2.290
 Vibration     8          0.649              1.805              1.928
 Vibration     9          0.667              1.748              1.671
 Vibration    10          0.694              1.670              1.406
 Vibration    11          0.712              1.618              1.266
 Vibration    12          0.736              1.551              1.114
 Vibration    13          0.746              1.524              1.061
 Vibration    14          0.764              1.475              0.971
 Vibration    15          0.781              1.431              0.898
 Vibration    16          0.804              1.373              0.812
 Vibration    17          0.818              1.339              0.766
 Vibration    18          0.847              1.269              0.680
 Vibration    19          0.857              1.247              0.655
 Vibration    20          0.950              1.048              0.463
 Vibration    21          0.974              1.001              0.425

 Optimization completed.
    -- Stationary point found.
 Normal termination of Gaussian 16 at Sat Feb 10 18:23:38 2024.
