 Q-Chem 5.4, Q-Chem, Inc., Pleasanton, CA (2021)
 Q-Chem 5.4.0 for Intel X86 EM64T Linux

User input:
--------------------------------------------------------------
$molecule
0 1
C                 -2.1810480000     -3.8538090000      1.2183020000
C                 -0.7068570000     -3.8946360000      1.3768770000
C                  0.0165230000     -2.7864380000      1.5672900000
C                 -0.6201400000     -1.4493770000      1.6279750000
C                 -2.1013210000     -1.3779270000      1.4551030000
C                 -2.8244990000     -2.4955370000      1.2711100000
O                 -2.8282120000     -4.8665250000      1.0587490000
O                  0.0360020000     -0.4411460000      1.8135160000
Cl                -4.5451360000     -2.4657970000      1.0847160000
C                 -2.6984680000      0.0054440000      1.4526820000
O                 -2.8559040000      0.6526160000      0.4516930000
O                 -3.0003820000      0.3977910000      2.6923000000
C                 -3.5387770000      1.7341410000      2.8208240000
H                 -0.2655460000     -4.8836070000      1.3291890000
H                  1.0938060000     -2.8012110000      1.6874610000
H                 -3.7156630000      1.8691980000      3.8846330000
H                 -4.4686270000      1.8191160000      2.2582460000
H                 -2.8171200000      2.4626640000      2.4512340000
$end
$rem
MAX_SCF_CYCLES=200
BASIS  =  6-311++G(d,p)
GUI  =  2
JOB_TYPE  =  SP
METHOD  =  B3LYP
SOLVENT_METHOD = COSMO
$end
$solvent
dielectric 37.219
opticaldielectric 1.43
$end

--------------------------------------------------------------

             Standard Nuclear Orientation (Angstroms)
    I     Atom           X                Y                Z
 ----------------------------------------------------------------
    1      C       2.2731326601    -0.2780136786     0.1260334262
    2      C       2.6073147607     1.1663457177     0.1729401115
    3      C       1.6682223437     2.1142754688     0.0882455927
    4      C       0.2343223334     1.7699220628    -0.0604354578
    5      C      -0.1283426184     0.3232113710    -0.1266871950
    6      C       0.8187300610    -0.6256501261    -0.0339124405
    7      O       3.1318628317    -1.1290572655     0.2164734891
    8      O      -0.6226080327     2.6318620379    -0.1252996479
    9      Cl      0.4461120135    -2.3152095411    -0.0864828750
   10      C      -1.5872309465     0.0191300923    -0.3491397667
   11      O      -2.0710755859    -0.1223524302    -1.4406862525
   12      O      -2.2433398774    -0.0498934986     0.8112471654
   13      C      -3.6667466806    -0.2908169221     0.7213144476
   14      H       3.6619246600     1.3919268720     0.2825041837
   15      H       1.8972245234     3.1732802197     0.1238111938
   16      H      -4.0181456779    -0.3104699005     1.7495902588
   17      H      -3.8548455212    -1.2444944306     0.2279040553
   18      H      -4.1451883805     0.5134247733     0.1623688416
 ----------------------------------------------------------------

    9   -1069.1151488311      9.68e-06  Convergence criterion met
 Total energy in the final basis set =    -1069.1151488311
    5   -1069.1335962461      5.06e-06  Convergence criterion met
 Total energy in the final basis set =    -1069.1335962461

                    Orbital Energies (a.u.)
 --------------------------------------------------------------

 Alpha MOs
 -- Occupied --
******** -19.1978 -19.1621 -19.1594 -19.1489 -10.3412 -10.3105 -10.3085
-10.2888 -10.2453 -10.2300 -10.2233 -10.2224  -9.5022  -7.2668  -7.2573
 -7.2563  -1.1424  -1.0962  -1.0915  -1.0587  -0.9252  -0.8638  -0.8115
 -0.7520  -0.7232  -0.6672  -0.6290  -0.5928  -0.5596  -0.5483  -0.5172
 -0.5118  -0.5010  -0.4924  -0.4740  -0.4727  -0.4557  -0.4458  -0.4397
 -0.4303  -0.4144  -0.3908  -0.3830  -0.3481  -0.3360  -0.3313  -0.3237
 -0.3120  -0.3014  -0.2952

          Ground-State Mulliken Net Atomic Charges

     Atom                 Charge (a.u.)
  ----------------------------------------
      1 C                    -0.518483
      2 C                     0.120134
      3 C                     0.221644
      4 C                    -0.726634
      5 C                     0.532237
      6 C                     0.315133
      7 O                    -0.234466
      8 O                    -0.232781
      9 Cl                    0.554727
     10 C                    -0.716703
     11 O                    -0.209966
     12 O                     0.018042
     13 C                    -0.256756
     14 H                     0.276056
     15 H                     0.273864
     16 H                     0.192216
     17 H                     0.194387
     18 H                     0.197351
  ----------------------------------------
  Sum of atomic charges =     0.000000

                    Cartesian Multipole Moments
 -----------------------------------------------------------------
    Charge (ESU x 10^10)
                -0.0000
    Dipole Moment (Debye)
         X       0.1595      Y       1.4492      Z       2.4463
       Tot       2.8478
    Quadrupole Moments (Debye-Ang)
        XX     -72.1261     XY      17.1443     YY     -83.9849
        XZ      -7.6370     YZ       0.5801     ZZ     -84.4598

 Total job time:  24.62s(wall), 179.18s(cpu)
        *  Thank you very much for using Q-Chem.  Have a nice day.  *
