 Q-Chem 5.4, Q-Chem, Inc., Pleasanton, CA (2021)
 Q-Chem 5.4.0 for Intel X86 EM64T Linux

User input:
--------------------------------------------------------------
$molecule
0 1
C                 -3.3858650000      3.4924710000      0.0240260000
C                 -4.6175510000      2.8415910000      0.0755270000
C                 -4.6250040000      1.4381900000      0.1350740000
C                 -2.1856880000      2.7757100000      0.0280280000
C                 -2.2093850000      1.3722770000      0.0859070000
C                 -3.4422440000      0.7135950000      0.1396330000
C                 -0.8958880000      3.5253730000     -0.0275050000
C                  0.3641650000      2.7248190000     -0.0219130000
C                  0.3340620000      1.3215310000      0.0361140000
C                 -0.9524800000      0.5724810000      0.0933840000
C                  1.5909370000      3.3931050000     -0.0735210000
C                  2.7967120000      2.6935370000     -0.0697710000
C                  2.7504530000      1.2908880000     -0.0094860000
C                  1.5408160000      0.6141040000      0.0420250000
O                 -0.8725070000      4.7449780000     -0.0757360000
O                 -0.9758210000     -0.6479310000      0.1438710000
C                 -5.9119670000      3.6148630000      0.0560140000
H                 -5.5735810000      0.9122860000      0.1793440000
H                 -3.4476620000     -0.3685530000      0.1860540000
H                  1.5048100000     -0.4674320000      0.0890210000
C                  4.1192940000      3.4144360000     -0.1399570000
H                  3.6782790000      0.7274800000     -0.0021090000
H                 -3.3324630000      4.5741270000     -0.0193410000
H                  1.5791270000      4.4760590000     -0.1157030000
H                 -5.7381490000      4.6857330000      0.1719850000
H                 -6.5795680000      3.2880000000      0.8581250000
H                 -6.4426100000      3.4619190000     -0.8895020000
H                  3.9921650000      4.4921300000     -0.0267450000
H                  4.6106640000      3.2339260000     -1.1016630000
H                  4.8006090000      3.0666870000      0.6416310000
$end
$rem
MAX_SCF_CYCLES=200
BASIS  =  6-311++G(d,p)
GUI  =  2
JOB_TYPE  =  SP
METHOD  =  B3LYP
SOLVENT_METHOD = PCM
$end
$pcm
theory = CPCM
$end
$solvent
dielectric 37.219
opticaldielectric 1.43
$end

--------------------------------------------------------------

             Standard Nuclear Orientation (Angstroms)
    I     Atom           X                Y                Z
 ----------------------------------------------------------------
    1      C      -3.3858650000     3.4924710000     0.0240260000
    2      C      -4.6175510000     2.8415910000     0.0755270000
    3      C      -4.6250040000     1.4381900000     0.1350740000
    4      C      -2.1856880000     2.7757100000     0.0280280000
    5      C      -2.2093850000     1.3722770000     0.0859070000
    6      C      -3.4422440000     0.7135950000     0.1396330000
    7      C      -0.8958880000     3.5253730000    -0.0275050000
    8      C       0.3641650000     2.7248190000    -0.0219130000
    9      C       0.3340620000     1.3215310000     0.0361140000
   10      C      -0.9524800000     0.5724810000     0.0933840000
   11      C       1.5909370000     3.3931050000    -0.0735210000
   12      C       2.7967120000     2.6935370000    -0.0697710000
   13      C       2.7504530000     1.2908880000    -0.0094860000
   14      C       1.5408160000     0.6141040000     0.0420250000
   15      O      -0.8725070000     4.7449780000    -0.0757360000
   16      O      -0.9758210000    -0.6479310000     0.1438710000
   17      C      -5.9119670000     3.6148630000     0.0560140000
   18      H      -5.5735810000     0.9122860000     0.1793440000
   19      H      -3.4476620000    -0.3685530000     0.1860540000
   20      H       1.5048100000    -0.4674320000     0.0890210000
   21      C       4.1192940000     3.4144360000    -0.1399570000
   22      H       3.6782790000     0.7274800000    -0.0021090000
   23      H      -3.3324630000     4.5741270000    -0.0193410000
   24      H       1.5791270000     4.4760590000    -0.1157030000
   25      H      -5.7381490000     4.6857330000     0.1719850000
   26      H      -6.5795680000     3.2880000000     0.8581250000
   27      H      -6.4426100000     3.4619190000    -0.8895020000
   28      H       3.9921650000     4.4921300000    -0.0267450000
   29      H       4.6106640000     3.2339260000    -1.1016630000
   30      H       4.8006090000     3.0666870000     0.6416310000
 ----------------------------------------------------------------

    8    -767.6250864483      9.00e-06  Convergence criterion met
 Total energy in the final basis set =     -767.6250864483

                    Orbital Energies (a.u.)
 --------------------------------------------------------------

 Alpha MOs
 -- Occupied --
-19.1306 -19.1281 -10.2821 -10.2801 -10.2053 -10.2053 -10.2052 -10.2052
-10.2029 -10.2029 -10.1938 -10.1938 -10.1916 -10.1916 -10.1909 -10.1909
-10.1697 -10.1697  -1.0656  -1.0626  -0.8925  -0.8814  -0.8201  -0.7907
 -0.7793  -0.7714  -0.7243  -0.7002  -0.6807  -0.6414  -0.6278  -0.6092
 -0.5836  -0.5468  -0.5445  -0.5047  -0.4839  -0.4791  -0.4707  -0.4579
 -0.4548  -0.4501  -0.4444  -0.4371  -0.4342  -0.4288  -0.4237  -0.4181
 -0.3927  -0.3917  -0.3816  -0.3759  -0.3677  -0.3638  -0.3574  -0.3567
 -0.2872  -0.2819  -0.2766  -0.2738  -0.2708  -0.2625

          Ground-State Mulliken Net Atomic Charges

     Atom                 Charge (a.u.)
  ----------------------------------------
      1 C                    -0.069008
      2 C                     0.355164
      3 C                    -0.597717
      4 C                     0.233710
      5 C                     0.118976
      6 C                     0.295840
      7 C                    -0.532414
      8 C                     0.232848
      9 C                     0.120087
     10 C                    -1.088884
     11 C                    -0.074429
     12 C                     0.355064
     13 C                    -0.590457
     14 C                     0.297173
     15 O                    -0.284695
     16 O                    -0.292954
     17 C                    -0.361998
     18 H                     0.219068
     19 H                     0.197935
     20 H                     0.197589
     21 C                    -0.362878
     22 H                     0.219303
     23 H                     0.161716
     24 H                     0.161699
     25 H                     0.182449
     26 H                     0.170675
     27 H                     0.191452
     28 H                     0.182504
     29 H                     0.191081
     30 H                     0.171102
  ----------------------------------------
  Sum of atomic charges =     0.000000

                    Cartesian Multipole Moments
 -----------------------------------------------------------------
    Charge (ESU x 10^10)
                 0.0000
    Dipole Moment (Debye)
         X       0.0133      Y       0.7653      Z      -0.0987
       Tot       0.7718
    Quadrupole Moments (Debye-Ang)
        XX     -61.9693     XY      -1.8124     YY    -115.6455
        XZ      -0.7765     YZ       0.2036     ZZ    -106.9616

 Total job time:  62.69s(wall), 345.55s(cpu)
        *  Thank you very much for using Q-Chem.  Have a nice day.  *
