 Gaussian 16, Revision A.03,
 Gaussian 16:  ES64L-G16RevA.03 25-Dec-2016

 --------------------------------------
 #P UB3LYP/6-311++G(d,p) nosym opt freq
 --------------------------------------

 -------
 Reduced
 -------
 Symbolic Z-matrix:
 Charge = -2 Multiplicity = 1

 SCF Done:  E(UB3LYP) =  -1451.24432246     A.U. after   24 cycles
 SCF Done:  E(UB3LYP) =  -1451.28053777     A.U. after   23 cycles
 SCF Done:  E(UB3LYP) =  -1451.29554634     A.U. after   19 cycles
 SCF Done:  E(UB3LYP) =  -1451.30362659     A.U. after   18 cycles
 SCF Done:  E(UB3LYP) =  -1451.31090044     A.U. after   19 cycles
 SCF Done:  E(UB3LYP) =  -1451.30794057     A.U. after   19 cycles
 SCF Done:  E(UB3LYP) =  -1451.31635836     A.U. after   19 cycles
 SCF Done:  E(UB3LYP) =  -1451.32458914     A.U. after   19 cycles
 SCF Done:  E(UB3LYP) =  -1451.33033359     A.U. after   18 cycles
 SCF Done:  E(UB3LYP) =  -1451.33197260     A.U. after   19 cycles
 SCF Done:  E(UB3LYP) =  -1451.33164454     A.U. after   17 cycles
 SCF Done:  E(UB3LYP) =  -1451.33266897     A.U. after   16 cycles
 SCF Done:  E(UB3LYP) =  -1451.33287681     A.U. after   15 cycles
 SCF Done:  E(UB3LYP) =  -1451.33289712     A.U. after   15 cycles
 SCF Done:  E(UB3LYP) =  -1451.33290380     A.U. after   14 cycles
 SCF Done:  E(UB3LYP) =  -1451.33290618     A.U. after   14 cycles
 Optimization completed.
    -- Stationary point found.
 Normal termination of Gaussian 16 at Wed Dec 20 02:17:27 2023.

 ----------------------------------------------------------------------
 #P Geom=AllCheck Guess=TCheck SCRF=Check GenChk UB3LYP/6-311++G(d,p) F
 req
 ----------------------------------------------------------------------

 Structure from the checkpoint file:  "112-an.chk"
 -------
 Reduced
 -------
 Charge = -2 Multiplicity = 1

                          Input orientation:
 ---------------------------------------------------------------------
 Center     Atomic      Atomic             Coordinates (Angstroms)
 Number     Number       Type             X           Y           Z
 ---------------------------------------------------------------------
      1          8           0        2.551857   -1.023298   -0.256052
      2          6           0        1.292638   -0.466371   -0.125286
      3          6           0        1.051176    0.901238   -0.001384
      4         17           0        2.446876    2.028638   -0.008557
      5          6           0       -0.251256    1.443089    0.130906
      6          8           0       -0.605584    2.699570    0.254327
      7          6           0       -1.292964    0.466026    0.125052
      8          6           0       -1.051402   -0.900951    0.001495
      9         17           0       -2.446989   -2.028960    0.009780
     10          6           0        0.251527   -1.443152   -0.130467
     11          8           0        0.604751   -2.699884   -0.253382
     12          8           0       -2.551528    1.023605    0.254536
     13          1           0        2.276289   -1.976351   -0.311444
     14          1           0       -2.275391    1.976802    0.310476
 ---------------------------------------------------------------------

 SCF Done:  E(UB3LYP) =  -1451.33290618     A.U. after    2 cycles

 Alpha  occ. eigenvalues -- -101.28092-101.28089 -18.86013 -18.86012 -18.77271
 Alpha  occ. eigenvalues --  -18.77261  -9.93329  -9.93327  -9.93217  -9.93209
 Alpha  occ. eigenvalues --   -9.92485  -9.92482  -9.19504  -9.19500  -6.95900
 Alpha  occ. eigenvalues --   -6.95897  -6.95048  -6.95045  -6.94985  -6.94982
 Alpha  occ. eigenvalues --   -0.77308  -0.77118  -0.67383  -0.67326  -0.58876
 Alpha  occ. eigenvalues --   -0.57973  -0.51510  -0.42424  -0.39840  -0.31064
 Alpha  occ. eigenvalues --   -0.29591  -0.26034  -0.21387  -0.20196  -0.17390
 Alpha  occ. eigenvalues --   -0.16021  -0.15102  -0.11391  -0.11268  -0.10913
 Alpha  occ. eigenvalues --   -0.09410  -0.08973  -0.06999  -0.06883  -0.04442
 Alpha  occ. eigenvalues --   -0.04235  -0.04027  -0.03426   0.03410   0.03621
 Alpha  occ. eigenvalues --    0.04167   0.06667   0.13585
 Alpha virt. eigenvalues --    0.20845   0.21653   0.22295   0.23183   0.27545
 Alpha virt. eigenvalues --    0.27591   0.27899   0.28400   0.28494   0.29531
 Alpha virt. eigenvalues --    0.29576   0.29996   0.30453   0.32092   0.32379

  Beta  occ. eigenvalues -- -101.28092-101.28089 -18.86013 -18.86012 -18.77271
  Beta  occ. eigenvalues --  -18.77261  -9.93329  -9.93327  -9.93217  -9.93209
  Beta  occ. eigenvalues --   -9.92485  -9.92482  -9.19504  -9.19500  -6.95900
  Beta  occ. eigenvalues --   -6.95897  -6.95048  -6.95045  -6.94985  -6.94982
  Beta  occ. eigenvalues --   -0.77308  -0.77118  -0.67383  -0.67326  -0.58876
  Beta  occ. eigenvalues --   -0.57973  -0.51510  -0.42424  -0.39840  -0.31064
  Beta  occ. eigenvalues --   -0.29591  -0.26034  -0.21387  -0.20196  -0.17390
  Beta  occ. eigenvalues --   -0.16021  -0.15102  -0.11391  -0.11268  -0.10913
  Beta  occ. eigenvalues --   -0.09410  -0.08973  -0.06999  -0.06883  -0.04442
  Beta  occ. eigenvalues --   -0.04235  -0.04027  -0.03426   0.03410   0.03621
  Beta  occ. eigenvalues --    0.04167   0.06667   0.13585
  Beta virt. eigenvalues --    0.20845   0.21653   0.22295   0.23183   0.27545
  Beta virt. eigenvalues --    0.27591   0.27899   0.28400   0.28494   0.29531
  Beta virt. eigenvalues --    0.29576   0.29996   0.30453   0.32092   0.32379

 Mulliken charges and spin densities:
               1          2
     1  O   -0.273615   0.000000
     2  C   -1.651661  -0.000000
     3  C    2.725932   0.000000
     4  Cl   0.005877  -0.000000
     5  C   -1.472505  -0.000000
     6  O   -0.567632  -0.000000
     7  C   -1.654665   0.000000
     8  C    2.726428  -0.000000
     9  Cl   0.005889   0.000000
    10  C   -1.470394  -0.000000
    11  O   -0.567664   0.000000
    12  O   -0.273514  -0.000000
    13  H    0.233692   0.000000
    14  H    0.233832   0.000000
 Sum of Mulliken charges =  -2.00000  -0.00000

 Dipole moment (field-independent basis, Debye):
    X=              0.0003    Y=              0.0045    Z=             -0.0018  Tot=              0.0048
 Quadrupole moment (field-independent basis, Debye-Ang):
   XX=           -126.1588   YY=           -143.0125   ZZ=            -90.5378
   XY=             -3.3637   XZ=              2.2167   YZ=             -3.9314

  Exact polarizability: 165.468  12.821 169.101  -5.112   6.397  77.217
 Approx polarizability: 248.273   2.310 268.045  -9.217  12.148 112.943

                      1                      2                      3
                      A                      A                      A
 Frequencies --     80.3287               148.2013               149.3147
 Red. masses --     20.5831                13.9934                14.3694
 Frc consts  --      0.0783                 0.1811                 0.1888
 IR Inten    --      1.8195                 3.2610                 0.0056

                      4                      5                      6
                      A                      A                      A
 Frequencies --    186.5184               189.2889               203.7571
 Red. masses --     20.7714                 8.8193                14.5459
 Frc consts  --      0.4258                 0.1862                 0.3558
 IR Inten    --      4.1604                 1.5512                 0.0000

                      7                      8                      9
                      A                      A                      A
 Frequencies --    220.9807               294.8318               307.1549
 Red. masses --      9.0397                18.1783                 8.7583
 Frc consts  --      0.2601                 0.9310                 0.4868
 IR Inten    --      0.0006                 0.0001                13.5137

                     10                     11                     12
                      A                      A                      A
 Frequencies --    345.0520               356.0843               369.8352
 Red. masses --      8.3197                 8.4037                12.1259
 Frc consts  --      0.5836                 0.6278                 0.9772
 IR Inten    --     25.1757                 0.0081                 0.0000

                     13                     14                     15
                      A                      A                      A
 Frequencies --    466.4944               499.7654               522.4398
 Red. masses --     12.2744                16.2888                12.0061
 Frc consts  --      1.5738                 2.3970                 1.9307
 IR Inten    --      0.0000                 3.0153                 0.0001

                     16                     17                     18
                      A                      A                      A
 Frequencies --    543.0606               689.7547               713.2393
 Red. masses --      6.9807                11.6966                11.8649
 Frc consts  --      1.2130                 3.2787                 3.5562
 IR Inten    --      5.5783                 0.1957                 0.0001

                     19                     20                     21
                      A                      A                      A
 Frequencies --    770.2754               775.5575               780.6143
 Red. masses --      1.0991                 8.9763                11.0413
 Frc consts  --      0.3842                 3.1811                 3.9641
 IR Inten    --      1.5369                 0.0027               275.0347

                     22                     23                     24
                      A                      A                      A
 Frequencies --    781.5521               878.6514               994.5110
 Red. masses --      1.1541                12.7646                12.4686
 Frc consts  --      0.4154                 5.8062                 7.2658
 IR Inten    --    131.8580                 0.0046               407.0376

                     25                     26                     27
                      A                      A                      A
 Frequencies --   1129.6683              1147.3228              1184.8888
 Red. masses --     11.1732                 6.0773                 9.5602
 Frc consts  --      8.4009                 4.7134                 7.9081
 IR Inten    --      0.0079               156.8551               178.4454

                     28                     29                     30
                      A                      A                      A
 Frequencies --   1338.7864              1417.4840              1426.0108
 Red. masses --      2.2028                 3.6151                 9.1288
 Frc consts  --      2.3262                 4.2796                10.9373
 IR Inten    --      0.0452               191.2327                 1.0278

                     31                     32                     33
                      A                      A                      A
 Frequencies --   1435.9173              1539.3682              1549.3222
 Red. masses --      5.6287                 2.0880                 2.6377
 Frc consts  --      6.8378                 2.9152                 3.7304
 IR Inten    --   1002.6518               112.7063                 0.0907

                     34                     35                     36
                      A                      A                      A
 Frequencies --   1630.9197              3282.4969              3288.1131
 Red. masses --      6.1483                 1.0635                 1.0635
 Frc consts  --      9.6354                 6.7517                 6.7745
 IR Inten    --      0.0039               267.5104                86.0014

 - Thermochemistry -
 -------------------
 Temperature   298.150 Kelvin.  Pressure   1.00000 Atm.
 Atom     1 has atomic number  8 and mass  15.99491

 Molecular mass:   207.93301 amu.
 Principal axes and moments of inertia in atomic units:
                           1         2         3
     Eigenvalues --  1701.652653153.481134855.13333
           X            0.77322  -0.63044   0.06835
           Y            0.63413   0.76928  -0.07804
           Z           -0.00338   0.10369   0.99460
 This molecule is an asymmetric top.
 Rotational symmetry number  1.
 Warning -- assumption of classical behavior for rotation
           may cause significant error
 Rotational temperatures (Kelvin)      0.05090     0.02747     0.01784
 Rotational constants (GHZ):           1.06058     0.57230     0.37172
 Zero-point vibrational energy     189234.6 (Joules/Mol)
                                   45.22817 (Kcal/Mol)
 Warning -- explicit consideration of  16 degrees of freedom as
           vibrations may cause significant error
 Vibrational temperatures:    115.58   213.23   214.83   268.36   272.34
          (Kelvin)            293.16   317.94   424.20   441.93   496.45
                              512.33   532.11   671.18   719.05   751.67
                              781.34   992.40  1026.19  1108.25  1115.85
                             1123.13  1124.48  1264.18  1430.88  1625.34
                             1650.74  1704.79  1926.22  2039.44  2051.71
                             2065.96  2214.81  2229.13  2346.53  4722.78
                             4730.86

 Zero-point correction=                           0.072076 (Hartree/Particle)
 Thermal correction to Energy=                    0.082754
 Thermal correction to Enthalpy=                  0.083698
 Thermal correction to Gibbs Free Energy=         0.035162
 Sum of electronic and zero-point Energies=          -1451.260831
 Sum of electronic and thermal Energies=             -1451.250152
 Sum of electronic and thermal Enthalpies=           -1451.249208
 Sum of electronic and thermal Free Energies=        -1451.297744

                     E (Thermal)             CV                S
                      KCal/Mol        Cal/Mol-Kelvin    Cal/Mol-Kelvin
 Total                   51.929             38.676            102.153
 Electronic               0.000              0.000              0.000
 Translational            0.889              2.981             41.900
 Rotational               0.889              2.981             31.633
 Vibrational             50.152             32.715             28.620
 Vibration     1          0.600              1.963              3.883
 Vibration     2          0.618              1.905              2.695
 Vibration     3          0.618              1.903              2.681
 Vibration     4          0.632              1.858              2.262
 Vibration     5          0.633              1.855              2.235
 Vibration     6          0.639              1.835              2.099
 Vibration     7          0.648              1.809              1.951
 Vibration     8          0.689              1.683              1.446
 Vibration     9          0.697              1.660              1.378
 Vibration    10          0.723              1.585              1.189
 Vibration    11          0.732              1.563              1.139
 Vibration    12          0.742              1.534              1.080
 Vibration    13          0.824              1.324              0.747
 Vibration    14          0.855              1.251              0.659
 Vibration    15          0.877              1.200              0.604
 Vibration    16          0.898              1.155              0.559

                           ! Non-Optimized Parameters !
 Normal termination of Gaussian 16 at Wed Dec 20 02:26:43 2023.
