 Gaussian 16, Revision A.03,
 Gaussian 16:  ES64L-G16RevA.03 25-Dec-2016

 ----------------------------------------------------------------------
 #P UB3LYP/6-311++G(d,p) nosym opt freq SCRF=(PCM,Solvent=n,n-DiMethylF
 ormamide)
 ----------------------------------------------------------------------

 -------
 Radical
 -------
 Symbolic Z-matrix:
 Charge = -1 Multiplicity = 2

 SCF Done:  E(UB3LYP) =  -846.384442697     A.U. after   19 cycles
 SCF Done:  E(UB3LYP) =  -846.384969341     A.U. after   15 cycles
 SCF Done:  E(UB3LYP) =  -846.385093844     A.U. after   15 cycles
 SCF Done:  E(UB3LYP) =  -846.385112940     A.U. after   12 cycles
 SCF Done:  E(UB3LYP) =  -846.385113827     A.U. after   12 cycles
 SCF Done:  E(UB3LYP) =  -846.385117302     A.U. after   11 cycles
 SCF Done:  E(UB3LYP) =  -846.385117959     A.U. after   10 cycles
 SCF Done:  E(UB3LYP) =  -846.385118498     A.U. after   10 cycles
 SCF Done:  E(UB3LYP) =  -846.385118845     A.U. after   10 cycles
 SCF Done:  E(UB3LYP) =  -846.385119046     A.U. after    9 cycles
 SCF Done:  E(UB3LYP) =  -846.385119112     A.U. after    9 cycles
 SCF Done:  E(UB3LYP) =  -846.385119131     A.U. after    8 cycles
 SCF Done:  E(UB3LYP) =  -846.385119137     A.U. after    8 cycles
 Optimization completed.
    -- Stationary point found.
 Normal termination of Gaussian 16 at Sun Feb 11 16:59:38 2024.

 ----------------------------------------------------------------------
 #P Geom=AllCheck Guess=TCheck SCRF=Check GenChk UB3LYP/6-311++G(d,p) F
 req
 ----------------------------------------------------------------------

 Structure from the checkpoint file:  "330-rad.chk"
 -------
 Radical
 -------
 Charge = -1 Multiplicity = 2

                          Input orientation:
 ---------------------------------------------------------------------
 Center     Atomic      Atomic             Coordinates (Angstroms)
 Number     Number       Type             X           Y           Z
 ---------------------------------------------------------------------
      1          6           0        4.728953    0.221679    0.959133
      2          6           0        3.956711   -0.604184   -0.086611
      3          6           0        4.599836   -0.466848   -1.479019
      4          6           0        2.476375   -0.254408   -0.105441
      5          6           0        2.028478    1.036772   -0.455048
      6          6           0        0.678957    1.345648   -0.465631
      7          6           0       -0.309679    0.395188   -0.130130
      8          6           0        0.132441   -0.903277    0.223147
      9          6           0        1.515015   -1.195273    0.225179
     10          6           0       -0.814029   -1.957025    0.592265
     11          8           0       -0.409260   -3.114718    0.896592
     12          6           0       -2.255826   -1.644337    0.610495
     13          8           0       -3.069256   -2.545823    0.950511
     14          6           0       -2.704475   -0.289453    0.227493
     15          6           0       -4.096466    0.051653    0.210638
     16          6           0       -5.211004   -0.906366    0.571891
     17          6           0       -4.475597    1.338397   -0.160063
     18          6           0       -3.535216    2.308836   -0.516950
     19          6           0       -2.190404    1.991898   -0.503744
     20          6           0       -1.743673    0.707426   -0.137055
     21          1           0        4.300581    0.094874    1.957068
     22          1           0        4.708475    1.288652    0.717009
     23          1           0        5.776795   -0.091241    0.996850
     24          1           0        4.028959   -1.657165    0.207054
     25          1           0        4.078981   -1.082704   -2.217176
     26          1           0        5.646795   -0.783586   -1.450197
     27          1           0        4.575324    0.569994   -1.827955
     28          1           0        2.743328    1.808293   -0.720961
     29          1           0        0.396380    2.353214   -0.740997
     30          1           0        1.810331   -2.201268    0.500882
     31          1           0       -5.116771   -1.273727    1.595084
     32          1           0       -6.173699   -0.398918    0.467654
     33          1           0       -5.209460   -1.791677   -0.065885
     34          1           0       -5.531058    1.590125   -0.171998
     35          1           0       -3.858567    3.303708   -0.803049
     36          1           0       -1.478274    2.755644   -0.784489
 ---------------------------------------------------------------------

 SCF Done:  E(UB3LYP) =  -846.385119137     A.U. after    1 cycles

 Alpha  occ. eigenvalues --  -19.07060 -19.06898 -10.21387 -10.21093 -10.18433
 Alpha  occ. eigenvalues --  -10.18281 -10.18090 -10.17699 -10.17592 -10.17489
 Alpha  occ. eigenvalues --  -10.17152 -10.17002 -10.16933 -10.16871 -10.16843
 Alpha  occ. eigenvalues --  -10.16485 -10.16299 -10.15653 -10.15652 -10.15267
 Alpha  occ. eigenvalues --   -1.00655  -0.97549  -0.87185  -0.84980  -0.80851
 Alpha  occ. eigenvalues --   -0.77246  -0.77005  -0.74840  -0.71766  -0.69445
 Alpha  occ. eigenvalues --   -0.68272  -0.66256  -0.62940  -0.60587  -0.59171
 Alpha  occ. eigenvalues --   -0.57492  -0.55959  -0.51944  -0.49949  -0.48304
 Alpha  occ. eigenvalues --   -0.46675  -0.46036  -0.45194  -0.43511  -0.43067
 Alpha  occ. eigenvalues --   -0.42648  -0.41784  -0.41409  -0.41300  -0.40313
 Alpha  occ. eigenvalues --   -0.39956  -0.39417  -0.38954  -0.38562  -0.37180
 Alpha  occ. eigenvalues --   -0.36892  -0.35641  -0.35552  -0.34467  -0.34205
 Alpha  occ. eigenvalues --   -0.33602  -0.32781  -0.32489  -0.32116  -0.28179
 Alpha  occ. eigenvalues --   -0.25712  -0.24792  -0.24711  -0.22151  -0.21912
 Alpha  occ. eigenvalues --   -0.14859
 Alpha virt. eigenvalues --   -0.03713  -0.02843  -0.00536   0.00116   0.00371
 Alpha virt. eigenvalues --    0.00882   0.01672   0.01825   0.01864   0.02430
 Alpha virt. eigenvalues --    0.03372   0.03600   0.04008   0.04026   0.04773

  Beta  occ. eigenvalues --  -19.06446 -19.06258 -10.21211 -10.20880 -10.18347
  Beta  occ. eigenvalues --  -10.18207 -10.17999 -10.17698 -10.17621 -10.17516
  Beta  occ. eigenvalues --  -10.17193 -10.16955 -10.16925 -10.16862 -10.16776
  Beta  occ. eigenvalues --  -10.16499 -10.16222 -10.15654 -10.15652 -10.15269
  Beta  occ. eigenvalues --   -0.99560  -0.96375  -0.87018  -0.84883  -0.80749
  Beta  occ. eigenvalues --   -0.77143  -0.76727  -0.74664  -0.71669  -0.69066
  Beta  occ. eigenvalues --   -0.68273  -0.65794  -0.62854  -0.60357  -0.58883
  Beta  occ. eigenvalues --   -0.57360  -0.55810  -0.51828  -0.49756  -0.48194
  Beta  occ. eigenvalues --   -0.46440  -0.45903  -0.45114  -0.43429  -0.43014
  Beta  occ. eigenvalues --   -0.41844  -0.41746  -0.41221  -0.41218  -0.39791
  Beta  occ. eigenvalues --   -0.39176  -0.39157  -0.38889  -0.38464  -0.37031
  Beta  occ. eigenvalues --   -0.35553  -0.35507  -0.35210  -0.34386  -0.33836
  Beta  occ. eigenvalues --   -0.33548  -0.32436  -0.32077  -0.30486  -0.27558
  Beta  occ. eigenvalues --   -0.24778  -0.24092  -0.23948  -0.21585  -0.21505
  Beta virt. eigenvalues --   -0.08304  -0.03426  -0.01613  -0.00530   0.00119
  Beta virt. eigenvalues --    0.00893   0.01516   0.01688   0.01829   0.01919
  Beta virt. eigenvalues --    0.02754   0.03372   0.03611   0.04031   0.04113

 Mulliken charges and spin densities:
               1          2
     1  C   -0.675699   0.000492
     2  C    0.137632   0.007119
     3  C   -0.673944   0.000508
     4  C    0.639833  -0.030963
     5  C   -0.804784   0.083357
     6  C   -0.212582  -0.024200
     7  C    0.410325   0.054607
     8  C    0.937949   0.014459
     9  C   -0.408109   0.073918
    10  C   -0.747530   0.141021
    11  O   -0.484861   0.232760
    12  C   -0.885530   0.095930
    13  O   -0.439229   0.239711
    14  C    0.639349  -0.019990
    15  C    0.519840   0.063925
    16  C   -0.355328  -0.001956
    17  C   -0.493512  -0.016581
    18  C   -0.635111   0.074742
    19  C   -0.391215  -0.025483
    20  C    0.516400   0.046764
    21  H    0.139925   0.000123
    22  H    0.155665  -0.000241
    23  H    0.154593  -0.000353
    24  H    0.192121  -0.000041
    25  H    0.139738   0.000137
    26  H    0.155431  -0.000355
    27  H    0.154841  -0.000198
    28  H    0.188791  -0.005391
    29  H    0.102525   0.002445
    30  H    0.154256  -0.006833
    31  H    0.160424   0.001904
    32  H    0.143244  -0.000323
    33  H    0.159193   0.001827
    34  H    0.116677   0.000327
    35  H    0.203568  -0.005153
    36  H    0.085115   0.001984
 Sum of Mulliken charges =  -1.00000   1.00000

 Dipole moment (field-independent basis, Debye):
    X=              8.4343    Y=             13.0805    Z=             -4.2743  Tot=             16.1402
 Quadrupole moment (field-independent basis, Debye-Ang):
   XX=           -136.1654   YY=           -159.1741   ZZ=           -129.9470
   XY=            -20.9866   XZ=              6.8699   YZ=             10.6174

  Exact polarizability: 512.107 -20.214 376.642 -14.436 -56.003 203.115
 Approx polarizability: 522.401 -15.170 440.758 -15.421 -68.663 229.551

                      1                      2                      3
                      A                      A                      A
 Frequencies --     29.9648                38.8016                48.3321
 Red. masses --      3.2140                 3.9398                 4.7329
 Frc consts  --      0.0017                 0.0035                 0.0065
 IR Inten    --      0.0192                 4.6087                 1.7876

                      4                      5                      6
                      A                      A                      A
 Frequencies --     62.5812               128.3046               147.4602
 Red. masses --      4.2025                 3.8093                 3.8197
 Frc consts  --      0.0097                 0.0369                 0.0489
 IR Inten    --      0.4044                 4.7438                 0.1931

                      7                      8                      9
                      A                      A                      A
 Frequencies --    151.7002               205.4985               230.7174
 Red. masses --      5.0156                 2.5676                 1.0609
 Frc consts  --      0.0680                 0.0639                 0.0333
 IR Inten    --      1.9692                 0.5824                 0.1090

                     10                     11                     12
                      A                      A                      A
 Frequencies --    232.4542               238.6955               246.9314
 Red. masses --      2.7027                 1.1834                 1.4260
 Frc consts  --      0.0860                 0.0397                 0.0512
 IR Inten    --      1.0785                 0.2448                 1.2260

                     13                     14                     15
                      A                      A                      A
 Frequencies --    269.8405               272.7045               323.8024
 Red. masses --      4.2984                 2.6839                 4.8533
 Frc consts  --      0.1844                 0.1176                 0.2998
 IR Inten    --      1.2103                 5.0900                 2.4222

                     16                     17                     18
                      A                      A                      A
 Frequencies --    360.5987               380.6880               393.7969
 Red. masses --      3.4431                 4.7853                 5.2851
 Frc consts  --      0.2638                 0.4086                 0.4829
 IR Inten    --      1.9576                 2.7556                 1.7821

                     19                     20                     21
                      A                      A                      A
 Frequencies --    401.1830               406.2062               443.7055
 Red. masses --      7.3521                 4.8454                 4.8579
 Frc consts  --      0.6972                 0.4711                 0.5635
 IR Inten    --     15.7839                 7.4440                 6.2912

                     22                     23                     24
                      A                      A                      A
 Frequencies --    455.1286               462.4317               506.6970
 Red. masses --      3.4185                 6.5396                 3.8387
 Frc consts  --      0.4172                 0.8239                 0.5807
 IR Inten    --     11.7311                 5.8738                 0.1701

                     25                     26                     27
                      A                      A                      A
 Frequencies --    538.2286               558.8055               568.9425
 Red. masses --      4.0647                 5.4678                 4.0326
 Frc consts  --      0.6938                 1.0060                 0.7691
 IR Inten    --      5.6598                 5.4546                 7.1739

                     28                     29                     30
                      A                      A                      A
 Frequencies --    593.5767               632.5711               644.9395
 Red. masses --      3.2043                 3.5187                 5.6178
 Frc consts  --      0.6652                 0.8296                 1.3768
 IR Inten    --      0.1876                 2.9480                 1.5510

                     31                     32                     33
                      A                      A                      A
 Frequencies --    691.9407               718.6386               726.1832
 Red. masses --      7.3021                 3.3501                 5.1228
 Frc consts  --      2.0598                 1.0194                 1.5917
 IR Inten    --     21.8265                18.0533                14.1485

                     34                     35                     36
                      A                      A                      A
 Frequencies --    740.3389               761.5700               780.5069
 Red. masses --      4.0489                 9.2074                 1.5039
 Frc consts  --      1.3075                 3.1463                 0.5398
 IR Inten    --     14.4573                 1.0036                69.1628

                     37                     38                     39
                      A                      A                      A
 Frequencies --    811.8804               827.6212               870.8633
 Red. masses --      5.0566                 1.5300                 5.5450
 Frc consts  --      1.9638                 0.6174                 2.4777
 IR Inten    --      1.7011                36.3818                60.6131

                     40                     41                     42
                      A                      A                      A
 Frequencies --    893.8760               901.4203               924.4057
 Red. masses --      2.9989                 1.3455                 1.3435
 Frc consts  --      1.4118                 0.6442                 0.6764
 IR Inten    --     19.8130                 0.2239                10.1675

                     43                     44                     45
                      A                      A                      A
 Frequencies --    932.2951               959.1150               965.8266
 Red. masses --      1.2346                 1.5185                 3.8011
 Frc consts  --      0.6323                 0.8230                 2.0891
 IR Inten    --      9.7265                 0.0456                13.6782

                     46                     47                     48
                      A                      A                      A
 Frequencies --    967.2192               978.7512              1016.3488
 Red. masses --      1.3517                 1.3048                 1.7430
 Frc consts  --      0.7450                 0.7364                 1.0608
 IR Inten    --      0.3382                 0.8596                 2.4157

                     49                     50                     51
                      A                      A                      A
 Frequencies --   1053.1624              1061.7456              1071.4036
 Red. masses --      1.5360                 1.8002                 3.4420
 Frc consts  --      1.0037                 1.1956                 2.3279
 IR Inten    --      4.3249                 4.5557                39.5015

                     52                     53                     54
                      A                      A                      A
 Frequencies --   1082.4979              1115.3419              1126.7638
 Red. masses --      3.2129                 2.3464                 1.8722
 Frc consts  --      2.2182                 1.7198                 1.4004
 IR Inten    --     17.8192                 2.6346                 9.7697

                     55                     56                     57
                      A                      A                      A
 Frequencies --   1157.1816              1176.9903              1199.5199
 Red. masses --      1.8315                 1.4342                 1.6208
 Frc consts  --      1.4450                 1.1706                 1.3741
 IR Inten    --      2.8083                 4.1181                 0.3267

                     58                     59                     60
                      A                      A                      A
 Frequencies --   1206.3270              1225.0064              1250.1108
 Red. masses --      2.0075                 3.5245                 2.1058
 Frc consts  --      1.7212                 3.1162                 1.9390
 IR Inten    --      9.5401                 4.9674                 5.5521

                     61                     62                     63
                      A                      A                      A
 Frequencies --   1265.9008              1279.1651              1309.3405
 Red. masses --      2.5740                 2.5674                 5.6921
 Frc consts  --      2.4303                 2.4751                 5.7494
 IR Inten    --     14.8846                44.7440                 3.0221

                     64                     65                     66
                      A                      A                      A
 Frequencies --   1323.9434              1339.8951              1342.7687
 Red. masses --      2.3447                 3.1366                 1.3154
 Frc consts  --      2.4214                 3.3178                 1.3974
 IR Inten    --      9.1898                 0.3105                 3.0453

                     67                     68                     69
                      A                      A                      A
 Frequencies --   1373.6368              1391.1619              1404.1244
 Red. masses --      2.5831                 1.2184                 2.1855
 Frc consts  --      2.8717                 1.3892                 2.5387
 IR Inten    --     36.3834                 6.8776                56.5703

                     70                     71                     72
                      A                      A                      A
 Frequencies --   1410.7239              1411.4568              1440.0994
 Red. masses --      1.2279                 1.3129                 3.5605
 Frc consts  --      1.4398                 1.5410                 4.3506
 IR Inten    --      3.7847                25.4750               312.3714

                     73                     74                     75
                      A                      A                      A
 Frequencies --   1461.2750              1462.8523              1478.1250
 Red. masses --      1.0575                 1.7829                 1.0433
 Frc consts  --      1.3304                 2.2479                 1.3430
 IR Inten    --      9.9307                54.6025                 0.0262

                     76                     77                     78
                      A                      A                      A
 Frequencies --   1483.7873              1486.7888              1491.8960
 Red. masses --      1.0475                 1.4188                 1.0907
 Frc consts  --      1.3588                 1.8479                 1.4303
 IR Inten    --      4.2028                17.0807                 5.1024

                     79                     80                     81
                      A                      A                      A
 Frequencies --   1495.3504              1502.6039              1508.5405
 Red. masses --      1.2379                 3.6951                 3.3123
 Frc consts  --      1.6309                 4.9154                 4.4411
 IR Inten    --    217.2507               508.4562               571.1633

                     82                     83                     84
                      A                      A                      A
 Frequencies --   1542.2144              1578.8331              1596.6361
 Red. masses --      3.5835                 6.7298                 6.6953
 Frc consts  --      5.0216                 9.8838                10.0562
 IR Inten    --    393.7400               150.5881               118.4760

                     85                     86                     87
                      A                      A                      A
 Frequencies --   1617.5630              1634.6144              3015.0447
 Red. masses --      4.7602                 6.0766                 1.0341
 Frc consts  --      7.3383                 9.5662                 5.5388
 IR Inten    --     31.8614                 9.8674                50.7059

                     88                     89                     90
                      A                      A                      A
 Frequencies --   3018.9697              3019.6196              3032.2658
 Red. masses --      1.0624                 1.0555                 1.0383
 Frc consts  --      5.7050                 5.6705                 5.6246
 IR Inten    --     42.7917                50.7292                79.7144

                     91                     92                     93
                      A                      A                      A
 Frequencies --   3076.1903              3081.0719              3084.7776
 Red. masses --      1.1023                 1.1013                 1.1025
 Frc consts  --      6.1456                 6.1594                 6.1812
 IR Inten    --      0.0085               157.0161                40.9912

                     94                     95                     96
                      A                      A                      A
 Frequencies --   3086.3669              3097.1513              3099.7970
 Red. masses --      1.1017                 1.0995                 1.0991
 Frc consts  --      6.1831                 6.2138                 6.2225
 IR Inten    --     69.1204                41.1178                27.6802

                     97                     98                     99
                      A                      A                      A
 Frequencies --   3154.6427              3162.7741              3172.9163
 Red. masses --      1.0869                 1.0877                 1.0922
 Frc consts  --      6.3731                 6.4108                 6.4784
 IR Inten    --     25.6054                23.2340                46.7823

                    100                    101                    102
                      A                      A                      A
 Frequencies --   3177.7795              3189.9114              3209.8838
 Red. masses --      1.0886                 1.0938                 1.0890
 Frc consts  --      6.4770                 6.5578                 6.6106
 IR Inten    --     14.7455                 2.8459                49.5018

 - Thermochemistry -
 -------------------
 Temperature   298.150 Kelvin.  Pressure   1.00000 Atm.
 Atom     1 has atomic number  6 and mass  12.00000

 Molecular mass:   264.11503 amu.
 Principal axes and moments of inertia in atomic units:
                           1         2         3
     Eigenvalues --  2461.176778929.95475**********
           X            0.99830   0.00619   0.05804
           Y           -0.02265   0.95752   0.28748
           Z           -0.05380  -0.28831   0.95603
 This molecule is an asymmetric top.
 Rotational symmetry number  1.
 Warning -- assumption of classical behavior for rotation
           may cause significant error
 Rotational temperatures (Kelvin)      0.03519     0.00970     0.00788
 Rotational constants (GHZ):           0.73328     0.20210     0.16425
 Zero-point vibrational energy     756534.0 (Joules/Mol)
                                  180.81596 (Kcal/Mol)
 Warning -- explicit consideration of  28 degrees of freedom as
           vibrations may cause significant error
 Vibrational temperatures:     43.11    55.83    69.54    90.04   184.60
          (Kelvin)            212.16   218.26   295.67   331.95   334.45
                              343.43   355.28   388.24   392.36   465.88
                              518.82   547.73   566.59   577.21   584.44
                              638.39   654.83   665.34   729.02   774.39
                              804.00   818.58   854.02   910.13   927.92
                              995.55  1033.96  1044.82  1065.18  1095.73
                             1122.98  1168.11  1190.76  1252.98  1286.09
                             1296.94  1330.01  1341.36  1379.95  1389.61
                             1391.61  1408.20  1462.30  1515.27  1527.62
                             1541.51  1557.47  1604.73  1621.16  1664.93
                             1693.43  1725.84  1735.64  1762.51  1798.63
                             1821.35  1840.43  1883.85  1904.86  1927.81
                             1931.94  1976.36  2001.57  2020.22  2029.72
                             2030.77  2071.98  2102.45  2104.72  2126.69
                             2134.84  2139.16  2146.51  2151.48  2161.91
                             2170.45  2218.90  2271.59  2297.20  2327.31
                             2351.85  4337.98  4343.62  4344.56  4362.75
                             4425.95  4432.98  4438.31  4440.59  4456.11
                             4459.92  4538.83  4550.53  4565.12  4572.12
                             4589.57  4618.31

 Zero-point correction=                           0.288149 (Hartree/Particle)
 Thermal correction to Energy=                    0.305462
 Thermal correction to Enthalpy=                  0.306407
 Thermal correction to Gibbs Free Energy=         0.242003
 Sum of electronic and zero-point Energies=           -846.096971
 Sum of electronic and thermal Energies=              -846.079657
 Sum of electronic and thermal Enthalpies=            -846.078713
 Sum of electronic and thermal Free Energies=         -846.143116

                     E (Thermal)             CV                S
                      KCal/Mol        Cal/Mol-Kelvin    Cal/Mol-Kelvin
 Total                  191.681             68.507            135.548
 Electronic               0.000              0.000              1.377
 Translational            0.889              2.981             42.613
 Rotational               0.889              2.981             33.845
 Vibrational            189.903             62.545             57.712
 Vibration     1          0.594              1.984              5.832
 Vibration     2          0.594              1.981              5.319
 Vibration     3          0.595              1.978              4.884
 Vibration     4          0.597              1.972              4.374
 Vibration     5          0.611              1.925              2.971
 Vibration     6          0.617              1.905              2.705
 Vibration     7          0.619              1.901              2.651
 Vibration     8          0.640              1.832              2.083
 Vibration     9          0.652              1.794              1.873
 Vibration    10          0.653              1.791              1.860
 Vibration    11          0.657              1.781              1.813
 Vibration    12          0.661              1.768              1.752
 Vibration    13          0.674              1.729              1.597
 Vibration    14          0.676              1.724              1.579
 Vibration    15          0.708              1.628              1.291
 Vibration    16          0.735              1.553              1.120
 Vibration    17          0.750              1.511              1.036
 Vibration    18          0.761              1.483              0.986
 Vibration    19          0.767              1.468              0.958
 Vibration    20          0.771              1.457              0.940
 Vibration    21          0.803              1.375              0.815
 Vibration    22          0.813              1.350              0.780
 Vibration    23          0.820              1.333              0.759
 Vibration    24          0.862              1.235              0.642
 Vibration    25          0.893              1.166              0.569
 Vibration    26          0.914              1.120              0.526
 Vibration    27          0.925              1.098              0.506
 Vibration    28          0.951              1.045              0.461

                           ! Non-Optimized Parameters !
 Normal termination of Gaussian 16 at Sun Feb 11 18:45:47 2024.
