 Gaussian 16, Revision A.03,
 Gaussian 16:  ES64L-G16RevA.03 25-Dec-2016

 ----------------------------------------------------------------
 #P UB3LYP/6-311++G(d,p) SCRF=(PCM,Solvent=n,n-DiMethylFormamide)
 ----------------------------------------------------------------

 ------------------
 Quinone PCM in DMF
 ------------------
 Symbolic Z-matrix:
 Charge =  0 Multiplicity = 1

                         Standard orientation:
 ---------------------------------------------------------------------
 Center     Atomic      Atomic             Coordinates (Angstroms)
 Number     Number       Type             X           Y           Z
 ---------------------------------------------------------------------
      1          6           0        2.895230   -2.271145    0.001043
      2          6           0        2.511955   -0.811643    0.000313
      3          6           0        3.543775    0.134638    0.000224
      4          6           0        3.295719    1.503618   -0.000040
      5          6           0        1.988035    1.966719   -0.000171
      6          6           0        0.931026    1.056616   -0.000224
      7          6           0       -0.453537    1.624259   -0.000484
      8          8           0       -0.639390    2.830945   -0.000148
      9          6           0       -1.593299    0.670870    0.000017
     10          6           0       -2.902580    1.163511    0.000421
     11          6           0       -3.976904    0.283152    0.000611
     12          6           0       -3.750545   -1.096702    0.000343
     13          6           0       -2.452296   -1.591975   -0.000066
     14          6           0       -1.364025   -0.712831   -0.000167
     15          6           0        0.020149   -1.282526   -0.000510
     16          8           0        0.171016   -2.495332   -0.001435
     17          6           0        1.175957   -0.337199   -0.000068
     18          1           0        3.983034   -2.366211    0.002475
     19          1           0        2.495521   -2.793496   -0.870045
     20          1           0        2.493194   -2.793295    0.871137
     21          1           0        4.569046   -0.219384    0.000477
     22          1           0        4.123413    2.203936   -0.000089
     23          1           0        1.758430    3.024470   -0.000309
     24          1           0       -3.050779    2.236241    0.000479
     25          1           0       -4.991017    0.666358    0.000904
     26          1           0       -4.589842   -1.782988    0.000452
     27          1           0       -2.255964   -2.656713   -0.000256
 ---------------------------------------------------------------------

 SCF Done:  E(UB3LYP) =  -728.285534758     A.U. after   14 cycles

 The electronic state is 1-A.
 Alpha  occ. eigenvalues --  -19.13075 -19.12845 -10.28266 -10.28266 -10.21259
 Alpha  occ. eigenvalues --  -10.21059 -10.20866 -10.20833 -10.20739 -10.19900
 Alpha  occ. eigenvalues --  -10.19846 -10.19783 -10.19714 -10.19704 -10.19425
 Alpha  occ. eigenvalues --  -10.19405 -10.16949  -1.06636  -1.06405  -0.89420
 Alpha  occ. eigenvalues --   -0.88312  -0.81312  -0.79561  -0.77847  -0.76970
 Alpha  occ. eigenvalues --   -0.71146  -0.68332  -0.66135  -0.64374  -0.60767
 Alpha  occ. eigenvalues --   -0.57713  -0.56131  -0.55226  -0.50472  -0.49179
 Alpha  occ. eigenvalues --   -0.48773  -0.48423  -0.45905  -0.45830  -0.45165
 Alpha  occ. eigenvalues --   -0.44703  -0.44063  -0.42897  -0.42799  -0.41253
 Alpha  occ. eigenvalues --   -0.39901  -0.38735  -0.38385  -0.37488  -0.37313
 Alpha  occ. eigenvalues --   -0.36666  -0.36445  -0.28972  -0.28600  -0.27893
 Alpha  occ. eigenvalues --   -0.27641  -0.27192  -0.26919
 Alpha virt. eigenvalues --   -0.11754  -0.07259  -0.03747  -0.02632  -0.00728
 Alpha virt. eigenvalues --    0.00139   0.00727   0.01656   0.01987   0.03190
 Alpha virt. eigenvalues --    0.03266   0.03550   0.03592   0.03884   0.04127

  Beta  occ. eigenvalues --  -19.13075 -19.12845 -10.28266 -10.28266 -10.21259
  Beta  occ. eigenvalues --  -10.21059 -10.20866 -10.20833 -10.20739 -10.19900
  Beta  occ. eigenvalues --  -10.19846 -10.19783 -10.19714 -10.19704 -10.19425
  Beta  occ. eigenvalues --  -10.19405 -10.16949  -1.06636  -1.06405  -0.89420
  Beta  occ. eigenvalues --   -0.88312  -0.81312  -0.79561  -0.77847  -0.76970
  Beta  occ. eigenvalues --   -0.71146  -0.68332  -0.66135  -0.64374  -0.60767
  Beta  occ. eigenvalues --   -0.57713  -0.56131  -0.55226  -0.50472  -0.49179
  Beta  occ. eigenvalues --   -0.48773  -0.48423  -0.45905  -0.45830  -0.45165
  Beta  occ. eigenvalues --   -0.44703  -0.44063  -0.42897  -0.42799  -0.41253
  Beta  occ. eigenvalues --   -0.39901  -0.38735  -0.38385  -0.37488  -0.37313
  Beta  occ. eigenvalues --   -0.36666  -0.36445  -0.28972  -0.28600  -0.27893
  Beta  occ. eigenvalues --   -0.27641  -0.27192  -0.26919
  Beta virt. eigenvalues --   -0.11754  -0.07259  -0.03747  -0.02632  -0.00728
  Beta virt. eigenvalues --    0.00139   0.00727   0.01656   0.01987   0.03190
  Beta virt. eigenvalues --    0.03266   0.03550   0.03592   0.03884   0.04127

 Mulliken charges and spin densities:
               1          2
     1  C   -0.509598   0.000000
     2  C    0.799725   0.000000
     3  C   -0.410513  -0.000000
     4  C   -0.300396  -0.000000
     5  C    0.050259  -0.000000
     6  C    0.419966   0.000000
     7  C   -0.631221  -0.000000
     8  O   -0.271441   0.000000
     9  C    0.064075  -0.000000
    10  C    0.109798   0.000000
    11  C   -0.430275  -0.000000
    12  C   -0.440330  -0.000000
    13  C    0.215727   0.000000
    14  C    0.003109   0.000000
    15  C   -0.829926   0.000000
    16  O   -0.241550   0.000000
    17  C    0.558180   0.000000
    18  H    0.164338   0.000000
    19  H    0.174072  -0.000000
    20  H    0.173970  -0.000000
    21  H    0.147794  -0.000000
    22  H    0.222693  -0.000000
    23  H    0.175647  -0.000000
    24  H    0.183951   0.000000
    25  H    0.205669  -0.000000
    26  H    0.207848   0.000000
    27  H    0.188431   0.000000
 Sum of Mulliken charges =  -0.00000  -0.00000

 Dipole moment (field-independent basis, Debye):
    X=              0.4855    Y=             -0.7207    Z=              0.0028  Tot=              0.8690
 Quadrupole moment (field-independent basis, Debye-Ang):
   XX=            -68.1664   YY=           -109.3008   ZZ=           -100.8689
   XY=              5.2494   XZ=             -0.0003   YZ=             -0.0085

 Normal termination of Gaussian 16 at Sun Jan 14 01:04:22 2024.
