 Q-Chem 5.4, Q-Chem, Inc., Pleasanton, CA (2021)
 Q-Chem 5.4.0 for Intel X86 EM64T Linux

User input:
--------------------------------------------------------------
$molecule
0 1
C                  0.6413530000     -1.7087170000     -0.9242310000
C                 -0.5567110000     -1.1421630000     -0.2191850000
C                 -0.4754770000      0.0138780000      0.4654610000
C                  0.8165740000      0.7802330000      0.5510000000
C                  1.9953120000      0.1832160000     -0.1491140000
C                  1.9438430000     -0.9638420000     -0.8519720000
O                  0.5658920000     -2.7486080000     -1.5432410000
O                  0.8871220000      1.8233050000      1.1560510000
Br                -2.1377390000     -2.1606070000     -0.3748810000
Br                -1.9271200000      0.7999570000      1.3775810000
Br                 3.5980360000      1.1945260000      0.0297480000
C                  3.1026300000     -1.6075390000     -1.5578050000
C                  3.8400700000     -2.6322500000     -0.6664670000
C                  5.0135940000     -3.2942530000     -1.3961500000
C                  5.7616850000     -4.3159720000     -0.5325930000
C                  6.9373250000     -4.9834500000     -1.2555300000
C                  7.6794590000     -6.0034660000     -0.3872320000
H                  3.8025140000     -0.8346420000     -1.8797530000
H                  2.7249000000     -2.1197390000     -2.4449490000
H                  3.1309270000     -3.4002250000     -0.3409470000
H                  4.2036190000     -2.1292440000      0.2361800000
H                  5.7150480000     -2.5200140000     -1.7321300000
H                  4.6427310000     -3.7875150000     -2.3032830000
H                  5.0592400000     -5.0892220000     -0.1959300000
H                  6.1301400000     -3.8227730000      0.3762190000
H                  7.6392690000     -4.2108200000     -1.5921130000
H                  6.5690580000     -5.4760440000     -2.1635720000
H                  8.0898880000     -5.5335570000      0.5121440000
H                  8.5105060000     -6.4609050000     -0.9310390000
H                  7.0115430000     -6.8080440000     -0.0637970000
$end

$rem
BASIS  =  6-311++G(d,p)
GUI  =  2
JOB_TYPE  =  SP
METHOD  =  B3LYP
SCF_CONVERGENCE  = 8
SOLVENT_METHOD = sm12
$end

$smx
solvent dimethylformamide
charges CM5
$end

--------------------------------------------------------------

             Standard Nuclear Orientation (Angstroms)
    I     Atom           X                Y                Z
 ----------------------------------------------------------------
    1      C       0.6413530000    -1.7087170000    -0.9242310000
    2      C      -0.5567110000    -1.1421630000    -0.2191850000
    3      C      -0.4754770000     0.0138780000     0.4654610000
    4      C       0.8165740000     0.7802330000     0.5510000000
    5      C       1.9953120000     0.1832160000    -0.1491140000
    6      C       1.9438430000    -0.9638420000    -0.8519720000
    7      O       0.5658920000    -2.7486080000    -1.5432410000
    8      O       0.8871220000     1.8233050000     1.1560510000
    9      Br     -2.1377390000    -2.1606070000    -0.3748810000
   10      Br     -1.9271200000     0.7999570000     1.3775810000
   11      Br      3.5980360000     1.1945260000     0.0297480000
   12      C       3.1026300000    -1.6075390000    -1.5578050000
   13      C       3.8400700000    -2.6322500000    -0.6664670000
   14      C       5.0135940000    -3.2942530000    -1.3961500000
   15      C       5.7616850000    -4.3159720000    -0.5325930000
   16      C       6.9373250000    -4.9834500000    -1.2555300000
   17      C       7.6794590000    -6.0034660000    -0.3872320000
   18      H       3.8025140000    -0.8346420000    -1.8797530000
   19      H       2.7249000000    -2.1197390000    -2.4449490000
   20      H       3.1309270000    -3.4002250000    -0.3409470000
   21      H       4.2036190000    -2.1292440000     0.2361800000
   22      H       5.7150480000    -2.5200140000    -1.7321300000
   23      H       4.6427310000    -3.7875150000    -2.3032830000
   24      H       5.0592400000    -5.0892220000    -0.1959300000
   25      H       6.1301400000    -3.8227730000     0.3762190000
   26      H       7.6392690000    -4.2108200000    -1.5921130000
   27      H       6.5690580000    -5.4760440000    -2.1635720000
   28      H       8.0898880000    -5.5335570000     0.5121440000
   29      H       8.5105060000    -6.4609050000    -0.9310390000
   30      H       7.0115430000    -6.8080440000    -0.0637970000
 ----------------------------------------------------------------

   16   -8338.1221565538      5.69e-09  Convergence criterion met
 Total energy in the final basis set =    -8338.1397376033

                    Orbital Energies (a.u.)
 --------------------------------------------------------------

 Alpha MOs
 -- Occupied --
********-482.8600-482.8533 -62.5132 -62.5128 -62.5061 -56.3339 -56.3334
-56.3299 -56.3295 -56.3293 -56.3289 -56.3267 -56.3228 -56.3223 -19.1604
-19.1603 -10.3168 -10.3129 -10.2838 -10.2824 -10.2730 -10.2412 -10.1905
-10.1780 -10.1683 -10.1662 -10.1656 -10.1579  -8.7220  -8.7216  -8.7149
 -6.5543  -6.5538  -6.5468  -6.5408  -6.5404  -6.5391  -6.5387  -6.5337
 -6.5323  -2.6652  -2.6646  -2.6614  -2.6610  -2.6600  -2.6597  -2.6577
 -2.6540  -2.6530  -2.6495  -2.6495  -2.6491  -2.6491  -2.6427  -2.6427
 -1.0993  -1.0961  -0.9131  -0.8797  -0.8298  -0.8200  -0.8056  -0.7882
 -0.7567  -0.7246  -0.7055  -0.6608  -0.6199  -0.6138  -0.5922  -0.5814
 -0.5685  -0.5072  -0.4896  -0.4858  -0.4844  -0.4620  -0.4576  -0.4502
 -0.4478  -0.4447  -0.4340  -0.4250  -0.4062  -0.4036  -0.3979  -0.3828
 -0.3671  -0.3585  -0.3543  -0.3384  -0.3339  -0.3321  -0.3307  -0.3275
 -0.3257  -0.3151  -0.3116  -0.3083  -0.2955  -0.2913  -0.2751

          Ground-State Mulliken Net Atomic Charges

     Atom                 Charge (a.u.)
  ----------------------------------------
      1 C                    -1.187058
      2 C                    -0.208913
      3 C                     0.646473
      4 C                    -1.297454
      5 C                     0.415339
      6 C                     1.946466
      7 O                    -0.161902
      8 O                    -0.140074
      9 Br                   -0.111339
     10 Br                   -0.093563
     11 Br                   -0.040276
     12 C                    -0.011693
     13 C                    -0.334448
     14 C                     0.173354
     15 C                    -0.374494
     16 C                    -0.287575
     17 C                    -0.759899
     18 H                     0.215706
     19 H                     0.223768
     20 H                     0.156266
     21 H                     0.120870
     22 H                     0.118141
     23 H                     0.107865
     24 H                     0.095202
     25 H                     0.106736
     26 H                     0.131703
     27 H                     0.128390
     28 H                     0.140539
     29 H                     0.142606
     30 H                     0.139265
  ----------------------------------------
  Sum of atomic charges =     0.000000

                    Cartesian Multipole Moments
 -----------------------------------------------------------------
    Charge (ESU x 10^10)
                -0.0000
    Dipole Moment (Debye)
         X       1.5264      Y      -1.3190      Z      -0.8644
       Tot       2.1947
    Quadrupole Moments (Debye-Ang)
        XX    -127.5408     XY      -5.6835     YY    -146.6012
        XZ      -4.5869     YZ      -4.4061     ZZ    -141.1944

 Total job time:  822.71s(wall), 6270.56s(cpu)
        *  Thank you very much for using Q-Chem.  Have a nice day.  *
