 Q-Chem 5.4, Q-Chem, Inc., Pleasanton, CA (2021)
 Q-Chem 5.4.0 for Intel X86 EM64T Linux

User input:
--------------------------------------------------------------
$molecule
-2 1
C                 -1.7712170000      2.7400560000     -0.8177360000
C                 -2.8779010000      1.9345400000     -0.6288520000
C                 -2.7004430000      0.6002000000     -0.1793580000
C                 -0.4483310000      2.2870010000     -0.5969310000
C                 -0.2637620000      0.9021490000     -0.1971580000
C                 -1.4202650000      0.1150230000      0.0286740000
C                  0.6536400000      3.2206890000     -0.7939250000
C                  2.0302010000      2.6795370000     -0.5760320000
C                  2.1351190000      1.2914860000     -0.2006090000
C                  1.0705510000      0.4185170000     -0.0220760000
O                  0.4570540000      4.4195290000     -1.1441340000
O                  3.0606990000      3.3950290000     -0.7307140000
H                 -1.8752470000      3.7705130000     -1.1431930000
H                 -3.8785330000      2.3228300000     -0.8076150000
H                 -3.5595820000     -0.0405320000      0.0049460000
H                 -1.3177470000     -0.9024820000      0.3979820000
H                  3.1549890000      0.9394340000     -0.0804180000
N                  1.2602600000     -0.9226520000      0.4150460000
C                  2.5378340000     -1.5917160000      0.2329170000
C                  2.4904300000     -3.0180150000      0.7831770000
H                  0.5046910000     -1.5158440000      0.1041740000
H                  3.3084370000     -1.0224480000      0.7571280000
H                  2.8448080000     -1.6222930000     -0.8313600000
H                  2.2445350000     -3.0248020000      1.8497040000
H                  3.4530290000     -3.5234520000      0.6493000000
H                  1.7402620000     -3.6286180000      0.2654130000
$end
$rem
MAX_SCF_CYCLES=200
BASIS  =  6-311++G(d,p)
GUI  =  2
JOB_TYPE  =  SP
METHOD  =  B3LYP
SOLVENT_METHOD = PCM
$end
$pcm
theory = CPCM
$end
$solvent
dielectric 37.219
opticaldielectric 1.43
$end

--------------------------------------------------------------

             Standard Nuclear Orientation (Angstroms)
    I     Atom           X                Y                Z
 ----------------------------------------------------------------
    1      C      -1.7712170000     2.7400560000    -0.8177360000
    2      C      -2.8779010000     1.9345400000    -0.6288520000
    3      C      -2.7004430000     0.6002000000    -0.1793580000
    4      C      -0.4483310000     2.2870010000    -0.5969310000
    5      C      -0.2637620000     0.9021490000    -0.1971580000
    6      C      -1.4202650000     0.1150230000     0.0286740000
    7      C       0.6536400000     3.2206890000    -0.7939250000
    8      C       2.0302010000     2.6795370000    -0.5760320000
    9      C       2.1351190000     1.2914860000    -0.2006090000
   10      C       1.0705510000     0.4185170000    -0.0220760000
   11      O       0.4570540000     4.4195290000    -1.1441340000
   12      O       3.0606990000     3.3950290000    -0.7307140000
   13      H      -1.8752470000     3.7705130000    -1.1431930000
   14      H      -3.8785330000     2.3228300000    -0.8076150000
   15      H      -3.5595820000    -0.0405320000     0.0049460000
   16      H      -1.3177470000    -0.9024820000     0.3979820000
   17      H       3.1549890000     0.9394340000    -0.0804180000
   18      N       1.2602600000    -0.9226520000     0.4150460000
   19      C       2.5378340000    -1.5917160000     0.2329170000
   20      C       2.4904300000    -3.0180150000     0.7831770000
   21      H       0.5046910000    -1.5158440000     0.1041740000
   22      H       3.3084370000    -1.0224480000     0.7571280000
   23      H       2.8448080000    -1.6222930000    -0.8313600000
   24      H       2.2445350000    -3.0248020000     1.8497040000
   25      H       3.4530290000    -3.5234520000     0.6493000000
   26      H       1.7402620000    -3.6286180000     0.2654130000
 ----------------------------------------------------------------

   10    -669.5250271593      4.41e-06  Convergence criterion met
 Total energy in the final basis set =     -669.5250271593

                    Orbital Energies (a.u.)
 --------------------------------------------------------------

 Alpha MOs
 -- Occupied --
-19.0213 -19.0160 -14.2921 -10.1840 -10.1663 -10.1658 -10.1593 -10.1521
-10.1492 -10.1433 -10.1425 -10.1395 -10.1389 -10.1289 -10.1189  -0.9551
 -0.9279  -0.9036  -0.8226  -0.7656  -0.7298  -0.7146  -0.6898  -0.6361
 -0.6053  -0.5802  -0.5615  -0.5303  -0.4929  -0.4670  -0.4632  -0.4501
 -0.4246  -0.4132  -0.4009  -0.3938  -0.3802  -0.3776  -0.3668  -0.3636
 -0.3585  -0.3499  -0.3389  -0.3312  -0.3165  -0.3074  -0.2992  -0.2811
 -0.2278  -0.2231  -0.2129  -0.1820  -0.1810  -0.1021

          Ground-State Mulliken Net Atomic Charges

     Atom                 Charge (a.u.)
  ----------------------------------------
      1 C                     0.090181
      2 C                    -0.485251
      3 C                    -0.470456
      4 C                     0.403291
      5 C                     0.093587
      6 C                    -0.204428
      7 C                    -0.310096
      8 C                    -0.228094
      9 C                     0.062318
     10 C                    -0.437671
     11 O                    -0.725366
     12 O                    -0.706489
     13 H                     0.140433
     14 H                     0.164891
     15 H                     0.166150
     16 H                     0.122002
     17 H                     0.151137
     18 N                    -0.065538
     19 C                    -0.098120
     20 C                    -0.655521
     21 H                     0.255467
     22 H                     0.143810
     23 H                     0.143423
     24 H                     0.150002
     25 H                     0.154358
     26 H                     0.145980
  ----------------------------------------
  Sum of atomic charges =    -2.000000

                    Cartesian Multipole Moments
 -----------------------------------------------------------------
    Charge (ESU x 10^10)
                -9.6064
    Dipole Moment (Debye)
         X     -10.4277      Y     -31.9995      Z       6.5948
       Tot      34.2958
    Quadrupole Moments (Debye-Ang)
        XX    -136.8956     XY     -43.6354     YY    -212.8072
        XZ       8.8208     YZ      28.6267     ZZ    -109.1450

 Total job time:  66.66s(wall), 292.30s(cpu)
        *  Thank you very much for using Q-Chem.  Have a nice day.  *
