 Gaussian 16, Revision A.03,
 Gaussian 16:  ES64L-G16RevA.03 25-Dec-2016

 ----------------------------------------------------------------
 #P UB3LYP/6-311++G(d,p) SCRF=(PCM,Solvent=n,n-DiMethylFormamide)
 ----------------------------------------------------------------

 ------------------
 Radical PCM in DMF
 ------------------
 Symbolic Z-matrix:
 Charge = -1 Multiplicity = 2

                         Standard orientation:
 ---------------------------------------------------------------------
 Center     Atomic      Atomic             Coordinates (Angstroms)
 Number     Number       Type             X           Y           Z
 ---------------------------------------------------------------------
      1          6           0        8.254209   -0.072276   -1.071059
      2          6           0        8.846735   -1.320824   -1.108602
      3          6           0        8.180082   -2.435072   -0.559983
      4          6           0        6.981491    0.107168   -0.487017
      5          6           0        6.306017   -1.017768    0.067602
      6          6           0        6.930163   -2.276361    0.016404
      7          6           0        6.361947    1.414929   -0.448125
      8          6           0        5.058921    1.498394    0.170091
      9          6           0        4.381218    0.432489    0.723209
     10          6           0        4.971142   -0.888383    0.690059
     11          8           0        6.875279    2.485105   -0.913672
     12          8           0        4.380956   -1.891203    1.170696
     13          1           0        8.747122    0.799604   -1.486233
     14          1           0        9.826525   -1.444187   -1.561059
     15          1           0        8.646300   -3.415409   -0.589804
     16          1           0        6.394336   -3.115746    0.445062
     17          8           0        4.535989    2.759344    0.167309
     18          6           0        3.020873    0.601111    1.348815
     19          6           0        1.865021    0.303606    0.374403
     20          6           0        0.482006    0.440893    1.020014
     21          6           0       -0.675774    0.145893    0.059597
     22          6           0       -2.062411    0.281636    0.699343
     23          6           0       -3.216363   -0.016539   -0.264884
     24          6           0       -4.603710    0.119316    0.372678
     25          6           0       -5.752590   -0.181589   -0.598060
     26          6           0       -7.140248   -0.040736    0.049123
     27          6           0       -8.246011   -0.347610   -0.944618
     28         35           0      -10.058465   -0.171845   -0.138022
     29          1           0        5.247816    3.271768   -0.276558
     30          1           0        2.915791    1.622648    1.728489
     31          1           0        2.945628   -0.090113    2.194498
     32          1           0        1.991036   -0.713745   -0.011028
     33          1           0        1.937281    0.982500   -0.483826
     34          1           0        0.367216    1.457032    1.421961
     35          1           0        0.418122   -0.237306    1.881380
     36          1           0       -0.560434   -0.869756   -0.340727
     37          1           0       -0.609143    0.821204   -0.803683
     38          1           0       -2.178809    1.297807    1.098902
     39          1           0       -2.129695   -0.393202    1.562825
     40          1           0       -3.099737   -1.032735   -0.663512
     41          1           0       -3.148142    0.657502   -1.128801
     42          1           0       -4.723166    1.135562    0.769457
     43          1           0       -4.674400   -0.554891    1.235699
     44          1           0       -5.634681   -1.198721   -0.992506
     45          1           0       -5.681739    0.492404   -1.461095
     46          1           0       -7.267418    0.975377    0.435245
     47          1           0       -7.220129   -0.717567    0.905424
     48          1           0       -8.205561   -1.371789   -1.310383
     49          1           0       -8.251943    0.340713   -1.787558
 ---------------------------------------------------------------------

 SCF Done:  E(UB3LYP) =  -3577.46497787     A.U. after   20 cycles

 The electronic state is 2-A.
 Alpha  occ. eigenvalues -- -482.82050 -62.47350 -56.29361 -56.29004 -56.29001
 Alpha  occ. eigenvalues --  -19.14251 -19.08511 -19.07304 -10.22585 -10.22209
 Alpha  occ. eigenvalues --  -10.22030 -10.21980 -10.17702 -10.17398 -10.17251
 Alpha  occ. eigenvalues --  -10.17176 -10.17140 -10.17061 -10.16910 -10.16909
 Alpha  occ. eigenvalues --  -10.16310 -10.16134 -10.16003 -10.15862 -10.15758
 Alpha  occ. eigenvalues --  -10.15728 -10.15666 -10.15593  -8.68303  -6.51361
 Alpha  occ. eigenvalues --   -6.50189  -6.50178  -2.62462  -2.62133  -2.62124
 Alpha  occ. eigenvalues --   -2.61195  -2.61194  -1.06241  -0.99844  -0.99494
 Alpha  occ. eigenvalues --   -0.85793  -0.82848  -0.81383  -0.80432  -0.78698
 Alpha  occ. eigenvalues --   -0.76655  -0.75063  -0.74510  -0.72008  -0.69050
 Alpha  occ. eigenvalues --   -0.66804  -0.64415  -0.61942  -0.61013  -0.59312
 Alpha  occ. eigenvalues --   -0.58148  -0.57354  -0.57137  -0.56693  -0.53605
 Alpha  occ. eigenvalues --   -0.50364  -0.49304  -0.48404  -0.47638  -0.46236
 Alpha  occ. eigenvalues --   -0.45313  -0.45063  -0.43741  -0.43388  -0.42935
 Alpha  occ. eigenvalues --   -0.42751  -0.42613  -0.41678  -0.41059  -0.40443
 Alpha  occ. eigenvalues --   -0.40234  -0.39088  -0.38719  -0.38499  -0.37671
 Alpha  occ. eigenvalues --   -0.37497  -0.36474  -0.36097  -0.35517  -0.34522
 Alpha  occ. eigenvalues --   -0.34324  -0.34229  -0.33959  -0.33577  -0.32959
 Alpha  occ. eigenvalues --   -0.32782  -0.32164  -0.32034  -0.31714  -0.30535
 Alpha  occ. eigenvalues --   -0.28453  -0.28352  -0.26645  -0.25894  -0.25731
 Alpha  occ. eigenvalues --   -0.23827  -0.22671  -0.15004
 Alpha virt. eigenvalues --   -0.03229  -0.02243  -0.00778  -0.00458  -0.00214
 Alpha virt. eigenvalues --    0.00441   0.00765   0.00810   0.01207   0.01535
 Alpha virt. eigenvalues --    0.02027   0.02407   0.02545   0.03338   0.03532

  Beta  occ. eigenvalues -- -482.82050 -62.47350 -56.29361 -56.29004 -56.29001
  Beta  occ. eigenvalues --  -19.14204 -19.07883 -19.06772 -10.22585 -10.22076
  Beta  occ. eigenvalues --  -10.21928 -10.21695 -10.17702 -10.17382 -10.17247
  Beta  occ. eigenvalues --  -10.17067 -10.17051 -10.17010 -10.16935 -10.16909
  Beta  occ. eigenvalues --  -10.16310 -10.16054 -10.16003 -10.15862 -10.15758
  Beta  occ. eigenvalues --  -10.15735 -10.15664 -10.15584  -8.68303  -6.51361
  Beta  occ. eigenvalues --   -6.50189  -6.50178  -2.62462  -2.62133  -2.62124
  Beta  occ. eigenvalues --   -2.61195  -2.61194  -1.06027  -0.98915  -0.98431
  Beta  occ. eigenvalues --   -0.85558  -0.82847  -0.81224  -0.80303  -0.78594
  Beta  occ. eigenvalues --   -0.76542  -0.74842  -0.74423  -0.71936  -0.68838
  Beta  occ. eigenvalues --   -0.66174  -0.64257  -0.61817  -0.60870  -0.59215
  Beta  occ. eigenvalues --   -0.58078  -0.57330  -0.57080  -0.56482  -0.53431
  Beta  occ. eigenvalues --   -0.50136  -0.49304  -0.48211  -0.47538  -0.46116
  Beta  occ. eigenvalues --   -0.45239  -0.44997  -0.43395  -0.43298  -0.42741
  Beta  occ. eigenvalues --   -0.42539  -0.42205  -0.41372  -0.40708  -0.40163
  Beta  occ. eigenvalues --   -0.40075  -0.38938  -0.38463  -0.37705  -0.37489
  Beta  occ. eigenvalues --   -0.37135  -0.36422  -0.35526  -0.35055  -0.34422
  Beta  occ. eigenvalues --   -0.34039  -0.33872  -0.33463  -0.32898  -0.32888
  Beta  occ. eigenvalues --   -0.32585  -0.32147  -0.32003  -0.31665  -0.30463
  Beta  occ. eigenvalues --   -0.28453  -0.28348  -0.25343  -0.25026  -0.24680
  Beta  occ. eigenvalues --   -0.23325  -0.21776
  Beta virt. eigenvalues --   -0.08475  -0.02475  -0.02243  -0.00479  -0.00208
  Beta virt. eigenvalues --    0.00297   0.00501   0.00775   0.00816   0.01215
  Beta virt. eigenvalues --    0.01546   0.02035   0.02413   0.02553   0.03352

 Mulliken charges and spin densities:
               1          2
     1  C    0.010838   0.073463
     2  C   -0.376114  -0.000977
     3  C   -0.450389   0.072557
     4  C    0.527319  -0.001766
     5  C   -0.102650   0.061378
     6  C    0.073427   0.002469
     7  C   -0.943369   0.166003
     8  C   -0.617950   0.057575
     9  C    2.050108   0.056280
    10  C   -0.711254   0.075020
    11  O   -0.525181   0.229498
    12  O   -0.455571   0.197960
    13  H    0.166007  -0.004073
    14  H    0.182698  -0.000643
    15  H    0.178142  -0.005186
    16  H    0.166934  -0.000283
    17  O   -0.285240   0.015948
    18  C   -0.397929   0.012825
    19  C   -0.853909  -0.001064
    20  C   -0.303676   0.000756
    21  C   -0.000912  -0.005423
    22  C    0.033804  -0.001376
    23  C   -0.002209  -0.000124
    24  C   -0.155172   0.000385
    25  C   -0.318336   0.000019
    26  C   -0.371078   0.000018
    27  C   -0.637709  -0.000014
    28  Br  -0.194186   0.000001
    29  H    0.290079  -0.003694
    30  H    0.217115  -0.000551
    31  H    0.201078   0.002613
    32  H    0.176593  -0.001684
    33  H    0.165230   0.002104
    34  H    0.112707  -0.000391
    35  H    0.116336   0.000485
    36  H    0.126611  -0.000043
    37  H    0.126711  -0.000049
    38  H    0.132020  -0.000008
    39  H    0.132530   0.000001
    40  H    0.132123   0.000004
    41  H    0.132117  -0.000004
    42  H    0.133326  -0.000012
    43  H    0.133276   0.000005
    44  H    0.137847  -0.000002
    45  H    0.137713   0.000001
    46  H    0.149256   0.000001
    47  H    0.149419  -0.000001
    48  H    0.205762  -0.000001
    49  H    0.205706   0.000002
 Sum of Mulliken charges =  -1.00000   1.00000

 Dipole moment (field-independent basis, Debye):
    X=            -23.0156    Y=             -1.6658    Z=             -2.0381  Tot=             23.1657
 Quadrupole moment (field-independent basis, Debye-Ang):
   XX=           -366.6105   YY=           -183.9039   ZZ=           -169.5771
   XY=            -17.7536   XZ=              5.6590   YZ=              8.4550

 Normal termination of Gaussian 16 at Thu Jan 25 05:55:46 2024.
