 Gaussian 16, Revision A.03,
 Gaussian 16:  ES64L-G16RevA.03 25-Dec-2016

 ----------------------------------------------------------------------
 #P UB3LYP/6-311++G(d,p) nosym opt freq SCRF=(PCM,Solvent=n,n-DiMethylF
 ormamide)
 ----------------------------------------------------------------------

 -------
 Radical
 -------
 Symbolic Z-matrix:
 Charge = -1 Multiplicity = 2

 SCF Done:  E(UB3LYP) =  -744.474903152     A.U. after   18 cycles
 SCF Done:  E(UB3LYP) =  -744.475377598     A.U. after   14 cycles
 SCF Done:  E(UB3LYP) =  -744.475530250     A.U. after   14 cycles
 SCF Done:  E(UB3LYP) =  -744.475517124     A.U. after   14 cycles
 SCF Done:  E(UB3LYP) =  -744.475553169     A.U. after   14 cycles
 SCF Done:  E(UB3LYP) =  -744.475566627     A.U. after   12 cycles
 SCF Done:  E(UB3LYP) =  -744.475567659     A.U. after   10 cycles
 Optimization completed.
    -- Stationary point found.
 Normal termination of Gaussian 16 at Sat Feb 10 16:40:40 2024.

 ----------------------------------------------------------------------
 #P Geom=AllCheck Guess=TCheck SCRF=Check GenChk UB3LYP/6-311++G(d,p) F
 req
 ----------------------------------------------------------------------

 Structure from the checkpoint file:  "151-rad.chk"
 -------
 Radical
 -------
 Charge = -1 Multiplicity = 2

                          Input orientation:
 ---------------------------------------------------------------------
 Center     Atomic      Atomic             Coordinates (Angstroms)
 Number     Number       Type             X           Y           Z
 ---------------------------------------------------------------------
      1          7           0       -4.516373   -0.923195   -0.776437
      2          6           0       -3.253884   -0.651796   -0.243676
      3          6           0       -3.053903   -0.721619    1.160489
      4          6           0       -1.802302   -0.512266    1.693965
      5          6           0       -0.681020   -0.229259    0.881224
      6          6           0        0.623813   -0.016955    1.494430
      7          8           0        0.793011   -0.079597    2.745417
      8          6           0        1.732296    0.274156    0.585594
      9          6           0        3.025829    0.492776    1.110165
     10          6           0        4.099219    0.770338    0.286430
     11          6           0        3.910525    0.838709   -1.111466
     12          6           0        2.656663    0.629315   -1.649357
     13          6           0        1.539782    0.344238   -0.827607
     14          6           0        0.232216    0.131718   -1.436955
     15          8           0        0.062815    0.195887   -2.691915
     16          6           0       -0.875703   -0.159854   -0.529599
     17          6           0       -2.165425   -0.373009   -1.060334
     18          1           0       -5.296562   -0.733271   -0.162399
     19          1           0       -4.678598   -0.565841   -1.707913
     20          1           0       -3.896395   -0.941473    1.808756
     21          1           0       -1.653146   -0.562251    2.766084
     22          1           0        3.152719    0.436260    2.184739
     23          1           0        5.084228    0.935128    0.709648
     24          1           0        4.751905    1.055980   -1.760958
     25          1           0        2.498410    0.679202   -2.719999
     26          1           0       -2.290118   -0.313319   -2.135653
 ---------------------------------------------------------------------

 SCF Done:  E(UB3LYP) =  -744.475567659     A.U. after    2 cycles

 Alpha  occ. eigenvalues --  -19.07189 -19.07075 -14.31951 -10.22227 -10.21774
 Alpha  occ. eigenvalues --  -10.21532 -10.17238 -10.17145 -10.17083 -10.17052
 Alpha  occ. eigenvalues --  -10.16991 -10.16980 -10.16946 -10.16835 -10.16771
 Alpha  occ. eigenvalues --  -10.16476 -10.16090  -0.99569  -0.99180  -0.92126
 Alpha  occ. eigenvalues --   -0.85577  -0.83970  -0.77727  -0.74884  -0.74606
 Alpha  occ. eigenvalues --   -0.72824  -0.66407  -0.63777  -0.61335  -0.59133
 Alpha  occ. eigenvalues --   -0.55622  -0.53785  -0.52862  -0.50447  -0.48117
 Alpha  occ. eigenvalues --   -0.46641  -0.45581  -0.44313  -0.42419  -0.42081
 Alpha  occ. eigenvalues --   -0.41991  -0.41189  -0.40597  -0.39825  -0.38706
 Alpha  occ. eigenvalues --   -0.37931  -0.37496  -0.35113  -0.34770  -0.34384
 Alpha  occ. eigenvalues --   -0.33039  -0.30547  -0.26232  -0.25547  -0.25179
 Alpha  occ. eigenvalues --   -0.24263  -0.23450  -0.21604  -0.13824
 Alpha virt. eigenvalues --   -0.05093  -0.01563  -0.00439  -0.00093   0.00243
 Alpha virt. eigenvalues --    0.01200   0.01853   0.02266   0.03913   0.04202
 Alpha virt. eigenvalues --    0.04398   0.04515   0.05196   0.06330   0.06456

  Beta  occ. eigenvalues --  -19.06700 -19.06483 -14.31932 -10.22069 -10.21552
  Beta  occ. eigenvalues --  -10.21497 -10.17165 -10.17147 -10.17049 -10.16981
  Beta  occ. eigenvalues --  -10.16927 -10.16925 -10.16884 -10.16836 -10.16751
  Beta  occ. eigenvalues --  -10.16441 -10.16037  -0.98691  -0.98130  -0.92062
  Beta  occ. eigenvalues --   -0.85313  -0.83850  -0.77359  -0.74607  -0.74451
  Beta  occ. eigenvalues --   -0.72665  -0.65649  -0.63627  -0.61094  -0.59059
  Beta  occ. eigenvalues --   -0.55386  -0.53555  -0.52764  -0.50377  -0.47922
  Beta  occ. eigenvalues --   -0.46377  -0.45461  -0.44221  -0.42367  -0.42033
  Beta  occ. eigenvalues --   -0.41027  -0.40694  -0.40233  -0.39565  -0.38451
  Beta  occ. eigenvalues --   -0.37574  -0.35240  -0.34964  -0.34304  -0.33998
  Beta  occ. eigenvalues --   -0.32873  -0.29714  -0.25184  -0.24369  -0.24252
  Beta  occ. eigenvalues --   -0.23770  -0.22941  -0.20973
  Beta virt. eigenvalues --   -0.07944  -0.04178  -0.00634  -0.00416   0.00152
  Beta virt. eigenvalues --    0.00283   0.01205   0.01870   0.02262   0.03956
  Beta virt. eigenvalues --    0.04223   0.04526   0.04553   0.05559   0.06360

 Mulliken charges and spin densities:
               1          2
     1  N   -0.361943   0.008919
     2  C   -0.492135   0.018702
     3  C   -0.113856   0.018415
     4  C    0.124203   0.019574
     5  C    0.163900   0.001909
     6  C   -0.540617   0.088877
     7  O   -0.477196   0.181070
     8  C    0.135045   0.049912
     9  C    0.090533   0.011110
    10  C   -0.459521   0.058778
    11  C   -0.443609   0.023944
    12  C    0.054169   0.044715
    13  C    0.274827   0.029395
    14  C   -0.649404   0.130628
    15  O   -0.481921   0.221162
    16  C    0.518523   0.043790
    17  C   -0.080211   0.066411
    18  H    0.269551   0.000249
    19  H    0.273604  -0.000222
    20  H    0.190077  -0.001868
    21  H    0.167637  -0.001135
    22  H    0.165062  -0.000299
    23  H    0.177468  -0.004485
    24  H    0.178919  -0.002286
    25  H    0.162475  -0.002576
    26  H    0.154420  -0.004692
 Sum of Mulliken charges =  -1.00000   1.00000

 Dipole moment (field-independent basis, Debye):
    X=             -4.6612    Y=              0.4994    Z=             -0.2587  Tot=              4.6950
 Quadrupole moment (field-independent basis, Debye-Ang):
   XX=            -84.7453   YY=           -108.6617   ZZ=           -133.9235
   XY=             -1.8222   XZ=             -3.6006   YZ=              0.2012

  Exact polarizability: 482.414  70.221 149.902   6.217 -14.916 347.801
 Approx polarizability: 494.068  68.288 168.535  15.503 -16.694 415.289

                      1                      2                      3
                      A                      A                      A
 Frequencies --     47.6910                97.2264               128.8336
 Red. masses --      6.8058                 4.2757                 5.0075
 Frc consts  --      0.0091                 0.0238                 0.0490
 IR Inten    --     17.7181                 1.4221                 0.4323

                      4                      5                      6
                      A                      A                      A
 Frequencies --    153.6573               192.4805               203.5306
 Red. masses --      6.5960                 4.9603                 5.2718
 Frc consts  --      0.0918                 0.1083                 0.1287
 IR Inten    --      2.8853                11.2185                 3.1998

                      7                      8                      9
                      A                      A                      A
 Frequencies --    279.1941               299.2930               326.3131
 Red. masses --      6.0395                 4.6493                 1.0733
 Frc consts  --      0.2774                 0.2454                 0.0673
 IR Inten    --      1.7806                 6.9042                49.1520

                     10                     11                     12
                      A                      A                      A
 Frequencies --    337.8709               377.0490               391.2296
 Red. masses --      7.2708                10.7122                 5.1039
 Frc consts  --      0.4890                 0.8973                 0.4603
 IR Inten    --      0.3671                23.8094                 8.0613

                     13                     14                     15
                      A                      A                      A
 Frequencies --    415.6899               444.3250               445.2615
 Red. masses --      3.7476                 4.6823                 4.9187
 Frc consts  --      0.3815                 0.5446                 0.5746
 IR Inten    --      3.1813                15.9684                 6.0755

                     16                     17                     18
                      A                      A                      A
 Frequencies --    461.4574               489.5535               539.1747
 Red. masses --      2.9503                12.3262                 2.3570
 Frc consts  --      0.3702                 1.7405                 0.4037
 IR Inten    --      3.3138                 1.0477               308.7922

                     19                     20                     21
                      A                      A                      A
 Frequencies --    572.4418               594.2393               641.1000
 Red. masses --      4.2564                 2.1665                 6.6666
 Frc consts  --      0.8218                 0.4507                 1.6144
 IR Inten    --    199.8275               324.2822                16.1784

                     22                     23                     24
                      A                      A                      A
 Frequencies --    658.1049               670.3110               698.5526
 Red. masses --      3.4086                 5.9324                 6.3293
 Frc consts  --      0.8698                 1.5705                 1.8197
 IR Inten    --     30.6002                 6.4259                 2.7060

                     25                     26                     27
                      A                      A                      A
 Frequencies --    708.2781               728.2768               760.1754
 Red. masses --      2.7427                 4.1234                 5.8411
 Frc consts  --      0.8106                 1.2885                 1.9887
 IR Inten    --    119.9996                 8.3588                 6.8958

                     28                     29                     30
                      A                      A                      A
 Frequencies --    785.1525               790.7644               830.7627
 Red. masses --      1.8647                 3.2221                 1.7258
 Frc consts  --      0.6773                 1.1871                 0.7018
 IR Inten    --     24.6720                 1.1961                45.4560

                     31                     32                     33
                      A                      A                      A
 Frequencies --    864.7064               880.6832               887.2977
 Red. masses --      5.8895                 1.4607                 1.5472
 Frc consts  --      2.5946                 0.6675                 0.7177
 IR Inten    --     31.1542                 1.3362                36.0240

                     34                     35                     36
                      A                      A                      A
 Frequencies --    933.3123               982.0605               986.5167
 Red. masses --      6.7149                 1.3136                 1.3720
 Frc consts  --      3.4462                 0.7465                 0.7867
 IR Inten    --     39.9847                 0.3356                 3.7965

                     37                     38                     39
                      A                      A                      A
 Frequencies --    988.1248               997.8254              1036.6813
 Red. masses --      2.9534                 1.2857                 1.9680
 Frc consts  --      1.6990                 0.7542                 1.2462
 IR Inten    --      0.5086                 0.0138                36.3081

                     40                     41                     42
                      A                      A                      A
 Frequencies --   1096.3582              1109.0182              1127.5408
 Red. masses --      1.6072                 2.4275                 1.6412
 Frc consts  --      1.1382                 1.7591                 1.2294
 IR Inten    --     19.4745                34.7017                11.7923

                     43                     44                     45
                      A                      A                      A
 Frequencies --   1152.2213              1157.5887              1196.0198
 Red. masses --      1.3181                 1.8866                 2.0892
 Frc consts  --      1.0310                 1.4895                 1.7608
 IR Inten    --     26.9722                13.9254                 2.7630

                     46                     47                     48
                      A                      A                      A
 Frequencies --   1217.0214              1230.2269              1252.6340
 Red. masses --      1.6185                 2.4012                 2.7115
 Frc consts  --      1.4124                 2.1411                 2.5068
 IR Inten    --     16.1696               255.5876               210.3862

                     49                     50                     51
                      A                      A                      A
 Frequencies --   1293.8627              1352.1987              1356.7743
 Red. masses --      3.2692                 2.2452                 9.8575
 Frc consts  --      3.2245                 2.4187                10.6914
 IR Inten    --    133.6736                50.8019                14.9174

                     52                     53                     54
                      A                      A                      A
 Frequencies --   1372.4568              1416.9792              1463.8064
 Red. masses --      6.6614                 3.3784                 2.6402
 Frc consts  --      7.3929                 3.9966                 3.3332
 IR Inten    --     15.1903              1520.0096               250.9816

                     55                     56                     57
                      A                      A                      A
 Frequencies --   1477.0649              1493.5317              1504.6382
 Red. masses --      3.8879                 3.9995                 4.6072
 Frc consts  --      4.9976                 5.2564                 6.1454
 IR Inten    --     85.3619               114.3414               967.8417

                     58                     59                     60
                      A                      A                      A
 Frequencies --   1524.4438              1559.8428              1602.9122
 Red. masses --      4.7989                 5.4358                 8.1460
 Frc consts  --      6.5708                 7.7925                12.3315
 IR Inten    --     23.9300                56.2294                48.4357

                     61                     62                     63
                      A                      A                      A
 Frequencies --   1618.9132              1635.7658              1650.9799
 Red. masses --      5.4666                 4.5990                 1.2182
 Frc consts  --      8.4415                 7.2503                 1.9565
 IR Inten    --    174.7376               214.5809               241.2377

                     64                     65                     66
                      A                      A                      A
 Frequencies --   3156.9214              3157.0805              3171.1797
 Red. masses --      1.0875                 1.0869                 1.0900
 Frc consts  --      6.3857                 6.3825                 6.4583
 IR Inten    --     28.8768                 9.0633                21.0244

                     67                     68                     69
                      A                      A                      A
 Frequencies --   3176.4867              3186.4476              3187.1693
 Red. masses --      1.0890                 1.0923                 1.0917
 Frc consts  --      6.4739                 6.5343                 6.5337
 IR Inten    --     24.6129                27.5247                22.4494

                     70                     71                     72
                      A                      A                      A
 Frequencies --   3190.6938              3554.1666              3648.6540
 Red. masses --      1.0945                 1.0480                 1.0990
 Frc consts  --      6.5649                 7.7996                 8.6200
 IR Inten    --     45.2146                57.6010                30.5866

 - Thermochemistry -
 -------------------
 Temperature   298.150 Kelvin.  Pressure   1.00000 Atm.
 Atom     1 has atomic number  7 and mass  14.00307

 Molecular mass:   223.06333 amu.
 Principal axes and moments of inertia in atomic units:
                           1         2         3
     Eigenvalues --  1737.090125317.924737053.45560
           X            0.98025   0.03256  -0.19508
           Y            0.19694  -0.07005   0.97791
           Z           -0.01817   0.99701   0.07507
 This molecule is an asymmetric top.
 Rotational symmetry number  1.
 Warning -- assumption of classical behavior for rotation
           may cause significant error
 Rotational temperatures (Kelvin)      0.04986     0.01629     0.01228
 Rotational constants (GHZ):           1.03895     0.33937     0.25587
 Zero-point vibrational energy     507915.2 (Joules/Mol)
                                  121.39466 (Kcal/Mol)
 Warning -- explicit consideration of  20 degrees of freedom as
           vibrations may cause significant error
 Vibrational temperatures:     68.62   139.89   185.36   221.08   276.94
          (Kelvin)            292.84   401.70   430.62   469.49   486.12
                              542.49   562.89   598.09   639.28   640.63
                              663.93   704.36   775.75   823.62   854.98
                              922.40   946.87   964.43  1005.06  1019.05
                             1047.83  1093.72  1129.66  1137.73  1195.28
                             1244.12  1267.11  1276.62  1342.83  1412.97
                             1419.38  1421.69  1435.65  1491.55  1577.41
                             1595.63  1622.28  1657.79  1665.51  1720.81
                             1751.02  1770.02  1802.26  1861.58  1945.51
                             1952.10  1974.66  2038.72  2106.09  2125.17
                             2148.86  2164.84  2193.33  2244.27  2306.23
                             2329.26  2353.50  2375.39  4542.11  4542.33
                             4562.62  4570.26  4584.59  4585.63  4590.70
                             5113.65  5249.60

 Zero-point correction=                           0.193455 (Hartree/Particle)
 Thermal correction to Energy=                    0.206159
 Thermal correction to Enthalpy=                  0.207103
 Thermal correction to Gibbs Free Energy=         0.153950
 Sum of electronic and zero-point Energies=           -744.282113
 Sum of electronic and thermal Energies=              -744.269409
 Sum of electronic and thermal Enthalpies=            -744.268465
 Sum of electronic and thermal Free Energies=         -744.321617

                     E (Thermal)             CV                S
                      KCal/Mol        Cal/Mol-Kelvin    Cal/Mol-Kelvin
 Total                  129.367             52.179            111.869
 Electronic               0.000              0.000              1.377
 Translational            0.889              2.981             42.109
 Rotational               0.889              2.981             32.544
 Vibrational            127.589             46.218             35.838
 Vibration     1          0.595              1.978              4.911
 Vibration     2          0.603              1.951              3.509
 Vibration     3          0.611              1.924              2.963
 Vibration     4          0.619              1.899              2.626
 Vibration     5          0.634              1.850              2.204
 Vibration     6          0.639              1.835              2.101
 Vibration     7          0.680              1.712              1.539
 Vibration     8          0.692              1.675              1.421
 Vibration     9          0.710              1.623              1.278
 Vibration    10          0.718              1.600              1.222
 Vibration    11          0.748              1.519              1.051
 Vibration    12          0.759              1.489              0.995
 Vibration    13          0.779              1.436              0.907
 Vibration    14          0.804              1.373              0.813
 Vibration    15          0.805              1.371              0.810
 Vibration    16          0.819              1.336              0.762
 Vibration    17          0.845              1.273              0.685
 Vibration    18          0.894              1.163              0.567
 Vibration    19          0.929              1.091              0.500
 Vibration    20          0.952              1.044              0.460

                           ! Non-Optimized Parameters !
 Normal termination of Gaussian 16 at Sat Feb 10 17:30:22 2024.
