 Q-Chem 5.4, Q-Chem, Inc., Pleasanton, CA (2021)
 Q-Chem 5.4.0 for Intel X86 EM64T Linux

User input:
--------------------------------------------------------------
$molecule
0 1
C                 -0.9498830000      2.1013000000     -0.2164810000
C                 -1.3654260000      2.2019960000      1.1076570000
C                 -0.7294150000      1.4505820000      2.0975630000
C                  0.1042650000      1.2467870000     -0.5482110000
C                  0.7460100000      0.4893620000      0.4454310000
C                  0.3221080000      0.5969660000      1.7687770000
C                  0.5559280000      1.1283770000     -1.9463970000
C                  1.6883020000      0.2051910000     -2.2458630000
C                  2.3162740000     -0.5436360000     -1.3061520000
C                  1.8808400000     -0.4342720000      0.1019590000
O                  0.0582260000      1.7430710000     -2.8831000000
O                  2.4286200000     -1.0850920000      0.9809930000
H                 -1.4279230000      2.6736340000     -1.0020320000
H                 -2.1827080000      2.8639670000      1.3694350000
H                 -1.0546540000      1.5304780000      3.1286520000
H                  0.8260630000      0.0069540000      2.5241630000
O                  2.0342760000      0.1710050000     -3.5430900000
C                  3.4623510000     -1.4579870000     -1.6363110000
C                  4.8371960000     -0.7731270000     -1.4810130000
C                  6.0016780000     -1.7122610000     -1.8115200000
C                  7.3757280000     -1.0486740000     -1.6661130000
C                  8.5447510000     -1.9828000000     -1.9988130000
C                  9.9190590000     -1.3198610000     -1.8517680000
C                 11.0877840000     -2.2538360000     -2.1852050000
C                 12.4614820000     -1.5882980000     -2.0365700000
C                 13.6246060000     -2.5346280000     -2.3748700000
C                 14.9682060000     -1.8441250000     -2.2169170000
Br                16.4856230000     -3.0510690000     -2.6509400000
H                  1.4246110000      0.7804280000     -4.0012420000
H                  3.3509950000     -1.8151910000     -2.6632940000
H                  3.4198590000     -2.3216980000     -0.9681490000
H                  4.9398870000     -0.4092030000     -0.4532410000
H                  4.8767090000      0.1050600000     -2.1354150000
H                  5.8862750000     -2.0858080000     -2.8371610000
H                  5.9526480000     -2.5921770000     -1.1576930000
H                  7.4904400000     -0.6767080000     -0.6399310000
H                  7.4218190000     -0.1658470000     -2.3167880000
H                  8.4302710000     -2.3543210000     -3.0253070000
H                  8.4979860000     -2.8662180000     -1.3491380000
H                 10.0335720000     -0.9491090000     -0.8250100000
H                  9.9655530000     -0.4359390000     -2.5009350000
H                 10.9751330000     -2.6238580000     -3.2120620000
H                 11.0427190000     -3.1375420000     -1.5363420000
H                 12.5759120000     -1.2205340000     -1.0091610000
H                 12.5076380000     -0.7050820000     -2.6859910000
H                 13.5200780000     -2.8973430000     -3.4021290000
H                 13.5881570000     -3.4136990000     -1.7239880000
H                 15.1522560000     -1.5211110000     -1.1939900000
H                 15.0829250000     -0.9978740000     -2.8916700000
$end
$rem
MAX_SCF_CYCLES=200
BASIS  =  6-311++G(d,p)
GUI  =  2
JOB_TYPE  =  SP
METHOD  =  B3LYP
SCF_CONVERGENCE  = 6
SOLVENT_METHOD = COSMO
$end
$solvent
dielectric 37.219
opticaldielectric 1.43
$end

--------------------------------------------------------------

             Standard Nuclear Orientation (Angstroms)
    I     Atom           X                Y                Z
 ----------------------------------------------------------------
    1      C       8.2633107774     0.0493300955     1.0861934243
    2      C       8.8698790798     1.3011725479     1.1196968748
    3      C       8.2212368982     2.4058311169     0.5646836797
    4      C       7.0053946718    -0.0949062486     0.4960169978
    5      C       6.3503627320     1.0145308790    -0.0633899360
    6      C       6.9664629311     2.2641210417    -0.0251651779
    7      C       6.3497170106    -1.4144092763     0.4519369732
    8      C       5.0051091553    -1.5127330536    -0.1857034441
    9      C       4.3578648691    -0.4589515265    -0.7413713300
   10      C       4.9972005486     0.8729793643    -0.7020034215
   11      O       6.8410308578    -2.4408224511     0.9080676592
   12      O       4.4413609156     1.8507920108    -1.1828933307
   13      H       8.7468415291    -0.8224899503     1.5096395750
   14      H       9.8456542720     1.4175714047     1.5768590714
   15      H       8.6955055525     3.3803263463     0.5918239677
   16      H       6.4497300101     3.1104141560    -0.4604442426
   17      O       4.4845787278    -2.7506649885    -0.1703028114
   18      C       2.9978449020    -0.5864063399    -1.3679781972
   19      C       1.8524743826    -0.2950285511    -0.3747134692
   20      C       0.4689754514    -0.4190493664    -1.0210689597
   21      C      -0.6818907779    -0.1363533237    -0.0489094181
   22      C      -2.0689152692    -0.2622474006    -0.6893851712
   23      C      -3.2199525889     0.0221404823     0.2822471920
   24      C      -4.6067571949    -0.1045301811    -0.3581707865
   25      C      -5.7563891368     0.1812053009     0.6158831240
   26      C      -7.1413129654     0.0497047558    -0.0379810775
   27      C      -8.2549197305     0.3393741162     0.9534704531
   28      Br    -10.0543258765     0.1734934750     0.1274769482
   29      H       5.1487111633    -3.3173680347     0.2664658067
   30      H       2.8809247043    -1.5971279106    -1.7673032685
   31      H       2.9324820232     0.1189148672    -2.2001394849
   32      H       1.9793966291     0.7149774242     0.0291182736
   33      H       1.9259398918    -0.9879348073     0.4711585074
   34      H       0.3523796958    -1.4280303181    -1.4371909892
   35      H       0.4042004518     0.2721631899    -1.8708779119
   36      H      -0.5649182680     0.8731646177     0.3655275532
   37      H      -0.6131790874    -0.8249888847     0.8031150038
   38      H      -2.1860520407    -1.2720698069    -1.1033430681
   39      H      -2.1372519345     0.4253451825    -1.5421679533
   40      H      -3.1029880040     1.0322723623     0.6954724745
   41      H      -3.1511686761    -0.6650127149     1.1354686433
   42      H      -4.7253612106    -1.1145624262    -0.7702506064
   43      H      -4.6769100194     0.5824933558    -1.2108533665
   44      H      -5.6399419494     1.1921414506     1.0262025015
   45      H      -5.6874771635    -0.5062025469     1.4683325975
   46      H      -7.2661165555    -0.9600983326    -0.4410581342
   47      H      -7.2184201657     0.7395701381    -0.8840791596
   48      H      -8.2164521538     1.3573715754     1.3366068682
   49      H      -8.2640615036    -0.3621951286     1.7855220367
 ----------------------------------------------------------------

   21   -3577.3249915224      9.56e-07  Convergence criterion met
 Total energy in the final basis set =    -3577.3249915224
   12   -3577.3515856611      4.02e-07  Convergence criterion met
 Total energy in the final basis set =    -3577.3515856611

                    Orbital Energies (a.u.)
 --------------------------------------------------------------

 Alpha MOs
 -- Occupied --
******** -62.4735 -56.2937 -56.2903 -56.2902 -19.2181 -19.1646 -19.1475
-10.3115 -10.3088 -10.3003 -10.2479 -10.2271 -10.2256 -10.2212 -10.2105
-10.2104 -10.2086 -10.2068 -10.1944 -10.1757 -10.1729 -10.1656 -10.1598
-10.1592 -10.1544 -10.1522 -10.1502  -8.6820  -6.5125  -6.5011  -6.5008
 -2.6236  -2.6205  -2.6200  -2.6111  -2.6110  -1.1368  -1.0859  -1.0795
 -0.9074  -0.8701  -0.8253  -0.8132  -0.7983  -0.7909  -0.7846  -0.7626
 -0.7370  -0.7141  -0.6915  -0.6754  -0.6569  -0.6328  -0.6223  -0.6046
 -0.5892  -0.5849  -0.5709  -0.5678  -0.5643  -0.5324  -0.5109  -0.4933
 -0.4905  -0.4877  -0.4814  -0.4756  -0.4645  -0.4607  -0.4524  -0.4508
 -0.4421  -0.4327  -0.4309  -0.4260  -0.4247  -0.4241  -0.4054  -0.3988
 -0.3923  -0.3887  -0.3862  -0.3799  -0.3723  -0.3673  -0.3526  -0.3450
 -0.3437  -0.3300  -0.3286  -0.3199  -0.3172  -0.3158  -0.3086  -0.3071
 -0.2996  -0.2951  -0.2893  -0.2837  -0.2822  -0.2776

          Ground-State Mulliken Net Atomic Charges

     Atom                 Charge (a.u.)
  ----------------------------------------
      1 C                     0.602147
      2 C                    -0.732871
      3 C                    -0.489805
      4 C                     1.227296
      5 C                     0.287112
      6 C                     0.344420
      7 C                    -0.479094
      8 C                     1.388227
      9 C                    -0.018633
     10 C                     0.602401
     11 O                    -0.248507
     12 O                    -0.245649
     13 H                     0.201772
     14 H                     0.228726
     15 H                     0.240719
     16 H                     0.217087
     17 O                    -0.167632
     18 C                    -1.422695
     19 C                     2.312216
     20 C                    -1.734918
     21 C                    -1.681775
     22 C                    -2.278469
     23 C                    -0.429537
     24 C                     1.070075
     25 C                     0.371695
     26 C                    -0.672514
     27 C                    -1.882877
     28 Br                   -0.285184
     29 H                     0.362409
     30 H                    -0.004831
     31 H                     0.064156
     32 H                     0.130355
     33 H                     0.197735
     34 H                     0.081407
     35 H                     0.109805
     36 H                     0.118962
     37 H                     0.099526
     38 H                     0.132695
     39 H                     0.132029
     40 H                     0.132135
     41 H                     0.135772
     42 H                     0.148286
     43 H                     0.143797
     44 H                     0.145586
     45 H                     0.144542
     46 H                     0.191404
     47 H                     0.190863
     48 H                     0.211261
     49 H                     0.211206
  ----------------------------------------
  Sum of atomic charges =    -0.597165

                    Cartesian Multipole Moments
 -----------------------------------------------------------------
    Charge (ESU x 10^10)
                -2.8683
    Dipole Moment (Debye)
         X      20.3151      Y       0.9753      Z       1.2681
       Tot      20.3780
    Quadrupole Moments (Debye-Ang)
        XX    -324.1262     XY      17.9636     YY    -190.5056
        XZ       2.2796     YZ       5.4774     ZZ    -188.7484

 Total job time:  399.99s(wall), 3136.61s(cpu)
        *  Thank you very much for using Q-Chem.  Have a nice day.  *
