 Gaussian 16, Revision A.03,
 Gaussian 16:  ES64L-G16RevA.03 25-Dec-2016

 ----------------------------------------------------------------------
 #P UB3LYP/6-311++G(d,p) nosym opt freq SCRF=(PCM,Solvent=n,n-DiMethylF
 ormamide)
 ----------------------------------------------------------------------

 --------
 Oxidized
 --------
 Symbolic Z-matrix:
 Charge =  0 Multiplicity = 1

 SCF Done:  E(UB3LYP) =  -1897.00612999     A.U. after   16 cycles
 SCF Done:  E(UB3LYP) =  -1897.00686719     A.U. after   13 cycles
 SCF Done:  E(UB3LYP) =  -1897.00696070     A.U. after   12 cycles
 SCF Done:  E(UB3LYP) =  -1897.00693038     A.U. after   12 cycles
 SCF Done:  E(UB3LYP) =  -1897.00699454     A.U. after   12 cycles
 SCF Done:  E(UB3LYP) =  -1897.00700346     A.U. after   11 cycles
 SCF Done:  E(UB3LYP) =  -1897.00700445     A.U. after   11 cycles
 SCF Done:  E(UB3LYP) =  -1897.00700687     A.U. after   10 cycles
 SCF Done:  E(UB3LYP) =  -1897.00700782     A.U. after   10 cycles
 SCF Done:  E(UB3LYP) =  -1897.00700848     A.U. after   10 cycles
 SCF Done:  E(UB3LYP) =  -1897.00710416     A.U. after   13 cycles
 SCF Done:  E(UB3LYP) =  -1897.00712951     A.U. after   12 cycles
 SCF Done:  E(UB3LYP) =  -1897.00709696     A.U. after   13 cycles
 SCF Done:  E(UB3LYP) =  -1897.00714440     A.U. after   15 cycles
 SCF Done:  E(UB3LYP) =  -1897.00715034     A.U. after   13 cycles
 SCF Done:  E(UB3LYP) =  -1897.00715334     A.U. after   10 cycles
 SCF Done:  E(UB3LYP) =  -1897.00715808     A.U. after   12 cycles
 SCF Done:  E(UB3LYP) =  -1897.00715907     A.U. after   11 cycles
 SCF Done:  E(UB3LYP) =  -1897.00715916     A.U. after    9 cycles
 Optimization completed.
    -- Stationary point found.
 Normal termination of Gaussian 16 at Sun Feb 11 01:14:38 2024.

 ----------------------------------------------------------------------
 #P Geom=AllCheck Guess=TCheck SCRF=Check GenChk UB3LYP/6-311++G(d,p) F
 req
 ----------------------------------------------------------------------

 Structure from the checkpoint file:  "219.chk"
 --------
 Oxidized
 --------
 Charge =  0 Multiplicity = 1

                          Input orientation:
 ---------------------------------------------------------------------
 Center     Atomic      Atomic             Coordinates (Angstroms)
 Number     Number       Type             X           Y           Z
 ---------------------------------------------------------------------
      1          6           0        5.080776   -2.492694    0.209405
      2          6           0        5.810272   -1.526126   -0.467853
      3          6           0        5.125820   -0.509857   -1.138388
      4          6           0        3.682807   -2.447215    0.217187
      5          6           0        3.010335   -1.415898   -0.458685
      6          6           0        3.741936   -0.438598   -1.140037
      7          6           0        2.928006   -3.505530    0.951827
      8          6           0        1.439513   -3.422796    0.941514
      9          6           0        0.767040   -2.391464    0.265675
     10          6           0        1.521838   -1.333183   -0.469026
     11          6           0        0.707912   -4.400094    1.622874
     12          6           0       -0.630932   -2.345943    0.273517
     13          6           0       -1.360426   -3.312493    0.950800
     14          8           0        3.508737   -4.404028    1.538943
     15          8           0        0.941097   -0.434753   -1.056232
     16          1           0        5.584556   -3.290511    0.739010
     17          1           0       -2.442455   -3.282179    0.954255
     18          1           0        3.222162    0.358774   -1.653699
     19          1           0        1.227676   -5.197493    2.136504
     20          1           0       -1.134708   -1.548109   -0.256065
     21          6           0       -0.675968   -4.328800    1.621276
     22         16           0        6.070419    0.744950   -2.024741
     23          1           0        6.892303   -1.556392   -0.471242
     24         16           0       -1.620563   -5.583638    2.507587
     25          8           0       -0.708265   -6.695099    2.789889
     26          8           0       -2.866786   -5.829106    1.777356
     27          7           0       -2.057928   -4.777366    3.908222
     28          1           0       -1.376590   -4.906743    4.651960
     29          1           0       -2.987369   -5.065167    4.204194
     30          8           0        5.158191    1.856522   -2.306815
     31          8           0        7.316773    0.990132   -1.294640
     32          7           0        6.507424   -0.061117   -3.425603
     33          1           0        7.437233    0.225894   -3.721174
     34          1           0        5.826419    0.069209   -4.169475
 ---------------------------------------------------------------------

 SCF Done:  E(UB3LYP) =  -1897.00715916     A.U. after    2 cycles

 Alpha  occ. eigenvalues --  -89.09267 -89.09266 -19.14678 -19.14678 -19.14294
 Alpha  occ. eigenvalues --  -19.14294 -19.14236 -19.14236 -14.36050 -14.36049
 Alpha  occ. eigenvalues --  -10.29918 -10.29917 -10.24532 -10.24532 -10.22980
 Alpha  occ. eigenvalues --  -10.22979 -10.22886 -10.22886 -10.22409 -10.22409
 Alpha  occ. eigenvalues --  -10.22394 -10.22394 -10.21622 -10.21622  -8.15412
 Alpha  occ. eigenvalues --   -8.15412  -6.11692  -6.11691  -6.11663  -6.11662
 Alpha  occ. eigenvalues --   -6.11509  -6.11509  -1.14671  -1.14671  -1.08145
 Alpha  occ. eigenvalues --   -1.07959  -1.03571  -1.03569  -0.93375  -0.93364
 Alpha  occ. eigenvalues --   -0.91782  -0.90862  -0.84302  -0.80969  -0.80230
 Alpha  occ. eigenvalues --   -0.79963  -0.72515  -0.72241  -0.68164  -0.68076
 Alpha  occ. eigenvalues --   -0.63903  -0.63772  -0.60800  -0.58547  -0.58177
 Alpha  occ. eigenvalues --   -0.55997  -0.54823  -0.54333  -0.53380  -0.52801
 Alpha  occ. eigenvalues --   -0.52566  -0.51779  -0.50814  -0.49107  -0.47573
 Alpha  occ. eigenvalues --   -0.47372  -0.47342  -0.47154  -0.47035  -0.46707
 Alpha  occ. eigenvalues --   -0.46579  -0.44352  -0.43362  -0.42105  -0.41705
 Alpha  occ. eigenvalues --   -0.40438  -0.39470  -0.39072  -0.38470  -0.38404
 Alpha  occ. eigenvalues --   -0.35580  -0.35569  -0.34666  -0.34649  -0.33665
 Alpha  occ. eigenvalues --   -0.33622  -0.32467  -0.32371  -0.30331  -0.30253
 Alpha  occ. eigenvalues --   -0.29890  -0.29619  -0.29301  -0.29115
 Alpha virt. eigenvalues --   -0.13711  -0.09601  -0.06763  -0.04979  -0.01599
 Alpha virt. eigenvalues --   -0.01253  -0.00800   0.00482   0.00815   0.01775
 Alpha virt. eigenvalues --    0.01917   0.02129   0.02897   0.03112   0.03226

  Beta  occ. eigenvalues --  -89.09267 -89.09266 -19.14678 -19.14678 -19.14294
  Beta  occ. eigenvalues --  -19.14294 -19.14236 -19.14236 -14.36050 -14.36049
  Beta  occ. eigenvalues --  -10.29918 -10.29917 -10.24532 -10.24532 -10.22980
  Beta  occ. eigenvalues --  -10.22979 -10.22886 -10.22886 -10.22409 -10.22409
  Beta  occ. eigenvalues --  -10.22394 -10.22394 -10.21622 -10.21622  -8.15412
  Beta  occ. eigenvalues --   -8.15412  -6.11692  -6.11691  -6.11663  -6.11662
  Beta  occ. eigenvalues --   -6.11509  -6.11509  -1.14671  -1.14671  -1.08145
  Beta  occ. eigenvalues --   -1.07959  -1.03571  -1.03569  -0.93375  -0.93364
  Beta  occ. eigenvalues --   -0.91782  -0.90862  -0.84302  -0.80969  -0.80230
  Beta  occ. eigenvalues --   -0.79963  -0.72515  -0.72241  -0.68164  -0.68076
  Beta  occ. eigenvalues --   -0.63903  -0.63772  -0.60800  -0.58547  -0.58177
  Beta  occ. eigenvalues --   -0.55997  -0.54823  -0.54333  -0.53380  -0.52801
  Beta  occ. eigenvalues --   -0.52566  -0.51779  -0.50814  -0.49107  -0.47573
  Beta  occ. eigenvalues --   -0.47372  -0.47342  -0.47154  -0.47035  -0.46707
  Beta  occ. eigenvalues --   -0.46579  -0.44352  -0.43362  -0.42105  -0.41705
  Beta  occ. eigenvalues --   -0.40438  -0.39470  -0.39072  -0.38470  -0.38404
  Beta  occ. eigenvalues --   -0.35580  -0.35569  -0.34666  -0.34649  -0.33665
  Beta  occ. eigenvalues --   -0.33622  -0.32467  -0.32371  -0.30331  -0.30253
  Beta  occ. eigenvalues --   -0.29890  -0.29619  -0.29301  -0.29115
  Beta virt. eigenvalues --   -0.13711  -0.09601  -0.06763  -0.04979  -0.01599
  Beta virt. eigenvalues --   -0.01253  -0.00800   0.00482   0.00815   0.01775
  Beta virt. eigenvalues --    0.01917   0.02129   0.02897   0.03112   0.03226

 Mulliken charges and spin densities:
               1          2
     1  C    0.011381  -0.000000
     2  C   -0.354722  -0.000000
     3  C   -0.402870   0.000000
     4  C    0.554071   0.000000
     5  C    0.165689  -0.000000
     6  C    0.137777  -0.000000
     7  C   -0.681424   0.000000
     8  C    0.165810  -0.000000
     9  C    0.554051  -0.000000
    10  C   -0.681407   0.000000
    11  C    0.137946   0.000000
    12  C    0.011329   0.000000
    13  C   -0.354731  -0.000000
    14  O   -0.233050   0.000000
    15  O   -0.233047   0.000000
    16  H    0.193852  -0.000000
    17  H    0.278940  -0.000000
    18  H    0.247235   0.000000
    19  H    0.247245  -0.000000
    20  H    0.193852  -0.000000
    21  C   -0.402964  -0.000000
    22  S    0.348702  -0.000000
    23  H    0.278933  -0.000000
    24  S    0.348594   0.000000
    25  O   -0.245367  -0.000000
    26  O   -0.292011  -0.000000
    27  N   -0.386873  -0.000000
    28  H    0.318187  -0.000000
    29  H    0.340446   0.000000
    30  O   -0.245444   0.000000
    31  O   -0.292017  -0.000000
    32  N   -0.386819   0.000000
    33  H    0.340473  -0.000000
    34  H    0.318232  -0.000000
 Sum of Mulliken charges =  -0.00000   0.00000

 Dipole moment (field-independent basis, Debye):
    X=              0.0011    Y=              0.0014    Z=              0.0002  Tot=              0.0018
 Quadrupole moment (field-independent basis, Debye-Ang):
   XX=           -152.1640   YY=           -209.8615   ZZ=           -116.9382
   XY=            -22.3694   XZ=            -29.9123   YZ=              2.0612

  Exact polarizability: 419.746  41.782 331.791 -38.795-102.596 258.719
 Approx polarizability: 473.022  -3.613 391.324  -2.248-114.113 296.977

                      1                      2                      3
                      A                      A                      A
 Frequencies --     20.0804                23.0101                24.5900
 Red. masses --      9.6659                 7.1600                 8.0324
 Frc consts  --      0.0023                 0.0022                 0.0029
 IR Inten    --      1.6317                 0.0018                 8.3511

                      4                      5                      6
                      A                      A                      A
 Frequencies --     65.5683                66.6215                77.8180
 Red. masses --      6.6368                 7.4306                 9.3378
 Frc consts  --      0.0168                 0.0194                 0.0333
 IR Inten    --     14.3333                 0.0018                 0.7498

                      7                      8                      9
                      A                      A                      A
 Frequencies --    104.2596               105.2062               123.9924
 Red. masses --      1.5804                 1.6008                 9.1922
 Frc consts  --      0.0101                 0.0104                 0.0833
 IR Inten    --    109.1995                24.1722                 0.0006

                     10                     11                     12
                      A                      A                      A
 Frequencies --    132.9137               139.2908               175.4200
 Red. masses --      3.1202                 2.9325                 4.7244
 Frc consts  --      0.0325                 0.0335                 0.0857
 IR Inten    --     34.1719                 0.0199                15.7545

                     13                     14                     15
                      A                      A                      A
 Frequencies --    180.8284               224.9329               226.9733
 Red. masses --     10.3939                 5.3669                 9.1499
 Frc consts  --      0.2002                 0.1600                 0.2777
 IR Inten    --      0.0002                 0.0001                 9.4082

                     16                     17                     18
                      A                      A                      A
 Frequencies --    259.3884               274.1571               322.9609
 Red. masses --     11.1827                11.2269                 4.2194
 Frc consts  --      0.4433                 0.4972                 0.2593
 IR Inten    --      1.2849                 0.0000                33.6761

                     19                     20                     21
                      A                      A                      A
 Frequencies --    329.3173               351.8004               355.8168
 Red. masses --      4.2178                 4.3392                 4.4147
 Frc consts  --      0.2695                 0.3164                 0.3293
 IR Inten    --      0.0010                 8.4493                 0.0001

                     22                     23                     24
                      A                      A                      A
 Frequencies --    399.0476               409.0792               413.8787
 Red. masses --      7.4185                 9.7540                 3.4816
 Frc consts  --      0.6960                 0.9617                 0.3514
 IR Inten    --      0.0000               135.1843                11.7705

                     25                     26                     27
                      A                      A                      A
 Frequencies --    430.7446               438.9361               444.4546
 Red. masses --      6.3231                 5.6621                 3.3987
 Frc consts  --      0.6912                 0.6427                 0.3956
 IR Inten    --      0.0000                16.5879                 0.0000

                     28                     29                     30
                      A                      A                      A
 Frequencies --    449.9241               467.9355               469.9271
 Red. masses --      8.0541                 8.4951                 9.1480
 Frc consts  --      0.9606                 1.0959                 1.1902
 IR Inten    --      0.0000                54.0246                 0.0012

                     31                     32                     33
                      A                      A                      A
 Frequencies --    496.2506               527.0546               546.4469
 Red. masses --      8.0489                 8.0951                 5.7296
 Frc consts  --      1.1679                 1.3249                 1.0080
 IR Inten    --      0.0000                 0.0001               424.5154

                     34                     35                     36
                      A                      A                      A
 Frequencies --    575.4579               581.0222               631.0949
 Red. masses --      5.2252                 6.0476                 2.3839
 Frc consts  --      1.0195                 1.2029                 0.5594
 IR Inten    --     59.9486                 0.0003                 8.3473

                     37                     38                     39
                      A                      A                      A
 Frequencies --    631.9705               654.4061               671.0223
 Red. masses --      2.3799                 7.4770                 4.2451
 Frc consts  --      0.5600                 1.8866                 1.1262
 IR Inten    --    684.9434                35.4704                 0.0001

                     40                     41                     42
                      A                      A                      A
 Frequencies --    681.5935               698.0903               720.7883
 Red. masses --      6.5543                 7.0453                 4.2040
 Frc consts  --      1.7940                 2.0229                 1.2869
 IR Inten    --     36.6939                 0.0000                36.7276

                     43                     44                     45
                      A                      A                      A
 Frequencies --    731.4342               755.1002               810.9651
 Red. masses --      6.7665                 4.7450                 3.4139
 Frc consts  --      2.1329                 1.5940                 1.3228
 IR Inten    --      0.0000                39.4114                 0.0000

                     46                     47                     48
                      A                      A                      A
 Frequencies --    827.4317               853.7946               864.2876
 Red. masses --      3.6329                 2.3808                 1.7108
 Frc consts  --      1.4654                 1.0226                 0.7529
 IR Inten    --    213.7547                 0.0002                 0.0005

                     49                     50                     51
                      A                      A                      A
 Frequencies --    866.9685               872.9240               947.7207
 Red. masses --      1.5910                 3.2915                 1.4477
 Frc consts  --      0.7046                 1.4778                 0.7661
 IR Inten    --     79.2640               284.6718                 0.0020

                     52                     53                     54
                      A                      A                      A
 Frequencies --    948.1460               967.7291               968.1335
 Red. masses --      1.4312                 5.7069                 6.7264
 Frc consts  --      0.7581                 3.1489                 3.7145
 IR Inten    --     16.1188               327.2728                 0.0014

                     55                     56                     57
                      A                      A                      A
 Frequencies --   1003.6163              1006.1251              1071.1900
 Red. masses --      1.3517                 1.3771                 4.3015
 Frc consts  --      0.8021                 0.8214                 2.9081
 IR Inten    --      0.0000                 3.9651                 0.0011

                     58                     59                     60
                      A                      A                      A
 Frequencies --   1071.6721              1088.6150              1094.1005
 Red. masses --      4.1170                 2.0435                 1.6194
 Frc consts  --      2.7858                 1.4269                 1.1421
 IR Inten    --    345.3907               217.7480                 0.0006

                     61                     62                     63
                      A                      A                      A
 Frequencies --   1106.1098              1114.0587              1137.4312
 Red. masses --      1.6738                 2.0316                 2.7083
 Frc consts  --      1.2066                 1.4856                 2.0644
 IR Inten    --    254.5373                 0.0019               257.1176

                     64                     65                     66
                      A                      A                      A
 Frequencies --   1138.7446              1185.5509              1185.9788
 Red. masses --      1.8499                 1.7410                 4.1072
 Frc consts  --      1.4134                 1.4418                 3.4037
 IR Inten    --      0.0011                61.4177                 0.0002

                     67                     68                     69
                      A                      A                      A
 Frequencies --   1227.4461              1262.8645              1266.8731
 Red. masses --      1.7328                 3.3765                 9.2339
 Frc consts  --      1.5382                 3.1727                 8.7318
 IR Inten    --      0.0000               867.8596                 0.0076

                     70                     71                     72
                      A                      A                      A
 Frequencies --   1273.8077              1293.7851              1297.7630
 Red. masses --      2.0146                 1.8849                 5.4022
 Frc consts  --      1.9260                 1.8589                 5.3606
 IR Inten    --    106.1674                 0.0001              1032.2564

                     73                     74                     75
                      A                      A                      A
 Frequencies --   1347.6595              1361.3260              1423.5537
 Red. masses --      9.6863                 8.2408                 3.8168
 Frc consts  --     10.3650                 8.9980                 4.5572
 IR Inten    --     25.6183                 0.0000                15.6492

                     76                     77                     78
                      A                      A                      A
 Frequencies --   1442.0495              1495.2645              1503.1622
 Red. masses --      4.9392                 2.5782                 2.5507
 Frc consts  --      6.0516                 3.3963                 3.3957
 IR Inten    --      0.0000                26.5519                 0.0000

                     79                     80                     81
                      A                      A                      A
 Frequencies --   1577.1051              1577.2088              1598.6078
 Red. masses --      1.0993                 1.0942                 7.4447
 Frc consts  --      1.6110                 1.6038                11.2094
 IR Inten    --     99.6748                 2.4455                14.8129

                     82                     83                     84
                      A                      A                      A
 Frequencies --   1612.3669              1618.1938              1626.7849
 Red. masses --      8.4366                 6.4540                 6.3347
 Frc consts  --     12.9225                 9.9573                 9.8773
 IR Inten    --      0.0000               302.4277                 0.0000

                     85                     86                     87
                      A                      A                      A
 Frequencies --   1710.2002              1715.7280              3203.1696
 Red. masses --     12.6773                12.2007                 1.0892
 Frc consts  --     21.8459                21.1609                 6.5846
 IR Inten    --      0.0002               785.4925                 4.3130

                     88                     89                     90
                      A                      A                      A
 Frequencies --   3203.1801              3214.9878              3214.9913
 Red. masses --      1.0893                 1.0947                 1.0949
 Frc consts  --      6.5848                 6.6665                 6.6676
 IR Inten    --      0.0081                 0.1348                 1.5226

                     91                     92                     93
                      A                      A                      A
 Frequencies --   3218.3926              3218.5129              3491.7049
 Red. masses --      1.0913                 1.0915                 1.0469
 Frc consts  --      6.6602                 6.6616                 7.5199
 IR Inten    --     20.2384                 0.0015               149.4597

                     94                     95                     96
                      A                      A                      A
 Frequencies --   3491.7371              3592.2976              3592.3313
 Red. masses --      1.0469                 1.0989                 1.0989
 Frc consts  --      7.5201                 8.3552                 8.3554
 IR Inten    --     47.4674                91.3226                97.5829

 - Thermochemistry -
 -------------------
 Temperature   298.150 Kelvin.  Pressure   1.00000 Atm.
 Atom     1 has atomic number  6 and mass  12.00000

 Molecular mass:   365.99803 amu.
 Principal axes and moments of inertia in atomic units:
                           1         2         3
     Eigenvalues --  2567.79242********************
           X            0.72479   0.68803   0.03593
           Y            0.55078  -0.60996   0.56973
           Z           -0.41391   0.39315   0.82104
 This molecule is an asymmetric top.
 Rotational symmetry number  1.
 Warning -- assumption of classical behavior for rotation
           may cause significant error
 Rotational temperatures (Kelvin)      0.03373     0.00378     0.00350
 Rotational constants (GHZ):           0.70284     0.07870     0.07300
 Zero-point vibrational energy     605399.9 (Joules/Mol)
                                  144.69404 (Kcal/Mol)
 Warning -- explicit consideration of  35 degrees of freedom as
           vibrations may cause significant error
 Vibrational temperatures:     28.89    33.11    35.38    94.34    95.85
          (Kelvin)            111.96   150.01   151.37   178.40   191.23
                              200.41   252.39   260.17   323.63   326.56
                              373.20   394.45   464.67   473.81   506.16
                              511.94   574.14   588.57   595.48   619.75
                              631.53   639.47   647.34   673.25   676.12
                              713.99   758.31   786.22   827.96   835.96
                              908.00   909.26   941.54   965.45   980.66
                             1004.40  1037.05  1052.37  1086.42  1166.80
                             1190.49  1228.42  1243.52  1247.37  1255.94
                             1363.56  1364.17  1392.35  1392.93  1443.98
                             1447.59  1541.20  1541.90  1566.27  1574.17
                             1591.45  1602.88  1636.51  1638.40  1705.74
                             1706.36  1766.02  1816.98  1822.75  1832.73
                             1861.47  1867.19  1938.98  1958.64  2048.18
                             2074.79  2151.35  2162.72  2269.10  2269.25
                             2300.04  2319.84  2328.22  2340.58  2460.60
                             2468.55  4608.65  4608.66  4625.65  4625.66
                             4630.55  4630.72  5023.78  5023.83  5168.52
                             5168.56

 Zero-point correction=                           0.230585 (Hartree/Particle)
 Thermal correction to Energy=                    0.252154
 Thermal correction to Enthalpy=                  0.253099
 Thermal correction to Gibbs Free Energy=         0.177605
 Sum of electronic and zero-point Energies=          -1896.776575
 Sum of electronic and thermal Energies=             -1896.755005
 Sum of electronic and thermal Enthalpies=           -1896.754061
 Sum of electronic and thermal Free Energies=        -1896.829554

                     E (Thermal)             CV                S
                      KCal/Mol        Cal/Mol-Kelvin    Cal/Mol-Kelvin
 Total                  158.229             81.160            158.889
 Electronic               0.000              0.000              0.000
 Translational            0.889              2.981             43.585
 Rotational               0.889              2.981             35.630
 Vibrational            156.452             75.199             79.673
 Vibration     1          0.593              1.986              6.626
 Vibration     2          0.593              1.985              6.356
 Vibration     3          0.593              1.985              6.224
 Vibration     4          0.597              1.971              4.282
 Vibration     5          0.598              1.970              4.251
 Vibration     6          0.599              1.964              3.945
 Vibration     7          0.605              1.946              3.373
 Vibration     8          0.605              1.945              3.355
 Vibration     9          0.610              1.929              3.037
 Vibration    10          0.613              1.920              2.903
 Vibration    11          0.615              1.914              2.814
 Vibration    12          0.627              1.873              2.377
 Vibration    13          0.630              1.866              2.320
 Vibration    14          0.650              1.803              1.919
 Vibration    15          0.651              1.800              1.903
 Vibration    16          0.668              1.747              1.666
 Vibration    17          0.676              1.721              1.570
 Vibration    18          0.708              1.629              1.295
 Vibration    19          0.712              1.617              1.263
 Vibration    20          0.728              1.572              1.158
 Vibration    21          0.731              1.563              1.140
 Vibration    22          0.765              1.472              0.966
 Vibration    23          0.773              1.451              0.930
 Vibration    24          0.777              1.440              0.913
 Vibration    25          0.792              1.403              0.856
 Vibration    26          0.799              1.385              0.830
 Vibration    27          0.804              1.373              0.813
 Vibration    28          0.809              1.361              0.796
 Vibration    29          0.825              1.321              0.743
 Vibration    30          0.827              1.317              0.738
 Vibration    31          0.852              1.258              0.668
 Vibration    32          0.882              1.190              0.594
 Vibration    33          0.902              1.147              0.552
 Vibration    34          0.932              1.084              0.494
 Vibration    35          0.938              1.072              0.483

 Optimization completed.
    -- Stationary point found.
 Normal termination of Gaussian 16 at Sun Feb 11 02:50:16 2024.
