 Gaussian 16, Revision A.03,
 Gaussian 16:  ES64L-G16RevA.03 25-Dec-2016

 ----------------------------------------------------------------
 #P UB3LYP/6-311++G(d,p) SCRF=(PCM,Solvent=n,n-DiMethylFormamide)
 ----------------------------------------------------------------

 -------
 Reduced
 -------
 Symbolic Z-matrix:
 Charge = -2 Multiplicity = 1

                         Standard orientation:
 ---------------------------------------------------------------------
 Center     Atomic      Atomic             Coordinates (Angstroms)
 Number     Number       Type             X           Y           Z
 ---------------------------------------------------------------------
      1          6           0        4.993017   -1.485879   -0.003823
      2          6           0        3.682922   -0.735897   -0.008296
      3          6           0        3.678253    0.686690    0.002572
      4          6           0        2.507301    1.426168    0.012950
      5          6           0        2.638107    2.935828    0.025252
      6          6           0        1.231772    0.761537    0.000927
      7          6           0       -0.021331    1.494639   -0.009891
      8          8           0       -0.087727    2.775364   -0.023719
      9          6           0       -1.231559    0.686069   -0.001079
     10          6           0       -2.468430    1.381192   -0.001727
     11          6           0       -3.682932    0.735894   -0.008411
     12          6           0       -4.993032    1.485857   -0.003103
     13          6           0       -3.678250   -0.686699    0.002250
     14          6           0       -2.507301   -1.426173    0.012624
     15          6           0       -2.638112   -2.935833    0.024827
     16          6           0       -1.231764   -0.761534    0.000809
     17          6           0        0.021330   -1.494622   -0.009492
     18          8           0        0.087773   -2.775354   -0.022841
     19          6           0        1.231555   -0.686051   -0.000714
     20          6           0        2.468414   -1.381189   -0.001443
     21          1           0        5.611873   -1.238329   -0.875759
     22          1           0        5.606197   -1.250335    0.884341
     23          1           0        4.828160   -2.567844   -0.010946
     24          1           0        4.630469    1.216468   -0.002460
     25          1           0        2.168121    3.386479   -0.851716
     26          1           0        2.118513    3.376514    0.878188
     27          1           0        3.701083    3.212312    0.058602
     28          1           0       -2.405189    2.464873    0.002578
     29          1           0       -5.613161    1.237151   -0.873802
     30          1           0       -4.828210    2.567813   -0.011871
     31          1           0       -5.604929    1.251481    0.886266
     32          1           0       -4.630465   -1.216483   -0.002895
     33          1           0       -3.701102   -3.212282    0.057998
     34          1           0       -2.118581   -3.376567    0.877759
     35          1           0       -2.168079   -3.386440   -0.852156
     36          1           0        2.405164   -2.464870    0.002960
 ---------------------------------------------------------------------

 SCF Done:  E(UB3LYP) =  -846.474457480     A.U. after   17 cycles

 The electronic state is 1-A.
 Alpha  occ. eigenvalues --  -19.00685 -19.00684 -10.16571 -10.16570 -10.15454
 Alpha  occ. eigenvalues --  -10.15454 -10.15151 -10.15151 -10.14751 -10.14751
 Alpha  occ. eigenvalues --  -10.13730 -10.13730 -10.13439 -10.13439 -10.13080
 Alpha  occ. eigenvalues --  -10.13079 -10.13007 -10.13007 -10.12466 -10.12465
 Alpha  occ. eigenvalues --   -0.93210  -0.92871  -0.82455  -0.82147  -0.75901
 Alpha  occ. eigenvalues --   -0.75127  -0.74659  -0.71751  -0.67609  -0.66231
 Alpha  occ. eigenvalues --   -0.65875  -0.65426  -0.60763  -0.58625  -0.55922
 Alpha  occ. eigenvalues --   -0.53086  -0.50260  -0.49787  -0.46484  -0.44399
 Alpha  occ. eigenvalues --   -0.42773  -0.42697  -0.40638  -0.40504  -0.40241
 Alpha  occ. eigenvalues --   -0.39120  -0.38876  -0.38781  -0.38213  -0.37567
 Alpha  occ. eigenvalues --   -0.37320  -0.37115  -0.36628  -0.35438  -0.35378
 Alpha  occ. eigenvalues --   -0.34080  -0.33653  -0.33130  -0.31858  -0.30733
 Alpha  occ. eigenvalues --   -0.30551  -0.30492  -0.29080  -0.28510  -0.21690
 Alpha  occ. eigenvalues --   -0.21294  -0.21135  -0.20200  -0.18787  -0.18098
 Alpha  occ. eigenvalues --   -0.09324
 Alpha virt. eigenvalues --   -0.01273  -0.00222   0.00364   0.00639   0.01090
 Alpha virt. eigenvalues --    0.01691   0.02334   0.02569   0.03337   0.03420
 Alpha virt. eigenvalues --    0.03667   0.03928   0.03939   0.05239   0.05301

  Beta  occ. eigenvalues --  -19.00685 -19.00684 -10.16571 -10.16570 -10.15454
  Beta  occ. eigenvalues --  -10.15454 -10.15151 -10.15151 -10.14751 -10.14751
  Beta  occ. eigenvalues --  -10.13730 -10.13730 -10.13439 -10.13439 -10.13080
  Beta  occ. eigenvalues --  -10.13079 -10.13007 -10.13007 -10.12466 -10.12465
  Beta  occ. eigenvalues --   -0.93210  -0.92871  -0.82455  -0.82147  -0.75901
  Beta  occ. eigenvalues --   -0.75127  -0.74659  -0.71751  -0.67609  -0.66231
  Beta  occ. eigenvalues --   -0.65875  -0.65426  -0.60763  -0.58625  -0.55922
  Beta  occ. eigenvalues --   -0.53086  -0.50260  -0.49787  -0.46484  -0.44399
  Beta  occ. eigenvalues --   -0.42773  -0.42697  -0.40638  -0.40504  -0.40241
  Beta  occ. eigenvalues --   -0.39120  -0.38876  -0.38781  -0.38213  -0.37567
  Beta  occ. eigenvalues --   -0.37320  -0.37115  -0.36628  -0.35438  -0.35378
  Beta  occ. eigenvalues --   -0.34080  -0.33653  -0.33130  -0.31858  -0.30733
  Beta  occ. eigenvalues --   -0.30551  -0.30492  -0.29080  -0.28510  -0.21690
  Beta  occ. eigenvalues --   -0.21294  -0.21135  -0.20200  -0.18787  -0.18098
  Beta  occ. eigenvalues --   -0.09324
  Beta virt. eigenvalues --   -0.01273  -0.00222   0.00364   0.00639   0.01090
  Beta virt. eigenvalues --    0.01691   0.02334   0.02569   0.03337   0.03420
  Beta virt. eigenvalues --    0.03667   0.03928   0.03939   0.05239   0.05301

 Mulliken charges and spin densities:
               1          2
     1  C   -0.396585  -0.000000
     2  C    0.445846  -0.000000
     3  C   -0.504859   0.000000
     4  C    0.379801  -0.000000
     5  C   -0.533600   0.000000
     6  C    0.206501   0.000000
     7  C   -0.857199   0.000000
     8  O   -0.614569   0.000000
     9  C    0.131851  -0.000000
    10  C   -0.332896  -0.000000
    11  C    0.445806  -0.000000
    12  C   -0.396671   0.000000
    13  C   -0.504931   0.000000
    14  C    0.379996  -0.000000
    15  C   -0.533662  -0.000000
    16  C    0.206744  -0.000000
    17  C   -0.856873   0.000000
    18  O   -0.614589  -0.000000
    19  C    0.131521  -0.000000
    20  C   -0.333197   0.000000
    21  H    0.148182  -0.000000
    22  H    0.147102  -0.000000
    23  H    0.146743  -0.000000
    24  H    0.093134   0.000000
    25  H    0.149127  -0.000000
    26  H    0.148953  -0.000000
    27  H    0.126481  -0.000000
    28  H    0.116064   0.000000
    29  H    0.148076  -0.000000
    30  H    0.146742   0.000000
    31  H    0.147206  -0.000000
    32  H    0.093134   0.000000
    33  H    0.126469  -0.000000
    34  H    0.148986   0.000000
    35  H    0.149096   0.000000
    36  H    0.116070   0.000000
 Sum of Mulliken charges =  -2.00000   0.00000

 Dipole moment (field-independent basis, Debye):
    X=              0.0002    Y=              0.0001    Z=              0.1438  Tot=              0.1438
 Quadrupole moment (field-independent basis, Debye-Ang):
   XX=           -150.8691   YY=           -181.2808   ZZ=           -131.8281
   XY=              2.0167   XZ=             -0.0040   YZ=              0.0093

 Normal termination of Gaussian 16 at Sun Jan 14 01:29:26 2024.
