 Gaussian 16, Revision A.03,
 Gaussian 16:  ES64L-G16RevA.03 25-Dec-2016

 ----------------------------------------------------------------
 #P UB3LYP/6-311++G(d,p) SCRF=(PCM,Solvent=n,n-DiMethylFormamide)
 ----------------------------------------------------------------

 ------------------
 Radical PCM in DMF
 ------------------
 Symbolic Z-matrix:
 Charge = -1 Multiplicity = 2

                         Standard orientation:
 ---------------------------------------------------------------------
 Center     Atomic      Atomic             Coordinates (Angstroms)
 Number     Number       Type             X           Y           Z
 ---------------------------------------------------------------------
      1          6           0       -0.058429    1.387258    0.075083
      2          6           0        1.386422    1.619465    0.055445
      3          6           0        2.310152    0.623488   -0.002601
      4          6           0        1.925919   -0.777474   -0.052109
      5          6           0        0.508078   -1.020873   -0.047126
      6          6           0       -0.463659   -0.026398   -0.013845
      7          8           0       -0.844529    2.348740    0.201609
      8          8           0        2.778390   -1.711117   -0.100394
      9          6           0       -1.893742   -0.408649   -0.082132
     10          6           0       -2.273592   -1.835012    0.344359
     11          8           0       -2.784826    0.331747   -0.472155
     12          1           0        1.684398    2.663177    0.106130
     13          1           0        3.375569    0.839130   -0.008973
     14          1           0        0.225427   -2.066529   -0.102341
     15          1           0       -1.794118   -2.128293    1.281506
     16          1           0       -1.972195   -2.558781   -0.420061
     17          1           0       -3.358264   -1.874501    0.448816
 ---------------------------------------------------------------------

 SCF Done:  E(UB3LYP) =  -534.415512562     A.U. after   19 cycles

 The electronic state is 2-A.
 Alpha  occ. eigenvalues --  -19.10697 -19.08561 -19.08531 -10.25926 -10.23506
 Alpha  occ. eigenvalues --  -10.22630 -10.17909 -10.17662 -10.17336 -10.17170
 Alpha  occ. eigenvalues --  -10.16491  -1.04069  -1.01140  -1.00482  -0.83292
 Alpha  occ. eigenvalues --   -0.77184  -0.72306  -0.69213  -0.62776  -0.58586
 Alpha  occ. eigenvalues --   -0.52703  -0.48566  -0.47794  -0.46085  -0.44339
 Alpha  occ. eigenvalues --   -0.43740  -0.42227  -0.41217  -0.41005  -0.38954
 Alpha  occ. eigenvalues --   -0.38379  -0.38302  -0.37045  -0.35654  -0.29008
 Alpha  occ. eigenvalues --   -0.27112  -0.26820  -0.24990  -0.23039  -0.17226
 Alpha virt. eigenvalues --   -0.05485  -0.00083   0.00733   0.01041   0.01928
 Alpha virt. eigenvalues --    0.02897   0.03302   0.04032   0.04604   0.05495
 Alpha virt. eigenvalues --    0.06457   0.06760   0.06975   0.07839   0.08637

  Beta  occ. eigenvalues --  -19.10615 -19.07936 -19.07796 -10.25921 -10.23434
  Beta  occ. eigenvalues --  -10.22514 -10.17797 -10.17424 -10.17306 -10.17058
  Beta  occ. eigenvalues --  -10.16493  -1.03902  -1.00131  -0.99137  -0.82679
  Beta  occ. eigenvalues --   -0.76952  -0.72152  -0.68192  -0.62394  -0.58227
  Beta  occ. eigenvalues --   -0.52400  -0.48358  -0.47463  -0.45861  -0.44048
  Beta  occ. eigenvalues --   -0.43489  -0.42076  -0.40554  -0.39480  -0.38731
  Beta  occ. eigenvalues --   -0.38057  -0.36869  -0.35728  -0.35004  -0.26698
  Beta  occ. eigenvalues --   -0.26056  -0.25705  -0.24293  -0.22623
  Beta virt. eigenvalues --   -0.10162  -0.04232  -0.00058   0.01043   0.01969
  Beta virt. eigenvalues --    0.02132   0.03212   0.03376   0.04061   0.05328
  Beta virt. eigenvalues --    0.05968   0.06520   0.06865   0.07049   0.07996

 Mulliken charges and spin densities:
               1          2
     1  C   -0.788639   0.021462
     2  C    0.102036   0.091904
     3  C    0.107294   0.016429
     4  C   -0.404903   0.123705
     5  C   -0.825285   0.152399
     6  C    1.456363   0.083941
     7  O   -0.443614   0.214435
     8  O   -0.486976   0.268721
     9  C    0.128457   0.017700
    10  C   -0.583742   0.001396
    11  O   -0.356541   0.029765
    12  H    0.193587  -0.007326
    13  H    0.198317  -0.002737
    14  H    0.181262  -0.011810
    15  H    0.161096  -0.000368
    16  H    0.178753   0.000644
    17  H    0.182534  -0.000261
 Sum of Mulliken charges =  -1.00000   1.00000

 Dipole moment (field-independent basis, Debye):
    X=             -0.3639    Y=             -2.9782    Z=              0.9536  Tot=              3.1483
 Quadrupole moment (field-independent basis, Debye-Ang):
   XX=            -98.5574   YY=            -84.5928   ZZ=            -67.2547
   XY=             25.3071   XZ=             -2.2697   YZ=             -1.0596

 Normal termination of Gaussian 16 at Sun Jan 21 07:22:52 2024.
