 Gaussian 16, Revision A.03,
 Gaussian 16:  ES64L-G16RevA.03 25-Dec-2016

 --------------------------------------
 #P UB3LYP/6-311++G(d,p) nosym opt freq
 --------------------------------------

 -------
 Radical
 -------
 Symbolic Z-matrix:
 Charge = -1 Multiplicity = 2

 SCF Done:  E(UB3LYP) =  -534.331974123     A.U. after   21 cycles
 Optimization completed.
    -- Stationary point found.
 Normal termination of Gaussian 16 at Sat Jan  6 05:38:52 2024.

 ----------------------------------------------------------------------
 #P Geom=AllCheck Guess=TCheck SCRF=Check GenChk UB3LYP/6-311++G(d,p) F
 req
 ----------------------------------------------------------------------

 Structure from the checkpoint file:  "056-rad.chk"
 -------
 Radical
 -------
 Charge = -1 Multiplicity = 2

                          Input orientation:
 ---------------------------------------------------------------------
 Center     Atomic      Atomic             Coordinates (Angstroms)
 Number     Number       Type             X           Y           Z
 ---------------------------------------------------------------------
      1          6           0       -0.466912    1.126648   -0.405873
      2          6           0       -1.369653    0.074505   -0.874863
      3          6           0       -1.194166   -1.246370   -0.604471
      4          6           0       -0.074163   -1.725018    0.188795
      5          6           0        0.814675   -0.700536    0.668322
      6          6           0        0.651497    0.660327    0.432130
      7          8           0       -0.652689    2.310961   -0.754153
      8          8           0        0.100426   -2.952553    0.440594
      9          6           0        1.601976    1.620192    1.041362
     10          6           0        2.989208    1.095491    1.442572
     11          8           0        1.345936    2.795291    1.260269
     12          1           0       -2.202701    0.420665   -1.480584
     13          1           0       -1.885686   -1.997426   -0.977795
     14          1           0        1.638848   -1.060108    1.274773
     15          1           0        3.441004    0.480177    0.660637
     16          1           0        2.922128    0.481567    2.346794
     17          1           0        3.622935    1.956757    1.656100
 ---------------------------------------------------------------------

 SCF Done:  E(UB3LYP) =  -534.331974123     A.U. after    1 cycles

 Alpha  occ. eigenvalues --  -18.97336 -18.94535 -18.94343 -10.12822 -10.09661
 Alpha  occ. eigenvalues --  -10.08945 -10.05573 -10.04572 -10.04357 -10.04304
 Alpha  occ. eigenvalues --  -10.04114  -0.90631  -0.86916  -0.86435  -0.69958
 Alpha  occ. eigenvalues --   -0.64462  -0.60451  -0.55727  -0.49648  -0.45559
 Alpha  occ. eigenvalues --   -0.39633  -0.35336  -0.34477  -0.33074  -0.32370
 Alpha  occ. eigenvalues --   -0.31124  -0.29174  -0.27662  -0.27069  -0.26924
 Alpha  occ. eigenvalues --   -0.24815  -0.24556  -0.23696  -0.22601  -0.15181
 Alpha  occ. eigenvalues --   -0.13888  -0.13212  -0.10829  -0.09197  -0.03398
 Alpha virt. eigenvalues --    0.07575   0.08869   0.10202   0.11804   0.12475
 Alpha virt. eigenvalues --    0.12624   0.13905   0.14509   0.15315   0.16962
 Alpha virt. eigenvalues --    0.17410   0.17963   0.18171   0.18889   0.19496

  Beta  occ. eigenvalues --  -18.97229 -18.93734 -18.93713 -10.12817 -10.09632
  Beta  occ. eigenvalues --  -10.08862 -10.05575 -10.04444 -10.04278 -10.04116
  Beta  occ. eigenvalues --  -10.03996  -0.90433  -0.85850  -0.85051  -0.69355
  Beta  occ. eigenvalues --   -0.64260  -0.60279  -0.54727  -0.49278  -0.45224
  Beta  occ. eigenvalues --   -0.39356  -0.35126  -0.34217  -0.32847  -0.32208
  Beta  occ. eigenvalues --   -0.30939  -0.28979  -0.27037  -0.26321  -0.25982
  Beta  occ. eigenvalues --   -0.24386  -0.23681  -0.22435  -0.21111  -0.13111
  Beta  occ. eigenvalues --   -0.12795  -0.11693  -0.10095  -0.08696
  Beta virt. eigenvalues --    0.03677   0.08779   0.08939   0.10214   0.11837
  Beta virt. eigenvalues --    0.12562   0.12643   0.14509   0.15091   0.15360
  Beta virt. eigenvalues --    0.17421   0.17482   0.18142   0.18595   0.19307

 Mulliken charges and spin densities:
               1          2
     1  C   -0.938234  -0.011388
     2  C    0.210650   0.097654
     3  C    0.202164   0.016505
     4  C   -0.634151   0.096667
     5  C   -0.793392   0.159130
     6  C    1.609897   0.093888
     7  O   -0.341805   0.230090
     8  O   -0.405390   0.284564
     9  C    0.020981   0.015527
    10  C   -0.547738   0.002037
    11  O   -0.274139   0.038606
    12  H    0.153785  -0.007946
    13  H    0.154051  -0.002959
    14  H    0.140589  -0.012648
    15  H    0.132725  -0.000562
    16  H    0.145283   0.001221
    17  H    0.164723  -0.000386
 Sum of Mulliken charges =  -1.00000   1.00000

 Dipole moment (field-independent basis, Debye):
    X=              0.0560    Y=             -2.0451    Z=             -0.9196  Tot=              2.2431
 Quadrupole moment (field-independent basis, Debye-Ang):
   XX=            -67.4763   YY=           -114.2495   ZZ=            -70.2599
   XY=             -0.4138   XZ=             -1.9133   YZ=              1.3988

  Exact polarizability: 123.092  11.781 173.157  35.483  -0.485  89.866
 Approx polarizability: 166.436  -0.782 309.007  45.020 -14.357 133.393

                      1                      2                      3
                      A                      A                      A
 Frequencies --     38.7431                86.5033               140.8040
 Red. masses --      5.1199                 5.5621                 1.0904
 Frc consts  --      0.0045                 0.0245                 0.0127
 IR Inten    --      4.9838                 6.2524                 0.2364

                      4                      5                      6
                      A                      A                      A
 Frequencies --    147.7535               187.9032               304.6911
 Red. masses --      5.5315                 5.7796                 5.7944
 Frc consts  --      0.0711                 0.1202                 0.3169
 IR Inten    --      6.0850                 3.3691                 1.7106

                      7                      8                      9
                      A                      A                      A
 Frequencies --    318.4681               376.7872               418.0636
 Red. masses --      6.5016                 4.5696                 5.9681
 Frc consts  --      0.3885                 0.3822                 0.6146
 IR Inten    --      1.9034                 5.2311                 2.8041

                     10                     11                     12
                      A                      A                      A
 Frequencies --    436.6750               477.7483               512.8934
 Red. masses --      5.5371                10.3838                 3.4486
 Frc consts  --      0.6221                 1.3964                 0.5345
 IR Inten    --      3.4477                 1.3393                 3.4810

                     13                     14                     15
                      A                      A                      A
 Frequencies --    539.5990               621.1764               638.3916
 Red. masses --      2.6776                 3.7212                 2.9346
 Frc consts  --      0.4594                 0.8460                 0.7047
 IR Inten    --      8.6528                 8.4818                 5.9483

                     16                     17                     18
                      A                      A                      A
 Frequencies --    685.4543               747.4022               805.2555
 Red. masses --      6.0125                 2.9692                 4.9146
 Frc consts  --      1.6644                 0.9772                 1.8776
 IR Inten    --      3.4138                 0.8154                23.0395

                     19                     20                     21
                      A                      A                      A
 Frequencies --    828.6837               875.9221               896.7186
 Red. masses --      1.9496                 1.7068                 5.1425
 Frc consts  --      0.7888                 0.7715                 2.4363
 IR Inten    --     13.4205                39.1333                 4.0527

                     22                     23                     24
                      A                      A                      A
 Frequencies --    929.6678               967.7275              1022.9920
 Red. masses --      2.7890                 1.2683                 1.8580
 Frc consts  --      1.4202                 0.6998                 1.1456
 IR Inten    --     81.3097                 0.2482                 7.0313

                     25                     26                     27
                      A                      A                      A
 Frequencies --   1037.2317              1104.7711              1182.8545
 Red. masses --      2.0206                 1.7199                 1.9809
 Frc consts  --      1.2808                 1.2368                 1.6330
 IR Inten    --     18.0679                 0.2870               153.6829

                     28                     29                     30
                      A                      A                      A
 Frequencies --   1240.9409              1267.3001              1347.5467
 Red. masses --      2.0249                 2.3430                 2.0116
 Frc consts  --      1.8372                 2.2171                 2.1522
 IR Inten    --    123.4642                 3.9054                15.8246

                     31                     32                     33
                      A                      A                      A
 Frequencies --   1370.5453              1415.6852              1467.6502
 Red. masses --      1.4614                 4.2162                 5.2158
 Frc consts  --      1.6173                 4.9786                 6.6194
 IR Inten    --     42.0914                30.0113               263.7502

                     34                     35                     36
                      A                      A                      A
 Frequencies --   1473.5490              1479.0983              1516.7579
 Red. masses --      1.0759                 1.0687                 5.6232
 Frc consts  --      1.3765                 1.3776                 7.6219
 IR Inten    --      8.3906                 9.2235               131.2722

                     37                     38                     39
                      A                      A                      A
 Frequencies --   1551.7957              1634.3542              1709.4369
 Red. masses --      9.5943                 6.4105                10.5787
 Frc consts  --     13.6123                10.0887                18.2134
 IR Inten    --    185.5804                50.6856               400.5650

                     40                     41                     42
                      A                      A                      A
 Frequencies --   3023.5235              3084.4847              3120.0374
 Red. masses --      1.0367                 1.0975                 1.1031
 Frc consts  --      5.5836                 6.1522                 6.3267
 IR Inten    --     17.2001                19.9789                25.3230

                     43                     44                     45
                      A                      A                      A
 Frequencies --   3132.0871              3155.3627              3168.9348
 Red. masses --      1.0852                 1.0951                 1.0877
 Frc consts  --      6.2725                 6.4241                 6.4354
 IR Inten    --     18.2388                48.1280                 9.7044

 - Thermochemistry -
 -------------------
 Temperature   298.150 Kelvin.  Pressure   1.00000 Atm.
 Atom     1 has atomic number  6 and mass  12.00000

 Molecular mass:   150.03169 amu.
 Principal axes and moments of inertia in atomic units:
                           1         2         3
     Eigenvalues --  1039.578481943.397452925.39701
           X            0.44512   0.71581  -0.53805
           Y            0.86689  -0.49504   0.05858
           Z            0.22442   0.49250   0.84088
 This molecule is an asymmetric top.
 Rotational symmetry number  1.
 Warning -- assumption of classical behavior for rotation
           may cause significant error
 Rotational temperatures (Kelvin)      0.08332     0.04457     0.02961
 Rotational constants (GHZ):           1.73603     0.92865     0.61692
 Zero-point vibrational energy     313959.8 (Joules/Mol)
                                   75.03818 (Kcal/Mol)
 Warning -- explicit consideration of  13 degrees of freedom as
           vibrations may cause significant error
 Vibrational temperatures:     55.74   124.46   202.59   212.58   270.35
          (Kelvin)            438.38   458.20   542.11   601.50   628.28
                              687.37   737.94   776.36   893.73   918.50
                              986.22  1075.35  1158.58  1192.29  1260.26
                             1290.18  1337.58  1392.34  1471.86  1492.35
                             1589.52  1701.86  1785.44  1823.36  1938.82
                             1971.91  2036.86  2111.62  2120.11  2128.09
                             2182.28  2232.69  2351.47  2459.50  4350.18
                             4437.89  4489.04  4506.37  4539.86  4559.39

 Zero-point correction=                           0.119581 (Hartree/Particle)
 Thermal correction to Energy=                    0.129327
 Thermal correction to Enthalpy=                  0.130271
 Thermal correction to Gibbs Free Energy=         0.083026
 Sum of electronic and zero-point Energies=           -534.212393
 Sum of electronic and thermal Energies=              -534.202647
 Sum of electronic and thermal Enthalpies=            -534.201703
 Sum of electronic and thermal Free Energies=         -534.248948

                     E (Thermal)             CV                S
                      KCal/Mol        Cal/Mol-Kelvin    Cal/Mol-Kelvin
 Total                   81.154             35.934             99.435
 Electronic               0.000              0.000              1.377
 Translational            0.889              2.981             40.927
 Rotational               0.889              2.981             30.159
 Vibrational             79.376             29.972             26.971
 Vibration     1          0.594              1.981              5.322
 Vibration     2          0.601              1.959              3.738
 Vibration     3          0.615              1.912              2.793
 Vibration     4          0.617              1.905              2.701
 Vibration     5          0.633              1.856              2.248
 Vibration     6          0.696              1.665              1.391
 Vibration     7          0.705              1.638              1.318
 Vibration     8          0.747              1.520              1.052
 Vibration     9          0.781              1.431              0.899
 Vibration    10          0.797              1.390              0.837
 Vibration    11          0.834              1.299              0.716
 Vibration    12          0.868              1.221              0.627
 Vibration    13          0.895              1.162              0.566

 Optimization completed.
    -- Stationary point found.
 Normal termination of Gaussian 16 at Sat Jan  6 05:48:52 2024.
