 Q-Chem 5.4, Q-Chem, Inc., Pleasanton, CA (2021)
 Q-Chem 5.4.0 for Intel X86 EM64T Linux

User input:
--------------------------------------------------------------
$molecule
-2 1
O                 -0.0512010000     -1.1933200000      1.2841520000
C                 -0.4564080000     -0.3763240000      0.3812300000
C                 -1.9316230000     -0.2347830000      0.2173940000
C                 -2.7489750000     -1.0316910000      1.0635840000
C                 -4.1361220000     -0.9865160000      1.0064890000
C                 -4.7901020000     -0.1517050000      0.0900450000
C                 -4.0032790000      0.6321670000     -0.7641000000
C                 -2.6111630000      0.5954060000     -0.7129310000
C                  0.4564360000      0.3763170000     -0.4818120000
O                  0.0512640000      1.1935110000     -1.3845760000
C                  1.9316260000      0.2348040000     -0.3179100000
C                  2.7490120000      1.0317200000     -1.1640610000
C                  4.1361550000      0.9865040000     -1.1069390000
C                  4.7900890000      0.1516520000     -0.1904980000
C                  4.0032270000     -0.6322180000      0.6636180000
C                  2.6111160000     -0.5954130000      0.6124300000
H                 -2.2353150000     -1.6825550000      1.7616280000
H                 -4.7229730000     -1.6088700000      1.6810270000
H                 -5.8768810000     -0.1077050000      0.0499650000
H                 -4.4877840000      1.2874820000     -1.4864050000
H                 -2.0081830000      1.1948530000     -1.3803050000
H                  2.2353760000      1.6826010000     -1.8621080000
H                  4.7230390000      1.6088580000     -1.7814500000
H                  5.8768640000      0.1076180000     -0.1503960000
H                  4.4877050000     -1.2875530000      1.3859240000
H                  2.0081020000     -1.1948400000      1.2797900000
$end

$rem
BASIS  =  6-311++G(d,p)
GUI  =  2
JOB_TYPE  =  SP
METHOD  =  B3LYP
SCF_CONVERGENCE  = 8
SOLVENT_METHOD = sm12
$end

$smx
solvent dimethylformamide
charges CM5
$end

--------------------------------------------------------------

             Standard Nuclear Orientation (Angstroms)
    I     Atom           X                Y                Z
 ----------------------------------------------------------------
    1      O      -0.0512010000    -1.1933200000     1.2841520000
    2      C      -0.4564080000    -0.3763240000     0.3812300000
    3      C      -1.9316230000    -0.2347830000     0.2173940000
    4      C      -2.7489750000    -1.0316910000     1.0635840000
    5      C      -4.1361220000    -0.9865160000     1.0064890000
    6      C      -4.7901020000    -0.1517050000     0.0900450000
    7      C      -4.0032790000     0.6321670000    -0.7641000000
    8      C      -2.6111630000     0.5954060000    -0.7129310000
    9      C       0.4564360000     0.3763170000    -0.4818120000
   10      O       0.0512640000     1.1935110000    -1.3845760000
   11      C       1.9316260000     0.2348040000    -0.3179100000
   12      C       2.7490120000     1.0317200000    -1.1640610000
   13      C       4.1361550000     0.9865040000    -1.1069390000
   14      C       4.7900890000     0.1516520000    -0.1904980000
   15      C       4.0032270000    -0.6322180000     0.6636180000
   16      C       2.6111160000    -0.5954130000     0.6124300000
   17      H      -2.2353150000    -1.6825550000     1.7616280000
   18      H      -4.7229730000    -1.6088700000     1.6810270000
   19      H      -5.8768810000    -0.1077050000     0.0499650000
   20      H      -4.4877840000     1.2874820000    -1.4864050000
   21      H      -2.0081830000     1.1948530000    -1.3803050000
   22      H       2.2353760000     1.6826010000    -1.8621080000
   23      H       4.7230390000     1.6088580000    -1.7814500000
   24      H       5.8768640000     0.1076180000    -0.1503960000
   25      H       4.4877050000    -1.2875530000     1.3859240000
   26      H       2.0081020000    -1.1948400000     1.2797900000
 ----------------------------------------------------------------

   17    -690.0750980106      4.78e-09  Convergence criterion met
 Total energy in the final basis set =     -690.3612420073

                    Orbital Energies (a.u.)
 --------------------------------------------------------------

 Alpha MOs
 -- Occupied --
-19.0174 -19.0174 -10.1773 -10.1773 -10.1753 -10.1753 -10.1740 -10.1737
-10.1715 -10.1715 -10.1611 -10.1611 -10.1605 -10.1605 -10.1576 -10.1576
 -0.9465  -0.9291  -0.8464  -0.8442  -0.7437  -0.7406  -0.7394  -0.7393
 -0.6410  -0.6113  -0.5997  -0.5933  -0.5691  -0.5329  -0.5082  -0.4740
 -0.4616  -0.4421  -0.4377  -0.4356  -0.4166  -0.4164  -0.3991  -0.3870
 -0.3807  -0.3674  -0.3614  -0.3549  -0.3346  -0.3312  -0.3263  -0.3232
 -0.2883  -0.2560  -0.2557  -0.2400  -0.2349  -0.2177  -0.1758  -0.1049

          Ground-State Mulliken Net Atomic Charges

     Atom                 Charge (a.u.)
  ----------------------------------------
      1 O                    -0.375010
      2 C                    -2.926390
      3 C                    -0.809240
      4 C                     0.210481
      5 C                     1.085531
      6 C                     2.150210
      7 C                     0.509207
      8 C                    -2.191780
      9 C                    -2.926708
     10 O                    -0.375036
     11 C                    -0.808969
     12 C                     0.209704
     13 C                     1.085744
     14 C                     2.149969
     15 C                     0.509226
     16 C                    -2.191755
     17 H                     0.126299
     18 H                     0.343786
     19 H                     0.459332
     20 H                     0.317051
     21 H                     0.100956
     22 H                     0.126263
     23 H                     0.343803
     24 H                     0.459322
     25 H                     0.317046
     26 H                     0.100959
  ----------------------------------------
  Sum of atomic charges =    -2.000000

                    Cartesian Multipole Moments
 -----------------------------------------------------------------
    Charge (ESU x 10^10)
                -9.6064
    Dipole Moment (Debye)
         X      -0.0008      Y      -0.0005      Z       0.4827
       Tot       0.4827
    Quadrupole Moments (Debye-Ang)
        XX    -160.7551     XY      -3.5244     YY    -117.4099
        XZ       3.6053     YZ       7.3296     ZZ    -119.1205

 Total job time:  485.78s(wall), 3784.40s(cpu)
        *  Thank you very much for using Q-Chem.  Have a nice day.  *
