 Q-Chem 5.4, Q-Chem, Inc., Pleasanton, CA (2021)
 Q-Chem 5.4.0 for Intel X86 EM64T Linux

User input:
--------------------------------------------------------------
$molecule
0 1
C                  5.9185980000     -5.2161530000      1.0702950000
C                  6.7932460000     -5.0767610000     -0.0024560000
C                  6.5647820000     -4.0977170000     -0.9716780000
C                  4.8089460000     -4.3748170000      1.1785850000
C                  4.5795520000     -3.3916600000      0.2053270000
C                  5.4613790000     -3.2567220000     -0.8694140000
C                  3.8861660000     -4.5421550000      2.3351060000
C                  2.7072990000     -3.6129120000      2.4069370000
C                  2.4862860000     -2.6654140000      1.4690950000
C                  3.4052140000     -2.4805880000      0.2944470000
O                  4.0648210000     -5.3859690000      3.1878040000
O                  3.1872180000     -1.6238960000     -0.5359680000
H                  6.0772580000     -5.9686560000      1.8325990000
H                  7.6537660000     -5.7305880000     -0.0846730000
H                  5.2657660000     -2.4911650000     -1.6098150000
Cl                 1.6657180000     -3.8422050000      3.7623040000
H                  7.2479180000     -3.9913990000     -1.8064030000
Cl                 1.1402190000     -1.5890260000      1.5322060000
$end
$rem
MAX_SCF_CYCLES=200
BASIS  =  6-311++G(d,p)
GUI  =  2
JOB_TYPE  =  SP
METHOD  =  B3LYP
SOLVENT_METHOD = COSMO
$end
$solvent
dielectric 37.219
opticaldielectric 1.43
$end

--------------------------------------------------------------

             Standard Nuclear Orientation (Angstroms)
    I     Atom           X                Y                Z
 ----------------------------------------------------------------
    1      C       2.5283048380    -1.3974039655     0.0002103815
    2      C       3.7309686963    -0.6982376012     0.0002299907
    3      C       3.7309835831     0.6982273015     0.0001127827
    4      C       1.3174606342    -0.7011591402     0.0001229253
    5      C       1.3174826186     0.7011426894     0.0000403578
    6      C       2.5283215246     1.3973929908     0.0000221353
    7      C       0.0424442105    -1.4701837565    -0.0000069198
    8      C      -1.2331508153    -0.6756795281     0.0000961521
    9      C      -1.2331362314     0.6756704720     0.0001111381
   10      C       0.0424665694     1.4701669831    -0.0000670947
   11      O       0.0189459759    -2.6828176409    -0.0006777798
   12      O       0.0189705628     2.6828005145    -0.0006731642
   13      H       2.5058870969    -2.4800112778     0.0002445461
   14      H       4.6695051244    -1.2403569743     0.0003294265
   15      H       2.5058430668     2.4799964808    -0.0000739992
   16      Cl     -2.6849306270    -1.6067119345     0.0000754917
   17      H       4.6695253552     1.2403375108     0.0001265164
   18      Cl     -2.6848909448     1.6067444404     0.0002156829
 ----------------------------------------------------------------

    9   -1454.4942840485      3.46e-06  Convergence criterion met
 Total energy in the final basis set =    -1454.4942840485
    5   -1454.5074682608      2.72e-06  Convergence criterion met
 Total energy in the final basis set =    -1454.5074682608

                    Orbital Energies (a.u.)
 --------------------------------------------------------------

 Alpha MOs
 -- Occupied --
********-101.5847 -19.1508 -19.1508 -10.3054 -10.3054 -10.2834 -10.2826
-10.2181 -10.2176 -10.2035 -10.2035 -10.2016 -10.2011  -9.4992  -9.4992
 -7.2640  -7.2640  -7.2544  -7.2544  -7.2530  -7.2530  -1.0895  -1.0876
 -0.9375  -0.8961  -0.8841  -0.8233  -0.7860  -0.7673  -0.7054  -0.6562
 -0.6415  -0.6026  -0.5702  -0.5376  -0.5162  -0.4963  -0.4790  -0.4775
 -0.4685  -0.4589  -0.4563  -0.4528  -0.4395  -0.4090  -0.3913  -0.3807
 -0.3765  -0.3631  -0.3546  -0.3326  -0.3078  -0.2993  -0.2971  -0.2846
 -0.2791

          Ground-State Mulliken Net Atomic Charges

     Atom                 Charge (a.u.)
  ----------------------------------------
      1 C                     0.066980
      2 C                    -0.421469
      3 C                    -0.421719
      4 C                     0.543475
      5 C                     0.543715
      6 C                     0.066707
      7 C                    -1.628082
      8 C                     0.760668
      9 C                     0.761413
     10 C                    -1.629448
     11 O                    -0.232860
     12 O                    -0.232751
     13 H                     0.212395
     14 H                     0.234141
     15 H                     0.212401
     16 Cl                    0.465126
     17 H                     0.234165
     18 Cl                    0.465145
  ----------------------------------------
  Sum of atomic charges =     0.000000

                    Cartesian Multipole Moments
 -----------------------------------------------------------------
    Charge (ESU x 10^10)
                 0.0000
    Dipole Moment (Debye)
         X       4.8314      Y      -0.0011      Z       0.0026
       Tot       4.8314
    Quadrupole Moments (Debye-Ang)
        XX     -72.9989     XY      -0.0002     YY    -108.9426
        XZ       0.0009     YZ      -0.0003     ZZ     -93.3187

 Total job time:  36.10s(wall), 267.14s(cpu)
        *  Thank you very much for using Q-Chem.  Have a nice day.  *
