 Q-Chem 5.4, Q-Chem, Inc., Pleasanton, CA (2021)
 Q-Chem 5.4.0 for Intel X86 EM64T Linux

User input:
--------------------------------------------------------------
$molecule
-1 2
C                 -4.3943220000     -0.3390470000      0.2155570000
C                 -2.9145220000     -0.6248850000      0.2442970000
C                 -2.4390300000     -1.9379030000      0.4073310000
C                 -1.0890080000     -2.2157380000      0.4654000000
C                 -0.1402930000     -1.1824390000      0.3439860000
C                  1.2796140000     -1.5461000000      0.3994430000
O                  1.6535350000     -2.7329460000      0.5724950000
C                  2.2373160000     -0.4553740000      0.2378070000
C                  3.6218350000     -0.7311190000      0.2795080000
C                  4.5556210000      0.2731380000      0.1223810000
C                  4.1279080000      1.6038160000     -0.0854120000
C                  2.7793530000      1.8953980000     -0.1303810000
C                  1.8052910000      0.8837500000      0.0297620000
C                  0.3898040000      1.2441180000     -0.0227450000
O                  0.0556970000      2.4537070000     -0.2322850000
C                 -0.5781100000      0.1678970000      0.1618160000
C                 -1.9925520000      0.4277790000      0.1321870000
N                 -2.4530830000      1.7327160000      0.0394460000
H                 -4.7205490000      0.0966590000     -0.7406500000
H                 -4.6871370000      0.3700110000      1.0008970000
H                 -4.9682280000     -1.2575540000      0.3615100000
H                 -3.1614460000     -2.7458510000      0.4975680000
H                 -0.7191820000     -3.2242830000      0.6002990000
H                  3.9180470000     -1.7616750000      0.4384560000
H                  5.6165590000      0.0431160000      0.1575930000
H                  4.8606690000      2.3960320000     -0.2088500000
H                  2.4249470000      2.9071350000     -0.2881470000
H                 -3.3575690000      1.8646690000     -0.3846740000
H                 -1.7111640000      2.3949740000     -0.2031650000
$end
$rem
MAX_SCF_CYCLES=200
BASIS  =  6-311++G(d,p)
GUI  =  2
JOB_TYPE  =  SP
METHOD  =  B3LYP
SOLVENT_METHOD = COSMO
$end
$solvent
dielectric 37.219
opticaldielectric 1.43
$end

--------------------------------------------------------------

             Standard Nuclear Orientation (Angstroms)
    I     Atom           X                Y                Z
 ----------------------------------------------------------------
    1      C       4.6672126126    -0.2623792770    -0.0044718896
    2      C       3.2333959245     0.2028085419    -0.0148347022
    3      C       2.9225991070     1.5737357274    -0.0403882869
    4      C       1.6171795869     2.0194017387    -0.0207572033
    5      C       0.5488431586     1.1027012366     0.0079795225
    6      C      -0.8156555975     1.6408276247     0.0128606693
    7      O      -1.0406423360     2.8768467416     0.0151071800
    8      C      -1.9005807512     0.6631099900     0.0100037329
    9      C      -3.2407987375     1.1086081664     0.0137804445
   10      C      -4.2914902214     0.2135615043     0.0030013720
   11      C      -4.0310819370    -1.1752317553    -0.0131568599
   12      C      -2.7285280751    -1.6323687277    -0.0178565286
   13      C      -1.6369142723    -0.7345416634    -0.0052032939
   14      C      -0.2763507686    -1.2684766742    -0.0076290600
   15      O      -0.0943038611    -2.5271545449    -0.0426860048
   16      C       0.8173936432    -0.3030062981     0.0199758245
   17      C       2.1894479793    -0.7348572090     0.0258403189
   18      N       2.4876862860    -2.0860676821     0.1198320143
   19      H       4.9206180795    -0.8655838953    -0.8890765802
   20      H       4.8871960456    -0.8834110497     0.8737021328
   21      H       5.3501717369     0.5906957676     0.0079895271
   22      H       3.7386048839     2.2922119732    -0.0674810969
   23      H       1.3740735145     3.0743569303    -0.0308075108
   24      H      -3.4077382358     2.1796228679     0.0242874871
   25      H      -5.3161656098     0.5737946759     0.0064445929
   26      H      -4.8560839186    -1.8816944441    -0.0211576961
   27      H      -2.5015401802    -2.6918192662    -0.0299616079
   28      H       3.3615916198    -2.3859727944    -0.2823255221
   29      H       1.6670077293    -2.6806221154    -0.0246715874
 ----------------------------------------------------------------

   11    -783.7260278957      4.55e-06  Convergence criterion met
 Total energy in the final basis set =     -783.7260278957
    4    -783.8098608745      8.22e-06  Convergence criterion met
 Total energy in the final basis set =     -783.8098608745

                    Orbital Energies (a.u.)
 --------------------------------------------------------------

 Alpha MOs
 -- Occupied --
-19.0805 -19.0772 -14.3026 -10.2288 -10.2237 -10.2122 -10.1729 -10.1720
-10.1716 -10.1711 -10.1710 -10.1707 -10.1695 -10.1687 -10.1687 -10.1670
-10.1616 -10.1562  -1.0069  -1.0035  -0.9124  -0.8577  -0.8365  -0.7893
 -0.7538  -0.7499  -0.7293  -0.6926  -0.6583  -0.6291  -0.6114  -0.5796
 -0.5579  -0.5432  -0.5174  -0.4972  -0.4756  -0.4710  -0.4496  -0.4414
 -0.4365  -0.4283  -0.4225  -0.4171  -0.4131  -0.4106  -0.3962  -0.3843
 -0.3776  -0.3676  -0.3653  -0.3505  -0.3434  -0.3403  -0.3343  -0.3091
 -0.2675  -0.2570  -0.2504  -0.2438  -0.2397  -0.2109  -0.1399

 Beta MOs
 -- Occupied --
-19.0755 -19.0721 -14.3024 -10.2268 -10.2218 -10.2121 -10.1728 -10.1712
-10.1711 -10.1706 -10.1699 -10.1699 -10.1688 -10.1687 -10.1686 -10.1667
-10.1617 -10.1558  -0.9982  -0.9943  -0.9114  -0.8553  -0.8351  -0.7860
 -0.7518  -0.7477  -0.7274  -0.6901  -0.6523  -0.6273  -0.6093  -0.5787
 -0.5556  -0.5414  -0.5157  -0.4961  -0.4733  -0.4686  -0.4488  -0.4401
 -0.4352  -0.4222  -0.4219  -0.4146  -0.4068  -0.4049  -0.3941  -0.3770
 -0.3670  -0.3658  -0.3592  -0.3494  -0.3420  -0.3339  -0.3290  -0.3032
 -0.2501  -0.2494  -0.2458  -0.2390  -0.2350  -0.2027

          Ground-State Mulliken Net Atomic Charges

     Atom                 Charge (a.u.)    Spin (a.u.)
  --------------------------------------------------------
      1 C                    -0.480591      -0.002667
      2 C                     0.604566       0.070864
      3 C                    -0.829060       0.017065
      4 C                    -0.168679       0.059630
      5 C                     0.483009       0.034905
      6 C                    -0.580436       0.111393
      7 O                    -0.497683       0.189809
      8 C                     0.034037       0.032879
      9 C                     0.087468       0.031613
     10 C                    -0.485133       0.037976
     11 C                    -0.546101       0.041616
     12 C                     0.143187       0.028401
     13 C                     0.095745       0.028327
     14 C                    -0.433066       0.119377
     15 O                    -0.488271       0.178638
     16 C                     0.115887      -0.000625
     17 C                     0.146172       0.019763
     18 N                    -0.440903       0.011773
     19 H                     0.180839       0.003396
     20 H                     0.179108       0.003518
     21 H                     0.178000       0.000111
     22 H                     0.164980      -0.002542
     23 H                     0.171432      -0.003692
     24 H                     0.174117      -0.001430
     25 H                     0.200966      -0.003099
     26 H                     0.200806      -0.003411
     27 H                     0.180132      -0.000776
     28 H                     0.276768      -0.000725
     29 H                     0.332704      -0.002088
  --------------------------------------------------------
  Sum of atomic charges =    -1.000000

                    Cartesian Multipole Moments
 -----------------------------------------------------------------
    Charge (ESU x 10^10)
                -4.8032
    Dipole Moment (Debye)
         X       3.8371      Y      -2.7713      Z      -0.9844
       Tot       4.8345
    Quadrupole Moments (Debye-Ang)
        XX     -98.5184     XY       4.2720     YY    -138.8044
        XZ      -3.2061     YZ       2.1989     ZZ    -113.5644

 Total job time:  97.53s(wall), 747.33s(cpu)
        *  Thank you very much for using Q-Chem.  Have a nice day.  *
