 Gaussian 16, Revision A.03,
 Gaussian 16:  ES64L-G16RevA.03 25-Dec-2016

 ---------------------------------------------------------
 #P UB3LYP/genecp SCRF=(PCM,Solvent=n,n-DiMethylFormamide)
 ---------------------------------------------------------

 -------
 Reduced
 -------
 Symbolic Z-matrix:
 Charge = -2 Multiplicity = 1

                         Standard orientation:
 ---------------------------------------------------------------------
 Center     Atomic      Atomic             Coordinates (Angstroms)
 Number     Number       Type             X           Y           Z
 ---------------------------------------------------------------------
      1          6           0       -0.298322   -2.088423   -0.001938
      2          6           0       -1.708769   -1.815060   -0.001782
      3          6           0       -2.309287   -0.558812   -0.000332
      4          6           0       -1.516782    0.657529    0.000568
      5          6           0       -0.109019    0.402292    0.000136
      6          6           0        0.471868   -0.881685   -0.001066
      7          8           0       -2.031599    1.844974    0.001211
      8          8           0        0.179738   -3.281594   -0.002560
      9         53           0        2.590132   -1.239932    0.000893
     10         53           0        1.048218    2.211998   -0.000616
     11          1           0       -2.316401   -2.714262   -0.002291
     12          6           0       -3.847341   -0.411571    0.000425
     13          6           0       -4.588477   -1.763244   -0.000624
     14          6           0       -4.293543    0.369659   -1.260118
     15          6           0       -4.292283    0.366887    1.263123
     16          1           0       -4.343621   -2.360897    0.882928
     17          1           0       -4.344454   -2.359110   -0.885621
     18          1           0       -5.672264   -1.583389    0.000105
     19          1           0       -4.048838   -0.201538   -2.163238
     20          1           0       -3.767051    1.325841   -1.289902
     21          1           0       -5.381083    0.543753   -1.247938
     22          1           0       -4.046584   -0.206364    2.164667
     23          1           0       -5.379851    0.540995    1.252522
     24          1           0       -3.765788    1.323006    1.294497
 ---------------------------------------------------------------------

 SCF Done:  E(UB3LYP) =  -1133.52177399     A.U. after   17 cycles

 The electronic state is 1-A.
 Alpha  occ. eigenvalues --  -19.02157 -19.01582 -10.18235 -10.18135 -10.17565
 Alpha  occ. eigenvalues --  -10.17466 -10.16615 -10.14190 -10.14102 -10.13327
 Alpha  occ. eigenvalues --  -10.13325 -10.12755  -6.81698  -6.81637  -4.84027
 Alpha  occ. eigenvalues --   -4.83970  -4.83062  -4.83004  -4.82981  -4.82913
 Alpha  occ. eigenvalues --   -1.88847  -1.88790  -1.88538  -1.88483  -1.88476
 Alpha  occ. eigenvalues --   -1.88412  -1.87643  -1.87641  -1.87579  -1.87576
 Alpha  occ. eigenvalues --   -0.94018  -0.93440  -0.80778  -0.78314  -0.71802
 Alpha  occ. eigenvalues --   -0.68929  -0.66843  -0.66194  -0.64702  -0.63991
 Alpha  occ. eigenvalues --   -0.56329  -0.53033  -0.49794  -0.45184  -0.44118
 Alpha  occ. eigenvalues --   -0.41839  -0.40630  -0.40263  -0.38407  -0.37612
 Alpha  occ. eigenvalues --   -0.36472  -0.35925  -0.35223  -0.34742  -0.32824
 Alpha  occ. eigenvalues --   -0.32035  -0.31777  -0.31053  -0.30423  -0.29823
 Alpha  occ. eigenvalues --   -0.27330  -0.25736  -0.24827  -0.22993  -0.22681
 Alpha  occ. eigenvalues --   -0.20475  -0.20018  -0.18981  -0.12483
 Alpha virt. eigenvalues --   -0.03170   0.00092   0.01367   0.01620   0.02072
 Alpha virt. eigenvalues --    0.02165   0.02390   0.04103   0.04436   0.04586
 Alpha virt. eigenvalues --    0.04731   0.06056   0.06629   0.06877   0.07515

  Beta  occ. eigenvalues --  -19.02157 -19.01582 -10.18235 -10.18135 -10.17565
  Beta  occ. eigenvalues --  -10.17466 -10.16615 -10.14190 -10.14102 -10.13327
  Beta  occ. eigenvalues --  -10.13325 -10.12755  -6.81698  -6.81637  -4.84027
  Beta  occ. eigenvalues --   -4.83970  -4.83062  -4.83004  -4.82981  -4.82913
  Beta  occ. eigenvalues --   -1.88847  -1.88790  -1.88538  -1.88483  -1.88476
  Beta  occ. eigenvalues --   -1.88412  -1.87643  -1.87641  -1.87579  -1.87576
  Beta  occ. eigenvalues --   -0.94018  -0.93440  -0.80778  -0.78314  -0.71802
  Beta  occ. eigenvalues --   -0.68929  -0.66843  -0.66194  -0.64702  -0.63991
  Beta  occ. eigenvalues --   -0.56329  -0.53033  -0.49794  -0.45184  -0.44118
  Beta  occ. eigenvalues --   -0.41839  -0.40630  -0.40263  -0.38407  -0.37612
  Beta  occ. eigenvalues --   -0.36472  -0.35925  -0.35223  -0.34742  -0.32824
  Beta  occ. eigenvalues --   -0.32035  -0.31777  -0.31053  -0.30423  -0.29823
  Beta  occ. eigenvalues --   -0.27330  -0.25736  -0.24827  -0.22993  -0.22681
  Beta  occ. eigenvalues --   -0.20475  -0.20018  -0.18981  -0.12483
  Beta virt. eigenvalues --   -0.03170   0.00092   0.01367   0.01620   0.02072
  Beta virt. eigenvalues --    0.02165   0.02390   0.04103   0.04436   0.04586
  Beta virt. eigenvalues --    0.04731   0.06056   0.06629   0.06877   0.07515

 Mulliken charges and spin densities:
               1          2
     1  C   -1.159811   0.000000
     2  C   -0.259721  -0.000000
     3  C    0.899668   0.000000
     4  C   -0.958813  -0.000000
     5  C    0.163855   0.000000
     6  C    0.705958  -0.000000
     7  O   -0.549652   0.000000
     8  O   -0.626637   0.000000
     9  I   -0.215424   0.000000
    10  I   -0.212347  -0.000000
    11  H    0.154483  -0.000000
    12  C    0.662756  -0.000000
    13  C   -0.504720   0.000000
    14  C   -0.685008   0.000000
    15  C   -0.685073   0.000000
    16  H    0.124822   0.000000
    17  H    0.124847   0.000000
    18  H    0.161926  -0.000000
    19  H    0.119058  -0.000000
    20  H    0.177887  -0.000000
    21  H    0.132507   0.000000
    22  H    0.119033   0.000000
    23  H    0.132518   0.000000
    24  H    0.177889  -0.000000
 Sum of Mulliken charges =  -2.00000   0.00000

 Dipole moment (field-independent basis, Debye):
    X=              2.8858    Y=              4.8753    Z=              0.0060  Tot=              5.6653
 Quadrupole moment (field-independent basis, Debye-Ang):
   XX=           -163.6259   YY=           -194.2375   ZZ=           -138.3448
   XY=             14.9317   XZ=              0.0074   YZ=             -0.0380

 Normal termination of Gaussian 16 at Mon Jan 22 18:38:14 2024.
