 Gaussian 16, Revision A.03,
 Gaussian 16:  ES64L-G16RevA.03 25-Dec-2016

 --------------------------------------
 #P UB3LYP/6-311++G(d,p) nosym opt freq
 --------------------------------------

 -------
 Reduced
 -------
 Symbolic Z-matrix:
 Charge = -2 Multiplicity = 1

 SCF Done:  E(UB3LYP) =  -932.830784697     A.U. after   30 cycles
 Optimization completed.
    -- Stationary point found.
 Normal termination of Gaussian 16 at Wed Dec 27 21:06:51 2023.

 ----------------------------------------------------------------------
 #P Geom=AllCheck Guess=TCheck SCRF=Check GenChk UB3LYP/6-311++G(d,p) F
 req
 ----------------------------------------------------------------------

 Structure from the checkpoint file:  "175-an.chk"
 -------
 Reduced
 -------
 Charge = -2 Multiplicity = 1

                          Input orientation:
 ---------------------------------------------------------------------
 Center     Atomic      Atomic             Coordinates (Angstroms)
 Number     Number       Type             X           Y           Z
 ---------------------------------------------------------------------
      1          6           0        4.405409   -0.106404   -0.127794
      2          6           0        2.938274    0.257482   -0.188020
      3          6           0        2.600045    1.604720   -0.480218
      4          6           0        1.283711    2.030174   -0.446199
      5          6           0        0.219045    1.157898   -0.185427
      6          6           0       -1.130449    1.701819   -0.216462
      7          8           0       -1.375100    2.941840   -0.401001
      8          6           0       -2.183046    0.714421   -0.062339
      9          6           0       -3.536169    1.130952   -0.076746
     10          6           0       -4.578782    0.234025    0.044706
     11          6           0       -4.293860   -1.150334    0.185815
     12          6           0       -2.983600   -1.584051    0.197823
     13          6           0       -1.891198   -0.688703    0.077840
     14          6           0       -0.536422   -1.237431    0.103357
     15          8           0       -0.330440   -2.494581    0.161637
     16          6           0        0.507904   -0.253992    0.042620
     17          6           0        1.900549   -0.617545    0.110278
     18          7           0        2.306855   -1.900177    0.671138
     19          8           0        3.132068   -2.592993    0.026141
     20          8           0        1.912671   -2.209132    1.802421
     21          1           0        4.728964   -0.613711   -1.042740
     22          1           0        4.637013   -0.786936    0.694959
     23          1           0        5.004685    0.804478   -0.009024
     24          1           0        3.401368    2.312169   -0.681479
     25          1           0        1.025093    3.068792   -0.628178
     26          1           0       -3.715072    2.195629   -0.191116
     27          1           0       -5.609868    0.582492    0.032475
     28          1           0       -5.108131   -1.866272    0.284291
     29          1           0       -2.731519   -2.634629    0.301243
 ---------------------------------------------------------------------

 SCF Done:  E(UB3LYP) =  -932.830784697     A.U. after    1 cycles

 Alpha  occ. eigenvalues --  -18.89118 -18.88780 -18.80392 -18.78240 -14.27017
 Alpha  occ. eigenvalues --   -9.97667  -9.96290  -9.96260  -9.96233  -9.94761
 Alpha  occ. eigenvalues --   -9.94341  -9.94280  -9.93849  -9.93681  -9.93566
 Alpha  occ. eigenvalues --   -9.93113  -9.92082  -9.92049  -9.92041  -9.91830
 Alpha  occ. eigenvalues --   -0.94961  -0.77736  -0.72283  -0.70553  -0.62911
 Alpha  occ. eigenvalues --   -0.61119  -0.55632  -0.54285  -0.51864  -0.50872
 Alpha  occ. eigenvalues --   -0.47408  -0.44030  -0.40913  -0.38770  -0.37258
 Alpha  occ. eigenvalues --   -0.33611  -0.31023  -0.30068  -0.28218  -0.26462
 Alpha  occ. eigenvalues --   -0.25459  -0.25157  -0.22731  -0.21886  -0.21303
 Alpha  occ. eigenvalues --   -0.21060  -0.20302  -0.18680  -0.18474  -0.15884
 Alpha  occ. eigenvalues --   -0.15760  -0.15144  -0.14878  -0.12959  -0.12318
 Alpha  occ. eigenvalues --   -0.11762  -0.10391  -0.09988  -0.08539  -0.08258
 Alpha  occ. eigenvalues --   -0.05273  -0.05104  -0.04343  -0.01477  -0.00481
 Alpha  occ. eigenvalues --    0.00000   0.00519   0.02152   0.04100   0.11998
 Alpha virt. eigenvalues --    0.15227   0.15550   0.16539   0.17417   0.17629
 Alpha virt. eigenvalues --    0.18924   0.19643   0.19720   0.20657   0.21629
 Alpha virt. eigenvalues --    0.21685   0.22420   0.23480   0.23934   0.24597

  Beta  occ. eigenvalues --  -18.89118 -18.88780 -18.80392 -18.78240 -14.27017
  Beta  occ. eigenvalues --   -9.97667  -9.96290  -9.96260  -9.96233  -9.94761
  Beta  occ. eigenvalues --   -9.94341  -9.94280  -9.93849  -9.93681  -9.93566
  Beta  occ. eigenvalues --   -9.93113  -9.92082  -9.92049  -9.92041  -9.91830
  Beta  occ. eigenvalues --   -0.94961  -0.77736  -0.72283  -0.70553  -0.62911
  Beta  occ. eigenvalues --   -0.61119  -0.55632  -0.54285  -0.51864  -0.50872
  Beta  occ. eigenvalues --   -0.47408  -0.44030  -0.40913  -0.38770  -0.37258
  Beta  occ. eigenvalues --   -0.33611  -0.31023  -0.30068  -0.28218  -0.26462
  Beta  occ. eigenvalues --   -0.25459  -0.25157  -0.22731  -0.21886  -0.21303
  Beta  occ. eigenvalues --   -0.21060  -0.20302  -0.18680  -0.18474  -0.15884
  Beta  occ. eigenvalues --   -0.15760  -0.15144  -0.14878  -0.12959  -0.12318
  Beta  occ. eigenvalues --   -0.11762  -0.10391  -0.09988  -0.08539  -0.08258
  Beta  occ. eigenvalues --   -0.05273  -0.05104  -0.04343  -0.01477  -0.00481
  Beta  occ. eigenvalues --    0.00000   0.00519   0.02152   0.04100   0.11998
  Beta virt. eigenvalues --    0.15227   0.15550   0.16539   0.17417   0.17629
  Beta virt. eigenvalues --    0.18924   0.19643   0.19720   0.20657   0.21629
  Beta virt. eigenvalues --    0.21685   0.22420   0.23480   0.23934   0.24597

 Mulliken charges and spin densities:
               1          2
     1  C   -0.534956   0.000000
     2  C    0.565502  -0.000000
     3  C   -0.740672   0.000000
     4  C   -0.227579   0.000000
     5  C    0.728600   0.000000
     6  C   -0.654137   0.000000
     7  O   -0.466051   0.000000
     8  C    0.507953  -0.000000
     9  C    0.008124  -0.000000
    10  C   -0.468708   0.000000
    11  C   -0.487329   0.000000
    12  C    0.048723  -0.000000
    13  C    0.318447  -0.000000
    14  C   -1.016821  -0.000000
    15  O   -0.416440   0.000000
    16  C    0.078438   0.000000
    17  C    0.123575   0.000000
    18  N   -0.231030   0.000000
    19  O   -0.087570  -0.000000
    20  O   -0.033483  -0.000000
    21  H    0.179018  -0.000000
    22  H    0.134767  -0.000000
    23  H    0.028501  -0.000000
    24  H    0.076266   0.000000
    25  H    0.132952   0.000000
    26  H    0.129927  -0.000000
    27  H    0.080006   0.000000
    28  H    0.082316  -0.000000
    29  H    0.141662   0.000000
 Sum of Mulliken charges =  -2.00000  -0.00000

 Dipole moment (field-independent basis, Debye):
    X=              1.3090    Y=              3.8946    Z=             -1.4274  Tot=              4.3496
 Quadrupole moment (field-independent basis, Debye-Ang):
   XX=           -183.1207   YY=           -184.1994   ZZ=           -133.2357
   XY=             21.1841   XZ=             -4.6037   YZ=              9.7963

  Exact polarizability: 715.392  11.684 316.953  57.887 -24.719 160.783
 Approx polarizability:1169.133-168.441 662.039  74.425 -92.679 264.519

                      1                      2                      3
                      A                      A                      A
 Frequencies --     39.7631                48.1483                98.3300
 Red. masses --      9.2143                 5.4765                 5.7974
 Frc consts  --      0.0086                 0.0075                 0.0330
 IR Inten    --      6.0198                 7.4198                12.5601

                      4                      5                      6
                      A                      A                      A
 Frequencies --    117.9026               133.4255               142.4086
 Red. masses --      4.6549                 4.2163                 1.1711
 Frc consts  --      0.0381                 0.0442                 0.0140
 IR Inten    --      2.4209                 2.0620                 2.0544

                      7                      8                      9
                      A                      A                      A
 Frequencies --    158.5430               183.1835               205.8437
 Red. masses --      6.8728                 9.2636                 6.4570
 Frc consts  --      0.1018                 0.1831                 0.1612
 IR Inten    --      1.3268                 2.5408                 0.6151

                     10                     11                     12
                      A                      A                      A
 Frequencies --    253.6048               283.5679               290.4105
 Red. masses --      5.2018                 5.0303                 5.3007
 Frc consts  --      0.1971                 0.2383                 0.2634
 IR Inten    --      4.6761                 7.0822                 2.0023

                     13                     14                     15
                      A                      A                      A
 Frequencies --    315.3021               343.3951               365.5635
 Red. masses --     10.5127                 7.1875                10.2261
 Frc consts  --      0.6158                 0.4994                 0.8052
 IR Inten    --      0.7651                 4.1435                 0.5270

                     16                     17                     18
                      A                      A                      A
 Frequencies --    387.6648               414.6463               435.6498
 Red. masses --      6.0608                 5.0353                 4.9782
 Frc consts  --      0.5367                 0.5101                 0.5567
 IR Inten    --      1.7822                 0.8227                15.7110

                     19                     20                     21
                      A                      A                      A
 Frequencies --    444.9177               466.7406               485.9121
 Red. masses --      4.6247                 4.1888                10.4289
 Frc consts  --      0.5394                 0.5376                 1.4508
 IR Inten    --      2.7804                 1.6200                98.5661

                     22                     23                     24
                      A                      A                      A
 Frequencies --    522.2746               579.5615               592.1921
 Red. masses --      4.4333                 5.5927                 5.5043
 Frc consts  --      0.7125                 1.1068                 1.1373
 IR Inten    --      4.4320                17.1145                 2.6794

                     25                     26                     27
                      A                      A                      A
 Frequencies --    629.2283               648.3090               663.5317
 Red. masses --      6.6855                 6.8482                 5.3410
 Frc consts  --      1.5596                 1.6959                 1.3855
 IR Inten    --     22.4980                 2.2678                 9.7942

                     28                     29                     30
                      A                      A                      A
 Frequencies --    687.5522               689.9522               735.8528
 Red. masses --      6.4671                 2.0113                 5.7363
 Frc consts  --      1.8013                 0.5641                 1.8301
 IR Inten    --     10.8031                83.5559                14.1642

                     31                     32                     33
                      A                      A                      A
 Frequencies --    739.3786               746.2868               760.0209
 Red. masses --      2.5453                 2.0078                 5.3157
 Frc consts  --      0.8198                 0.6589                 1.8091
 IR Inten    --     11.9143                 7.0101                 5.1951

                     34                     35                     36
                      A                      A                      A
 Frequencies --    769.2232               794.8368               824.5681
 Red. masses --      3.1161                 2.1124                 2.4732
 Frc consts  --      1.0863                 0.7863                 0.9907
 IR Inten    --     20.2667                 7.2150                 0.1931

                     37                     38                     39
                      A                      A                      A
 Frequencies --    828.1263               891.7019               956.0340
 Red. masses --      8.0982                 6.8273                 1.2713
 Frc consts  --      3.2722                 3.1985                 0.6846
 IR Inten    --     15.1597                11.6466                 0.7745

                     40                     41                     42
                      A                      A                      A
 Frequencies --    966.8388               970.4080               976.5264
 Red. masses --      1.3433                 1.3284                 2.6114
 Frc consts  --      0.7398                 0.7370                 1.4672
 IR Inten    --      2.1928                 3.2151                39.5140

                     43                     44                     45
                      A                      A                      A
 Frequencies --    982.7873              1019.4233              1044.9646
 Red. masses --      4.2404                 2.0362                 1.4794
 Frc consts  --      2.4131                 1.2468                 0.9518
 IR Inten    --     29.0247               116.0119                18.2284

                     46                     47                     48
                      A                      A                      A
 Frequencies --   1056.3441              1098.2002              1121.3724
 Red. masses --      2.4587                 2.0103                 1.6175
 Frc consts  --      1.6165                 1.4285                 1.1984
 IR Inten    --     50.4134                83.0565               130.0247

                     49                     50                     51
                      A                      A                      A
 Frequencies --   1145.9528              1163.6868              1191.7362
 Red. masses --      1.6184                 2.5003                 2.7872
 Frc consts  --      1.2522                 1.9948                 2.3323
 IR Inten    --     81.2007                59.3638               378.0921

                     52                     53                     54
                      A                      A                      A
 Frequencies --   1206.9365              1220.0043              1241.0875
 Red. masses --      2.1214                 3.5273                 6.0794
 Frc consts  --      1.8207                 3.0932                 5.5172
 IR Inten    --    277.4557               185.8146              1674.8007

                     55                     56                     57
                      A                      A                      A
 Frequencies --   1251.9149              1302.4098              1335.0562
 Red. masses --      2.7222                 3.1797                 4.8629
 Frc consts  --      2.5137                 3.1778                 5.1068
 IR Inten    --    265.8592               152.9735               130.0482

                     58                     59                     60
                      A                      A                      A
 Frequencies --   1350.8612              1374.4814              1405.2974
 Red. masses --      8.6990                 2.7034                 1.2765
 Frc consts  --      9.3528                 3.0092                 1.4853
 IR Inten    --     97.4232               159.7764                16.1011

                     61                     62                     63
                      A                      A                      A
 Frequencies --   1428.5565              1450.9574              1465.4755
 Red. masses --      4.6862                 2.8396                 2.7150
 Frc consts  --      5.6347                 3.5222                 3.4354
 IR Inten    --    354.2400                26.5543                15.3779

                     64                     65                     66
                      A                      A                      A
 Frequencies --   1472.8360              1478.8045              1482.1001
 Red. masses --      1.9451                 2.6667                 1.7547
 Frc consts  --      2.4860                 3.4359                 2.2709
 IR Inten    --    143.7762               151.0610               110.4199

                     67                     68                     69
                      A                      A                      A
 Frequencies --   1494.4130              1499.2653              1530.5731
 Red. masses --      2.4662                 3.4184                 4.4723
 Frc consts  --      3.2451                 4.5272                 6.1730
 IR Inten    --     57.5615               344.3340                56.1514

                     70                     71                     72
                      A                      A                      A
 Frequencies --   1569.9230              1594.8460              1595.5136
 Red. masses --      7.0665                 7.8185                 5.5044
 Frc consts  --     10.2616                11.7168                 8.2558
 IR Inten    --    343.6177                76.5311                 8.6353

                     73                     74                     75
                      A                      A                      A
 Frequencies --   2995.7123              3042.6467              3078.4894
 Red. masses --      1.0406                 1.0980                 1.0964
 Frc consts  --      5.5024                 5.9889                 6.1221
 IR Inten    --    278.1714               146.1590                22.1024

                     76                     77                     78
                      A                      A                      A
 Frequencies --   3095.0510              3115.8685              3118.6335
 Red. masses --      1.0828                 1.0863                 1.0907
 Frc consts  --      6.1115                 6.2137                 6.2499
 IR Inten    --     40.2717                68.8279               141.3510

                     79                     80                     81
                      A                      A                      A
 Frequencies --   3159.2741              3159.9812              3164.8687
 Red. masses --      1.0908                 1.0910                 1.0911
 Frc consts  --      6.4143                 6.4184                 6.4389
 IR Inten    --     33.1154                40.5551                53.0685

 - Thermochemistry -
 -------------------
 Temperature   298.150 Kelvin.  Pressure   1.00000 Atm.
 Atom     1 has atomic number  6 and mass  12.00000

 Molecular mass:   267.05316 amu.
 Principal axes and moments of inertia in atomic units:
                           1         2         3
     Eigenvalues --  2721.389306743.579499188.11224
           X            0.98521   0.17129   0.00413
           Y           -0.16829   0.96292   0.21086
           Z            0.03214  -0.20843   0.97751
 This molecule is an asymmetric top.
 Rotational symmetry number  1.
 Warning -- assumption of classical behavior for rotation
           may cause significant error
 Rotational temperatures (Kelvin)      0.03183     0.01284     0.00943
 Rotational constants (GHZ):           0.66317     0.26762     0.19642
 Zero-point vibrational energy     532898.3 (Joules/Mol)
                                  127.36574 (Kcal/Mol)
 Warning -- explicit consideration of  24 degrees of freedom as
           vibrations may cause significant error
 Vibrational temperatures:     57.21    69.27   141.47   169.64   191.97
          (Kelvin)            204.89   228.11   263.56   296.16   364.88
                              407.99   417.84   453.65   494.07   525.96
                              557.76   596.58   626.80   640.14   671.54
                              699.12   751.44   833.86   852.03   905.32
                              932.77   954.67   989.23   992.69  1058.73
                             1063.80  1073.74  1093.50  1106.74  1143.59
                             1186.37  1191.49  1282.96  1375.52  1391.07
                             1396.20  1405.00  1414.01  1466.72  1503.47
                             1519.84  1580.07  1613.40  1648.77  1674.29
                             1714.64  1736.51  1755.31  1785.65  1801.23
                             1873.88  1920.85  1943.59  1977.57  2021.91
                             2055.37  2087.60  2108.49  2119.08  2127.67
                             2132.41  2150.13  2157.11  2202.15  2258.77
                             2294.63  2295.59  4310.16  4377.69  4429.26
                             4453.09  4483.04  4487.02  4545.49  4546.51
                             4553.54

 Zero-point correction=                           0.202970 (Hartree/Particle)
 Thermal correction to Energy=                    0.218655
 Thermal correction to Enthalpy=                  0.219599
 Thermal correction to Gibbs Free Energy=         0.159923
 Sum of electronic and zero-point Energies=           -932.627814
 Sum of electronic and thermal Energies=              -932.612130
 Sum of electronic and thermal Enthalpies=            -932.611186
 Sum of electronic and thermal Free Energies=         -932.670861

                     E (Thermal)             CV                S
                      KCal/Mol        Cal/Mol-Kelvin    Cal/Mol-Kelvin
 Total                  137.208             61.909            125.598
 Electronic               0.000              0.000              0.000
 Translational            0.889              2.981             42.646
 Rotational               0.889              2.981             33.488
 Vibrational            135.431             55.948             49.464
 Vibration     1          0.594              1.981              5.271
 Vibration     2          0.595              1.978              4.892
 Vibration     3          0.604              1.950              3.487
 Vibration     4          0.608              1.934              3.134
 Vibration     5          0.613              1.920              2.896
 Vibration     6          0.616              1.911              2.771
 Vibration     7          0.621              1.893              2.567
 Vibration     8          0.631              1.863              2.296
 Vibration     9          0.640              1.832              2.080
 Vibration    10          0.665              1.757              1.705
 Vibration    11          0.682              1.704              1.512
 Vibration    12          0.686              1.692              1.472
 Vibration    13          0.703              1.644              1.334
 Vibration    14          0.722              1.589              1.196
 Vibration    15          0.739              1.543              1.098
 Vibration    16          0.756              1.497              1.009
 Vibration    17          0.778              1.438              0.910
 Vibration    18          0.796              1.393              0.840
 Vibration    19          0.804              1.372              0.811
 Vibration    20          0.824              1.324              0.747
 Vibration    21          0.842              1.281              0.694
 Vibration    22          0.877              1.201              0.605
 Vibration    23          0.936              1.075              0.486
 Vibration    24          0.950              1.048              0.463

 Optimization completed.
    -- Stationary point found.
 Normal termination of Gaussian 16 at Wed Dec 27 22:18:20 2023.
