 Gaussian 16, Revision A.03,
 Gaussian 16:  ES64L-G16RevA.03 25-Dec-2016

 ----------------------------------------------------------------
 #P UB3LYP/6-311++G(d,p) SCRF=(PCM,Solvent=n,n-DiMethylFormamide)
 ----------------------------------------------------------------

 -------
 Reduced
 -------
 Symbolic Z-matrix:
 Charge = -2 Multiplicity = 1

                         Standard orientation:
 ---------------------------------------------------------------------
 Center     Atomic      Atomic             Coordinates (Angstroms)
 Number     Number       Type             X           Y           Z
 ---------------------------------------------------------------------
      1          6           0        4.337597    0.750482   -0.155061
      2          6           0        2.832754    0.905030   -0.145652
      3          6           0        2.300645    2.220957   -0.150701
      4          6           0        0.938690    2.437036   -0.035410
      5          6           0        0.014570    1.386326    0.030850
      6          6           0       -1.398533    1.725827    0.107193
      7          8           0       -1.820233    2.928992    0.185437
      8          6           0       -2.297100    0.587674    0.045103
      9          6           0       -3.695403    0.799939    0.110973
     10          6           0       -4.597667   -0.242445    0.035964
     11          6           0       -4.116814   -1.570450   -0.114789
     12          6           0       -2.758566   -1.804980   -0.186843
     13          6           0       -1.806768   -0.757301   -0.110456
     14          6           0       -0.387896   -1.099547   -0.193174
     15          8           0       -0.005172   -2.298523   -0.398671
     16          6           0        0.505355    0.014139   -0.040651
     17          6           0        1.936613   -0.152300   -0.043131
     18          7           0        2.533627   -1.451931    0.238522
     19          8           0        3.432144   -1.869749   -0.532896
     20          8           0        2.215106   -2.042929    1.277705
     21          1           0        4.706772    0.496549   -1.154262
     22          1           0        4.683215   -0.046163    0.507956
     23          1           0        4.805073    1.692855    0.155333
     24          1           0        2.988875    3.062091   -0.194772
     25          1           0        0.531655    3.442805    0.003030
     26          1           0       -4.025552    1.828252    0.221417
     27          1           0       -5.667596   -0.050378    0.091447
     28          1           0       -4.819204   -2.400242   -0.173067
     29          1           0       -2.358255   -2.806894   -0.304637
 ---------------------------------------------------------------------

 SCF Done:  E(UB3LYP) =  -933.086507037     A.U. after   20 cycles

 The electronic state is 1-A.
 Alpha  occ. eigenvalues --  -19.12547 -19.12075 -19.04058 -19.02657 -14.50148
 Alpha  occ. eigenvalues --  -10.20154 -10.19614 -10.18484 -10.18342 -10.16087
 Alpha  occ. eigenvalues --  -10.16031 -10.15931 -10.15732 -10.15596 -10.15548
 Alpha  occ. eigenvalues --  -10.15234 -10.15056 -10.15050 -10.14962 -10.14899
 Alpha  occ. eigenvalues --   -1.18397  -1.01201  -0.96015  -0.94946  -0.85415
 Alpha  occ. eigenvalues --   -0.83429  -0.78147  -0.76710  -0.73701  -0.73157
 Alpha  occ. eigenvalues --   -0.69194  -0.66823  -0.63342  -0.61021  -0.59452
 Alpha  occ. eigenvalues --   -0.56010  -0.53867  -0.52701  -0.50306  -0.49370
 Alpha  occ. eigenvalues --   -0.48707  -0.47901  -0.44729  -0.44478  -0.43148
 Alpha  occ. eigenvalues --   -0.42547  -0.41293  -0.40628  -0.39933  -0.38938
 Alpha  occ. eigenvalues --   -0.38088  -0.37696  -0.36938  -0.36110  -0.34674
 Alpha  occ. eigenvalues --   -0.34193  -0.33893  -0.32781  -0.31508  -0.30994
 Alpha  occ. eigenvalues --   -0.28725  -0.28607  -0.27851  -0.24009  -0.23492
 Alpha  occ. eigenvalues --   -0.23114  -0.22429  -0.21580  -0.20298  -0.11618
 Alpha virt. eigenvalues --   -0.06629  -0.02960  -0.00552   0.00039   0.00622
 Alpha virt. eigenvalues --    0.01145   0.01602   0.02310   0.02754   0.03661
 Alpha virt. eigenvalues --    0.04492   0.04608   0.05187   0.05268   0.06424

  Beta  occ. eigenvalues --  -19.12547 -19.12075 -19.04058 -19.02657 -14.50148
  Beta  occ. eigenvalues --  -10.20154 -10.19614 -10.18484 -10.18342 -10.16087
  Beta  occ. eigenvalues --  -10.16031 -10.15931 -10.15732 -10.15596 -10.15548
  Beta  occ. eigenvalues --  -10.15234 -10.15056 -10.15050 -10.14962 -10.14899
  Beta  occ. eigenvalues --   -1.18397  -1.01201  -0.96015  -0.94946  -0.85415
  Beta  occ. eigenvalues --   -0.83429  -0.78147  -0.76710  -0.73701  -0.73157
  Beta  occ. eigenvalues --   -0.69194  -0.66823  -0.63342  -0.61021  -0.59452
  Beta  occ. eigenvalues --   -0.56010  -0.53867  -0.52701  -0.50306  -0.49370
  Beta  occ. eigenvalues --   -0.48707  -0.47901  -0.44729  -0.44478  -0.43148
  Beta  occ. eigenvalues --   -0.42547  -0.41293  -0.40628  -0.39933  -0.38938
  Beta  occ. eigenvalues --   -0.38088  -0.37696  -0.36938  -0.36110  -0.34674
  Beta  occ. eigenvalues --   -0.34193  -0.33893  -0.32781  -0.31508  -0.30994
  Beta  occ. eigenvalues --   -0.28725  -0.28607  -0.27851  -0.24009  -0.23492
  Beta  occ. eigenvalues --   -0.23114  -0.22429  -0.21580  -0.20298  -0.11618
  Beta virt. eigenvalues --   -0.06629  -0.02960  -0.00552   0.00039   0.00622
  Beta virt. eigenvalues --    0.01145   0.01602   0.02310   0.02754   0.03661
  Beta virt. eigenvalues --    0.04492   0.04608   0.05187   0.05268   0.06424

 Mulliken charges and spin densities:
               1          2
     1  C   -0.529247   0.000000
     2  C    0.458814  -0.000000
     3  C   -0.772719  -0.000000
     4  C   -0.252469  -0.000000
     5  C    0.620720   0.000000
     6  C   -0.337059   0.000000
     7  O   -0.569655   0.000000
     8  C    0.376345  -0.000000
     9  C    0.035477   0.000000
    10  C   -0.530695  -0.000000
    11  C   -0.528057  -0.000000
    12  C    0.051990  -0.000000
    13  C    0.133767  -0.000000
    14  C   -0.780652  -0.000000
    15  O   -0.563410   0.000000
    16  C   -0.003099  -0.000000
    17  C    0.185736   0.000000
    18  N   -0.226555  -0.000000
    19  O   -0.129128   0.000000
    20  O   -0.110889   0.000000
    21  H    0.198214  -0.000000
    22  H    0.172950   0.000000
    23  H    0.143999   0.000000
    24  H    0.160589  -0.000000
    25  H    0.154215   0.000000
    26  H    0.152008  -0.000000
    27  H    0.166074  -0.000000
    28  H    0.167878   0.000000
    29  H    0.154858   0.000000
 Sum of Mulliken charges =  -2.00000   0.00000

 Dipole moment (field-independent basis, Debye):
    X=              0.6639    Y=              4.5702    Z=             -0.3459  Tot=              4.6311
 Quadrupole moment (field-independent basis, Debye-Ang):
   XX=           -158.7439   YY=           -177.0146   ZZ=           -130.7007
   XY=             33.4670   XZ=              0.0605   YZ=             -1.4947

 Normal termination of Gaussian 16 at Sun Jan 14 01:33:57 2024.
