 Gaussian 16, Revision A.03,
 Gaussian 16:  ES64L-G16RevA.03 25-Dec-2016

 --------------------------------------
 #P UB3LYP/6-311++G(d,p) nosym opt freq
 --------------------------------------

 -------
 Radical
 -------
 Symbolic Z-matrix:
 Charge = -1 Multiplicity = 2

 SCF Done:  E(UB3LYP) =  -1077.84537368     A.U. after   25 cycles
 SCF Done:  E(UB3LYP) =  -1077.85741327     A.U. after   20 cycles
 SCF Done:  E(UB3LYP) =  -1077.85904821     A.U. after   19 cycles
 SCF Done:  E(UB3LYP) =  -1077.85997723     A.U. after   21 cycles
 SCF Done:  E(UB3LYP) =  -1077.86145434     A.U. after   22 cycles
 SCF Done:  E(UB3LYP) =  -1077.86361952     A.U. after   18 cycles
 SCF Done:  E(UB3LYP) =  -1077.86560983     A.U. after   19 cycles
 SCF Done:  E(UB3LYP) =  -1077.86610180     A.U. after   20 cycles
 SCF Done:  E(UB3LYP) =  -1077.86635938     A.U. after   16 cycles
 SCF Done:  E(UB3LYP) =  -1077.86641570     A.U. after   16 cycles
 SCF Done:  E(UB3LYP) =  -1077.86641510     A.U. after   16 cycles
 SCF Done:  E(UB3LYP) =  -1077.86642579     A.U. after   15 cycles
 SCF Done:  E(UB3LYP) =  -1077.86643409     A.U. after   14 cycles
 SCF Done:  E(UB3LYP) =  -1077.86643450     A.U. after   11 cycles
 SCF Done:  E(UB3LYP) =  -1077.86643461     A.U. after   11 cycles
 SCF Done:  E(UB3LYP) =  -1077.86643466     A.U. after   11 cycles
 Optimization completed.
    -- Stationary point found.
 Normal termination of Gaussian 16 at Fri Dec 29 00:28:43 2023.

 ----------------------------------------------------------------------
 #P Geom=AllCheck Guess=TCheck SCRF=Check GenChk UB3LYP/6-311++G(d,p) F
 req
 ----------------------------------------------------------------------

 Structure from the checkpoint file:  "305-rad.chk"
 -------
 Radical
 -------
 Charge = -1 Multiplicity = 2

                          Input orientation:
 ---------------------------------------------------------------------
 Center     Atomic      Atomic             Coordinates (Angstroms)
 Number     Number       Type             X           Y           Z
 ---------------------------------------------------------------------
      1          6           0        4.169154   -1.311988    3.847820
      2          6           0        3.370927   -0.983431    4.926632
      3          6           0        2.453408    0.085146    4.838280
      4          6           0        4.070484   -0.575535    2.643359
      5          6           0        3.150366    0.501039    2.543624
      6          6           0        2.355131    0.804968    3.663135
      7          6           0        4.905403   -0.919965    1.514069
      8          6           0        4.744534   -0.123117    0.319810
      9          6           0        3.867616    0.932621    0.190912
     10          6           0        3.014260    1.293226    1.304525
     11          8           0        5.762190   -1.866327    1.498175
     12          8           0        2.190417    2.241254    1.228822
     13          8           0        5.561225   -0.508948   -0.703990
     14          8           0        3.393085   -1.640546    6.142190
     15          6           0        4.293443   -2.722073    6.285016
     16          6           0        3.754146    1.714913   -1.091802
     17          6           0        2.637933    1.197142   -2.020777
     18          6           0        2.505967    2.021181   -3.307593
     19          6           0        1.343889    1.618757   -4.232375
     20          6           0        1.510656    0.206910   -4.824984
     21          6           0        1.149551    2.642865   -5.366575
     22          6           0       -0.003734    2.271476   -6.309922
     23          6           0        0.170859    0.859052   -6.885175
     24          6           0        0.358862   -0.174848   -5.766563
     25          1           0        4.885174   -2.122410    3.871707
     26          1           0        1.840666    0.318891    5.701811
     27          1           0        1.656817    1.629146    3.571634
     28          1           0        6.052703   -1.257759   -0.299730
     29          1           0        4.156497   -3.098262    7.299847
     30          1           0        5.334131   -2.402314    6.153107
     31          1           0        4.079640   -3.523850    5.567996
     32          1           0        4.708941    1.682686   -1.626847
     33          1           0        3.536991    2.757697   -0.838858
     34          1           0        1.691185    1.225106   -1.470278
     35          1           0        2.841358    0.147871   -2.257780
     36          1           0        3.446681    1.969580   -3.874875
     37          1           0        2.376774    3.075980   -3.031111
     38          1           0        0.423981    1.618092   -3.627624
     39          1           0        1.592353   -0.530898   -4.022537
     40          1           0        2.459827    0.168393   -5.378731
     41          1           0        2.081935    2.711241   -5.945256
     42          1           0        0.978987    3.637048   -4.938082
     43          1           0       -0.082039    3.004933   -7.121062
     44          1           0       -0.950871    2.318474   -5.755921
     45          1           0        1.052206    0.844281   -7.540795
     46          1           0       -0.688553    0.593246   -7.511787
     47          1           0        0.535773   -1.168156   -6.194627
     48          1           0       -0.570558   -0.248662   -5.186158
 ---------------------------------------------------------------------

 SCF Done:  E(UB3LYP) =  -1077.86643466     A.U. after    1 cycles

 Alpha  occ. eigenvalues --  -19.05251 -19.01814 -18.95610 -18.94283 -10.13300
 Alpha  occ. eigenvalues --  -10.11977 -10.09719 -10.09583 -10.09574 -10.09491
 Alpha  occ. eigenvalues --  -10.09302 -10.09129 -10.08768 -10.08660 -10.08290
 Alpha  occ. eigenvalues --  -10.06757 -10.05522 -10.05429 -10.05402 -10.05249
 Alpha  occ. eigenvalues --  -10.05167 -10.04539 -10.04467 -10.03659  -0.96450
 Alpha  occ. eigenvalues --   -0.93711  -0.86811  -0.86527  -0.76077  -0.73948
 Alpha  occ. eigenvalues --   -0.70256  -0.68532  -0.66818  -0.65834  -0.63603
 Alpha  occ. eigenvalues --   -0.63098  -0.59940  -0.57239  -0.54590  -0.53692
 Alpha  occ. eigenvalues --   -0.51576  -0.50038  -0.48630  -0.47497  -0.46448
 Alpha  occ. eigenvalues --   -0.45295  -0.43134  -0.40410  -0.39735  -0.37838
 Alpha  occ. eigenvalues --   -0.37498  -0.37459  -0.36850  -0.36436  -0.36039
 Alpha  occ. eigenvalues --   -0.35863  -0.33841  -0.32827  -0.31961  -0.31372
 Alpha  occ. eigenvalues --   -0.30622  -0.30559  -0.30464  -0.29598  -0.28641
 Alpha  occ. eigenvalues --   -0.27847  -0.27193  -0.27077  -0.27013  -0.26720
 Alpha  occ. eigenvalues --   -0.26048  -0.25546  -0.25109  -0.24936  -0.24251
 Alpha  occ. eigenvalues --   -0.23410  -0.23119  -0.22613  -0.22089  -0.21739
 Alpha  occ. eigenvalues --   -0.21328  -0.20649  -0.19664  -0.14231  -0.13021
 Alpha  occ. eigenvalues --   -0.12508  -0.10806  -0.09925  -0.02286
 Alpha virt. eigenvalues --    0.05142   0.06805   0.06956   0.06962   0.08028
 Alpha virt. eigenvalues --    0.09236   0.09456   0.09563   0.09873   0.10006
 Alpha virt. eigenvalues --    0.10206   0.10351   0.11038   0.11293   0.11649

  Beta  occ. eigenvalues --  -19.05255 -19.01779 -18.94928 -18.93739 -10.13299
  Beta  occ. eigenvalues --  -10.11980 -10.09719 -10.09583 -10.09499 -10.09402
  Beta  occ. eigenvalues --  -10.09302 -10.08847 -10.08767 -10.08660 -10.08290
  Beta  occ. eigenvalues --  -10.06756 -10.05475 -10.05407 -10.05388 -10.05238
  Beta  occ. eigenvalues --  -10.05105 -10.04476 -10.04426 -10.03555  -0.96452
  Beta  occ. eigenvalues --   -0.93530  -0.85880  -0.85374  -0.76077  -0.73739
  Beta  occ. eigenvalues --   -0.70200  -0.68241  -0.66816  -0.65707  -0.63457
  Beta  occ. eigenvalues --   -0.62960  -0.59810  -0.57019  -0.54061  -0.53560
  Beta  occ. eigenvalues --   -0.51463  -0.49897  -0.48531  -0.47484  -0.46300
  Beta  occ. eigenvalues --   -0.45058  -0.43035  -0.40371  -0.39572  -0.37829
  Beta  occ. eigenvalues --   -0.37484  -0.37399  -0.36837  -0.36358  -0.35979
  Beta  occ. eigenvalues --   -0.35604  -0.33773  -0.32732  -0.31796  -0.31310
  Beta  occ. eigenvalues --   -0.30606  -0.30499  -0.29840  -0.29159  -0.28305
  Beta  occ. eigenvalues --   -0.27560  -0.27082  -0.26920  -0.26864  -0.26428
  Beta  occ. eigenvalues --   -0.25780  -0.25395  -0.25031  -0.24414  -0.23764
  Beta  occ. eigenvalues --   -0.23350  -0.22701  -0.22079  -0.21776  -0.21370
  Beta  occ. eigenvalues --   -0.20865  -0.20498  -0.18556  -0.13017  -0.12412
  Beta  occ. eigenvalues --   -0.10851  -0.10283  -0.09155
  Beta virt. eigenvalues --    0.04304   0.05143   0.06805   0.06953   0.06960
  Beta virt. eigenvalues --    0.08028   0.09450   0.09565   0.09817   0.09907
  Beta virt. eigenvalues --    0.10016   0.10205   0.10353   0.11067   0.11308

 Mulliken charges and spin densities:
               1          2
     1  C    0.903447   0.085629
     2  C   -0.979628  -0.016127
     3  C   -0.326776   0.065427
     4  C    0.950008   0.027382
     5  C   -0.513481   0.080188
     6  C    0.207406  -0.008763
     7  C   -0.989779   0.168279
     8  C   -0.644743   0.016992
     9  C    1.716587   0.078952
    10  C   -1.278003   0.040741
    11  O   -0.446240   0.250584
    12  O   -0.357566   0.202576
    13  O   -0.247659   0.013830
    14  O   -0.178845   0.000515
    15  C   -0.330940  -0.000697
    16  C    0.017149   0.010382
    17  C   -0.562202  -0.015088
    18  C   -0.702546   0.009740
    19  C    0.996831  -0.004762
    20  C   -0.493289   0.000680
    21  C   -0.431092   0.000205
    22  C   -0.303003  -0.000166
    23  C   -0.372012   0.000393
    24  C   -0.338152   0.000884
    25  H    0.144635  -0.004296
    26  H    0.154877  -0.005832
    27  H    0.173437   0.000648
    28  H    0.271710  -0.004259
    29  H    0.153911  -0.000133
    30  H    0.147137   0.000740
    31  H    0.146229   0.000773
    32  H    0.209967  -0.000925
    33  H    0.211353   0.003928
    34  H    0.185242  -0.002398
    35  H    0.139442   0.004536
    36  H    0.094101  -0.000453
    37  H    0.121768   0.000830
    38  H    0.145598  -0.000111
    39  H    0.151318  -0.000733
    40  H    0.149049  -0.000160
    41  H    0.144434   0.000044
    42  H    0.134252  -0.000075
    43  H    0.161037  -0.000049
    44  H    0.118969   0.000043
    45  H    0.107715  -0.000011
    46  H    0.154419   0.000063
    47  H    0.152971   0.000047
    48  H    0.130960   0.000005
 Sum of Mulliken charges =  -1.00000   1.00000

 Dipole moment (field-independent basis, Debye):
    X=            -17.4593    Y=             -1.9066    Z=             -5.8768  Tot=             18.5203
 Quadrupole moment (field-independent basis, Debye-Ang):
   XX=           -229.7893   YY=           -165.6242   ZZ=           -188.2082
   XY=              4.2341   XZ=            -21.5910   YZ=              0.6069

  Exact polarizability: 233.832 -48.550 251.614   2.085 -50.131 359.861
 Approx polarizability: 389.258-102.595 410.279 -45.440 -44.346 459.013

                      1                      2                      3
                      A                      A                      A
 Frequencies --     13.1770                19.3937                23.5981
 Red. masses --      5.2744                 4.0055                 3.7332
 Frc consts  --      0.0005                 0.0009                 0.0012
 IR Inten    --      0.5372                 0.8262                 1.0094

                      4                      5                      6
                      A                      A                      A
 Frequencies --     56.2574                64.0018                78.9006
 Red. masses --      3.9930                 3.3865                 5.0062
 Frc consts  --      0.0074                 0.0082                 0.0184
 IR Inten    --      3.5220                 0.8685                 0.4662

                      7                      8                      9
                      A                      A                      A
 Frequencies --    103.0987               114.4211               131.1593
 Red. masses --      3.2652                 2.8365                 3.8408
 Frc consts  --      0.0204                 0.0219                 0.0389
 IR Inten    --      0.6470                 0.2874                 1.9955

                     10                     11                     12
                      A                      A                      A
 Frequencies --    138.4699               157.2455               171.1756
 Red. masses --      5.2597                 4.5707                 4.8796
 Frc consts  --      0.0594                 0.0666                 0.0842
 IR Inten    --      4.9509                 1.4206                 0.6606

                     13                     14                     15
                      A                      A                      A
 Frequencies --    176.3614               219.1456               228.9901
 Red. masses --      2.7243                 1.9911                 1.7688
 Frc consts  --      0.0499                 0.0563                 0.0546
 IR Inten    --      0.1462                 0.2020                 0.0120

                     16                     17                     18
                      A                      A                      A
 Frequencies --    239.2698               267.4433               293.6127
 Red. masses --      1.9556                 3.6241                 3.4255
 Frc consts  --      0.0660                 0.1527                 0.1740
 IR Inten    --      0.2145                 4.3375                 0.3843

                     19                     20                     21
                      A                      A                      A
 Frequencies --    302.1520               323.0468               341.6192
 Red. masses --      3.0472                 1.8673                 4.8771
 Frc consts  --      0.1639                 0.1148                 0.3353
 IR Inten    --      4.0123                 0.2049                 5.0496

                     22                     23                     24
                      A                      A                      A
 Frequencies --    346.0311               357.5402               381.9797
 Red. masses --      4.2968                 8.2623                 4.2879
 Frc consts  --      0.3031                 0.6223                 0.3686
 IR Inten    --      1.1127                 2.9183                 9.8705

                     25                     26                     27
                      A                      A                      A
 Frequencies --    417.3161               435.6319               438.5734
 Red. masses --      4.9757                 6.5845                 2.2960
 Frc consts  --      0.5106                 0.7362                 0.2602
 IR Inten    --     12.5279                 2.9528                 2.2967

                     28                     29                     30
                      A                      A                      A
 Frequencies --    445.7521               468.1715               471.5442
 Red. masses --      2.8766                 3.0417                 3.4416
 Frc consts  --      0.3368                 0.3928                 0.4509
 IR Inten    --      0.1084                 4.2761                 6.7083

                     31                     32                     33
                      A                      A                      A
 Frequencies --    477.3996               504.2721               520.1705
 Red. masses --      4.8939                 5.9485                 7.2152
 Frc consts  --      0.6572                 0.8912                 1.1502
 IR Inten    --      0.3076                 3.9419                 0.3924

                     34                     35                     36
                      A                      A                      A
 Frequencies --    554.2252               602.4213               638.4780
 Red. masses --      1.9594                 4.4386                 4.3305
 Frc consts  --      0.3546                 0.9491                 1.0401
 IR Inten    --      2.4279                 3.1348                 5.9925

                     37                     38                     39
                      A                      A                      A
 Frequencies --    683.0463               694.3413               705.2850
 Red. masses --      4.3965                 6.3969                 3.5296
 Frc consts  --      1.2085                 1.8171                 1.0345
 IR Inten    --     10.1998                 4.5998                 1.5141

                     40                     41                     42
                      A                      A                      A
 Frequencies --    718.6919               732.6249               735.9715
 Red. masses --      4.8037                 1.3070                 1.3245
 Frc consts  --      1.4619                 0.4133                 0.4227
 IR Inten    --      5.0647                 9.3364                86.7159

                     43                     44                     45
                      A                      A                      A
 Frequencies --    764.7186               770.8173               789.3518
 Red. masses --      3.2883                 3.1691                 2.1104
 Frc consts  --      1.1330                 1.1094                 0.7747
 IR Inten    --      7.4822                 9.4341                 9.9544

                     46                     47                     48
                      A                      A                      A
 Frequencies --    793.4897               813.9055               834.4372
 Red. masses --      1.7685                 1.6473                 1.9681
 Frc consts  --      0.6560                 0.6430                 0.8074
 IR Inten    --      2.2600                16.5714                18.8191

                     49                     50                     51
                      A                      A                      A
 Frequencies --    846.7846               876.7276               888.1555
 Red. masses --      2.1382                 1.4767                 1.9724
 Frc consts  --      0.9033                 0.6688                 0.9167
 IR Inten    --      2.3102                20.8782                18.8047

                     52                     53                     54
                      A                      A                      A
 Frequencies --    894.5180               923.2825               927.8725
 Red. masses --      2.0389                 1.6880                 2.3094
 Frc consts  --      0.9612                 0.8478                 1.1715
 IR Inten    --      4.4566                20.6610                30.2035

                     55                     56                     57
                      A                      A                      A
 Frequencies --    959.5142               979.4968               980.0936
 Red. masses --      3.2947                 1.3666                 2.5901
 Frc consts  --      1.7872                 0.7725                 1.4659
 IR Inten    --      7.5265                 1.8282                 3.7362

                     58                     59                     60
                      A                      A                      A
 Frequencies --   1015.8210              1020.9564              1039.4766
 Red. masses --      1.8228                 3.6344                 1.8574
 Frc consts  --      1.1082                 2.2320                 1.1825
 IR Inten    --      2.8873                 2.0770                 1.3677

                     61                     62                     63
                      A                      A                      A
 Frequencies --   1041.9103              1055.2070              1067.3673
 Red. masses --      2.7214                 2.2427                 3.1793
 Frc consts  --      1.7406                 1.4713                 2.1341
 IR Inten    --      1.9732                29.3975                22.6941

                     64                     65                     66
                      A                      A                      A
 Frequencies --   1074.2234              1093.0628              1102.4494
 Red. masses --      1.5064                 1.4753                 2.0177
 Frc consts  --      1.0242                 1.0385                 1.4449
 IR Inten    --      9.3132                 0.3000                14.7312

                     67                     68                     69
                      A                      A                      A
 Frequencies --   1105.1952              1110.8354              1137.2234
 Red. masses --      2.7210                 1.6812                 1.7489
 Frc consts  --      1.9582                 1.2223                 1.3326
 IR Inten    --      2.1135                 4.5927                15.0485

                     70                     71                     72
                      A                      A                      A
 Frequencies --   1167.9460              1174.0807              1186.4119
 Red. masses --      1.2797                 2.4068                 1.7690
 Frc consts  --      1.0285                 1.9547                 1.4671
 IR Inten    --      0.5899                62.4846                11.1872

                     73                     74                     75
                      A                      A                      A
 Frequencies --   1198.8428              1205.1046              1211.8675
 Red. masses --      2.0695                 1.8426                 1.7937
 Frc consts  --      1.7524                 1.5766                 1.5521
 IR Inten    --      2.8058                11.2830                21.9748

                     76                     77                     78
                      A                      A                      A
 Frequencies --   1234.8225              1251.0930              1262.0080
 Red. masses --      2.6545                 2.9535                 1.4221
 Frc consts  --      2.3847                 2.7237                 1.3345
 IR Inten    --    227.8663                61.4400                 9.8710

                     79                     80                     81
                      A                      A                      A
 Frequencies --   1277.9014              1280.4741              1286.1068
 Red. masses --      1.9382                 1.3840                 1.2433
 Frc consts  --      1.8648                 1.3370                 1.2117
 IR Inten    --     34.7585                15.6527                10.5135

                     82                     83                     84
                      A                      A                      A
 Frequencies --   1288.6219              1311.2756              1323.5966
 Red. masses --      1.2692                 1.2890                 1.2759
 Frc consts  --      1.2418                 1.3059                 1.3170
 IR Inten    --      2.8158                19.3429                 6.1578

                     85                     86                     87
                      A                      A                      A
 Frequencies --   1332.7163              1339.9582              1344.9044
 Red. masses --      1.2566                 1.4940                 1.3253
 Frc consts  --      1.3150                 1.5805                 1.4124
 IR Inten    --      2.6949                45.3905                 4.8075

                     88                     89                     90
                      A                      A                      A
 Frequencies --   1361.5690              1363.1205              1365.7950
 Red. masses --      8.0043                 1.4248                 1.4182
 Frc consts  --      8.7428                 1.5598                 1.5587
 IR Inten    --      1.7066                 0.9055                 1.3977

                     91                     92                     93
                      A                      A                      A
 Frequencies --   1371.1619              1375.7022              1378.2948
 Red. masses --      1.4294                 1.5110                 1.4965
 Frc consts  --      1.5833                 1.6849                 1.6750
 IR Inten    --      0.0727                 1.4196                 1.4712

                     94                     95                     96
                      A                      A                      A
 Frequencies --   1389.2779              1394.8993              1418.8436
 Red. masses --      1.4880                 1.5192                 2.7051
 Frc consts  --      1.6921                 1.7416                 3.2085
 IR Inten    --      2.0874                 1.2727               288.5097

                     97                     98                     99
                      A                      A                      A
 Frequencies --   1460.0998              1462.1538              1473.7981
 Red. masses --      1.7652                 1.5696                 1.6298
 Frc consts  --      2.2172                 1.9771                 2.0858
 IR Inten    --    133.3273                37.1012               122.1441

                    100                    101                    102
                      A                      A                      A
 Frequencies --   1478.7404              1483.9219              1484.9138
 Red. masses --      1.0865                 1.0456                 1.0921
 Frc consts  --      1.3998                 1.3565                 1.4188
 IR Inten    --      1.3670                 6.6339                 1.2057

                    103                    104                    105
                      A                      A                      A
 Frequencies --   1485.9850              1488.7220              1491.6102
 Red. masses --      1.0952                 1.1333                 2.0112
 Frc consts  --      1.4248                 1.4798                 2.6364
 IR Inten    --      0.6562                 7.8602                 0.6304

                    106                    107                    108
                      A                      A                      A
 Frequencies --   1492.0324              1500.5290              1506.2915
 Red. masses --      1.1206                 1.1010                 1.0982
 Frc consts  --      1.4697                 1.4606                 1.4681
 IR Inten    --      8.5664                 6.2914                 1.5852

                    109                    110                    111
                      A                      A                      A
 Frequencies --   1508.4864              1527.6884              1539.4014
 Red. masses --      1.0762                 5.3302                 7.8320
 Frc consts  --      1.4429                 7.3293                10.9352
 IR Inten    --     38.2190               493.1153                63.8249

                    112                    113                    114
                      A                      A                      A
 Frequencies --   1582.3278              1625.7404              1643.6099
 Red. masses --      5.6830                 6.1876                 6.4858
 Frc consts  --      8.3834                 9.6355                10.3232
 IR Inten    --     24.9000               190.2839                10.0893

                    115                    116                    117
                      A                      A                      A
 Frequencies --   2963.3565              2978.0036              2981.7603
 Red. masses --      1.0795                 1.0619                 1.0697
 Frc consts  --      5.5855                 5.5486                 5.6033
 IR Inten    --      1.3485                 9.4824                19.9093

                    118                    119                    120
                      A                      A                      A
 Frequencies --   2988.6061              2990.2352              2991.0082
 Red. masses --      1.0696                 1.0337                 1.0668
 Frc consts  --      5.6287                 5.4459                 5.6231
 IR Inten    --     26.0993                81.2607                12.0847

                    121                    122                    123
                      A                      A                      A
 Frequencies --   2992.7214              2996.2732              3011.0288
 Red. masses --      1.0614                 1.0635                 1.0986
 Frc consts  --      5.6008                 5.6253                 5.8685
 IR Inten    --     36.3847                69.7662                14.9375

                    124                    125                    126
                      A                      A                      A
 Frequencies --   3014.9742              3025.9039              3028.6807
 Red. masses --      1.0567                 1.0595                 1.0929
 Frc consts  --      5.6593                 5.7158                 5.9066
 IR Inten    --     21.9579                59.9421               108.1627

                    127                    128                    129
                      A                      A                      A
 Frequencies --   3030.3059              3035.3437              3040.1542
 Red. masses --      1.0957                 1.0964                 1.1024
 Frc consts  --      5.9281                 5.9515                 6.0034
 IR Inten    --    106.9063                 8.6944               129.3654

                    130                    131                    132
                      A                      A                      A
 Frequencies --   3041.0064              3049.3996              3066.1462
 Red. masses --      1.1051                 1.1027                 1.0942
 Frc consts  --      6.0211                 6.0412                 6.0606
 IR Inten    --     49.5324                12.8727                44.3894

                    133                    134                    135
                      A                      A                      A
 Frequencies --   3074.2579              3102.7920              3166.6545
 Red. masses --      1.1037                 1.0991                 1.0869
 Frc consts  --      6.1461                 6.2341                 6.4213
 IR Inten    --     39.5897                54.1939                 7.0826

                    136                    137                    138
                      A                      A                      A
 Frequencies --   3185.4450              3205.4986              3486.0517
 Red. masses --      1.0934                 1.0889                 1.0636
 Frc consts  --      6.5369                 6.5920                 7.6152
 IR Inten    --     18.2666                10.5359               105.1818

 - Thermochemistry -
 -------------------
 Temperature   298.150 Kelvin.  Pressure   1.00000 Atm.
 Atom     1 has atomic number  6 and mass  12.00000

 Molecular mass:   328.16746 amu.
 Principal axes and moments of inertia in atomic units:
                           1         2         3
     Eigenvalues --  3219.50389********************
           X            0.27222   0.75121   0.60131
           Y           -0.23782  -0.55300   0.79852
           Z            0.93239  -0.36037   0.02812
 This molecule is an asymmetric top.
 Rotational symmetry number  1.
 Warning -- assumption of classical behavior for rotation
           may cause significant error
 Rotational temperatures (Kelvin)      0.02690     0.00380     0.00365
 Rotational constants (GHZ):           0.56057     0.07922     0.07596
 Zero-point vibrational energy    1055566.6 (Joules/Mol)
                                  252.28648 (Kcal/Mol)
 Warning -- explicit consideration of  35 degrees of freedom as
           vibrations may cause significant error
 Vibrational temperatures:     18.96    27.90    33.95    80.94    92.08
          (Kelvin)            113.52   148.34   164.63   188.71   199.23
                              226.24   246.28   253.74   315.30   329.47
                              344.26   384.79   422.44   434.73   464.79
                              491.51   497.86   514.42   549.58   600.42
                              626.78   631.01   641.34   673.59   678.45
                              686.87   725.54   748.41   797.41   866.75
                              918.63   982.75   999.00  1014.75  1034.04
                             1054.08  1058.90  1100.26  1109.03  1135.70
                             1141.65  1171.03  1200.57  1218.33  1261.42
                             1277.86  1287.01  1328.40  1335.00  1380.53
                             1409.28  1410.14  1461.54  1468.93  1495.57
                             1499.08  1518.21  1535.70  1545.57  1572.67
                             1586.18  1590.13  1598.24  1636.21  1680.41
                             1689.24  1706.98  1724.87  1733.88  1743.61
                             1776.63  1800.04  1815.75  1838.62  1842.32
                             1850.42  1854.04  1886.63  1904.36  1917.48
                             1927.90  1935.02  1958.99  1961.23  1965.07
                             1972.80  1979.33  1983.06  1998.86  2006.95
                             2041.40  2100.76  2103.71  2120.47  2127.58
                             2135.03  2136.46  2138.00  2141.94  2146.09
                             2146.70  2158.93  2167.22  2170.38  2198.00
                             2214.86  2276.62  2339.08  2364.79  4263.61
                             4284.68  4290.09  4299.94  4302.28  4303.39
                             4305.86  4310.97  4332.20  4337.88  4353.60
                             4357.60  4359.93  4367.18  4374.10  4375.33
                             4387.41  4411.50  4423.17  4464.23  4556.11
                             4583.14  4612.00  5015.65

 Zero-point correction=                           0.402044 (Hartree/Particle)
 Thermal correction to Energy=                    0.424357
 Thermal correction to Enthalpy=                  0.425301
 Thermal correction to Gibbs Free Energy=         0.347532
 Sum of electronic and zero-point Energies=          -1077.464391
 Sum of electronic and thermal Energies=             -1077.442078
 Sum of electronic and thermal Enthalpies=           -1077.441133
 Sum of electronic and thermal Free Energies=        -1077.518902

                     E (Thermal)             CV                S
                      KCal/Mol        Cal/Mol-Kelvin    Cal/Mol-Kelvin
 Total                  266.288             86.809            163.679
 Electronic               0.000              0.000              1.377
 Translational            0.889              2.981             43.260
 Rotational               0.889              2.981             35.809
 Vibrational            264.511             80.847             83.232
 Vibration     1          0.593              1.987              7.463
 Vibration     2          0.593              1.986              6.695
 Vibration     3          0.593              1.985              6.306
 Vibration     4          0.596              1.975              4.584
 Vibration     5          0.597              1.971              4.330
 Vibration     6          0.600              1.963              3.918
 Vibration     7          0.605              1.947              3.395
 Vibration     8          0.607              1.937              3.192
 Vibration     9          0.612              1.922              2.929
 Vibration    10          0.614              1.915              2.825
 Vibration    11          0.621              1.895              2.583
 Vibration    12          0.626              1.878              2.423
 Vibration    13          0.628              1.871              2.367
 Vibration    14          0.647              1.812              1.966
 Vibration    15          0.652              1.797              1.887
 Vibration    16          0.657              1.780              1.808
 Vibration    17          0.673              1.733              1.613
 Vibration    18          0.688              1.686              1.453
 Vibration    19          0.694              1.670              1.405
 Vibration    20          0.708              1.629              1.295
 Vibration    21          0.721              1.592              1.205
 Vibration    22          0.724              1.583              1.184
 Vibration    23          0.733              1.560              1.133
 Vibration    24          0.751              1.509              1.031
 Vibration    25          0.780              1.433              0.901
 Vibration    26          0.796              1.393              0.840
 Vibration    27          0.799              1.386              0.831
 Vibration    28          0.805              1.370              0.809
 Vibration    29          0.825              1.321              0.743
 Vibration    30          0.828              1.313              0.733
 Vibration    31          0.834              1.300              0.717
 Vibration    32          0.860              1.241              0.648
 Vibration    33          0.875              1.205              0.610
 Vibration    34          0.910              1.130              0.535
 Vibration    35          0.961              1.027              0.446

                           ! Non-Optimized Parameters !
 Normal termination of Gaussian 16 at Fri Dec 29 04:42:47 2023.
