 Gaussian 16, Revision A.03,
 Gaussian 16:  ES64L-G16RevA.03 25-Dec-2016

 ----------------------------------------------------------------------
 #P UB3LYP/6-311++G(d,p) nosym opt freq SCRF=(PCM,Solvent=n,n-DiMethylF
 ormamide)
 ----------------------------------------------------------------------

 --------
 Oxidized
 --------
 Symbolic Z-matrix:
 Charge =  0 Multiplicity = 1

 SCF Done:  E(UB3LYP) =  -696.164542127     A.U. after   13 cycles
 SCF Done:  E(UB3LYP) =  -696.164598974     A.U. after   10 cycles
 SCF Done:  E(UB3LYP) =  -696.164585526     A.U. after   11 cycles
 SCF Done:  E(UB3LYP) =  -696.164449668     A.U. after   11 cycles
 SCF Done:  E(UB3LYP) =  -696.164614537     A.U. after   11 cycles
 SCF Done:  E(UB3LYP) =  -696.164623941     A.U. after   10 cycles
 SCF Done:  E(UB3LYP) =  -696.164624089     A.U. after    8 cycles
 SCF Done:  E(UB3LYP) =  -696.164624180     A.U. after    7 cycles
 SCF Done:  E(UB3LYP) =  -696.164624104     A.U. after    9 cycles
 SCF Done:  E(UB3LYP) =  -696.164624376     A.U. after    8 cycles
 Optimization completed.
    -- Stationary point found.
 Normal termination of Gaussian 16 at Sat Feb 10 11:18:26 2024.

 ----------------------------------------------------------------------
 #P Geom=AllCheck Guess=TCheck SCRF=Check GenChk UB3LYP/6-311++G(d,p) F
 req
 ----------------------------------------------------------------------

 Structure from the checkpoint file:  "046.chk"
 --------
 Oxidized
 --------
 Charge =  0 Multiplicity = 1

                          Input orientation:
 ---------------------------------------------------------------------
 Center     Atomic      Atomic             Coordinates (Angstroms)
 Number     Number       Type             X           Y           Z
 ---------------------------------------------------------------------
      1          6           0        2.658479   -0.347413   -1.939417
      2          6           0        2.629707   -0.004265   -0.428389
      3          6           0        2.831021    1.518555   -0.222638
      4          6           0        3.816503   -0.727371    0.237790
      5          6           0        1.294750   -0.445596    0.186540
      6          6           0        1.215095   -1.352218    1.177556
      7          6           0       -0.062865   -1.775164    1.768754
      8          8           0       -0.092314   -2.608247    2.673382
      9          6           0       -1.304727   -1.178693    1.255370
     10          6           0       -1.320148   -0.265389    0.267428
     11          6           0        0.005120    0.154149   -0.332321
     12          8           0        0.033755    0.975871   -1.234546
     13          6           0       -2.617224    0.357406   -0.266192
     14          6           0       -2.786346    0.025069   -1.770383
     15          6           0       -3.848503   -0.196764    0.476719
     16          6           0       -2.594245    1.892950   -0.057897
     17          1           0        3.633967   -0.073483   -2.351182
     18          1           0        2.518537   -1.420973   -2.095932
     19          1           0        1.889169    0.188722   -2.492183
     20          1           0        2.064997    2.101490   -0.730896
     21          1           0        3.807137    1.809017   -0.621356
     22          1           0        2.815266    1.771477    0.841518
     23          1           0        3.761901   -1.811628    0.108190
     24          1           0        3.882938   -0.508798    1.306995
     25          1           0        4.744454   -0.386134   -0.226972
     26          1           0        2.089655   -1.827142    1.601904
     27          1           0       -2.208335   -1.531166    1.734667
     28          1           0       -3.737607    0.433074   -2.123656
     29          1           0       -2.806916   -1.057176   -1.928272
     30          1           0       -1.985223    0.450102   -2.372419
     31          1           0       -3.816422    0.024505    1.546974
     32          1           0       -4.747489    0.272033    0.069799
     33          1           0       -3.953282   -1.277531    0.348977
     34          1           0       -3.545139    2.315180   -0.395058
     35          1           0       -2.475643    2.138887    1.001380
     36          1           0       -1.790024    2.366666   -0.618030
 ---------------------------------------------------------------------

 SCF Done:  E(UB3LYP) =  -696.164624376     A.U. after    1 cycles

 Alpha  occ. eigenvalues --  -19.13969 -19.13615 -10.28887 -10.27998 -10.21749
 Alpha  occ. eigenvalues --  -10.21747 -10.20398 -10.20397 -10.19944 -10.19944
 Alpha  occ. eigenvalues --  -10.16246 -10.16244 -10.16019 -10.16017 -10.16017
 Alpha  occ. eigenvalues --  -10.16016  -1.07400  -1.06258  -0.87063  -0.84593
 Alpha  occ. eigenvalues --   -0.80846  -0.76551  -0.70497  -0.69357  -0.69060
 Alpha  occ. eigenvalues --   -0.69013  -0.68789  -0.64150  -0.61251  -0.55929
 Alpha  occ. eigenvalues --   -0.54514  -0.52464  -0.50618  -0.48004  -0.47641
 Alpha  occ. eigenvalues --   -0.45789  -0.44995  -0.44808  -0.44578  -0.44110
 Alpha  occ. eigenvalues --   -0.43500  -0.42164  -0.41725  -0.40734  -0.39654
 Alpha  occ. eigenvalues --   -0.38746  -0.38397  -0.38172  -0.37060  -0.36806
 Alpha  occ. eigenvalues --   -0.35771  -0.35709  -0.34449  -0.34272  -0.34195
 Alpha  occ. eigenvalues --   -0.33417  -0.30142  -0.28532  -0.28354  -0.26940
 Alpha virt. eigenvalues --   -0.13141  -0.02398  -0.00907  -0.00571   0.00057
 Alpha virt. eigenvalues --    0.00984   0.01520   0.01858   0.02188   0.02725
 Alpha virt. eigenvalues --    0.03252   0.03285   0.03852   0.04012   0.04881

  Beta  occ. eigenvalues --  -19.13969 -19.13615 -10.28887 -10.27998 -10.21749
  Beta  occ. eigenvalues --  -10.21747 -10.20398 -10.20397 -10.19944 -10.19944
  Beta  occ. eigenvalues --  -10.16246 -10.16244 -10.16019 -10.16017 -10.16017
  Beta  occ. eigenvalues --  -10.16016  -1.07400  -1.06258  -0.87063  -0.84593
  Beta  occ. eigenvalues --   -0.80846  -0.76551  -0.70497  -0.69357  -0.69060
  Beta  occ. eigenvalues --   -0.69013  -0.68789  -0.64150  -0.61251  -0.55929
  Beta  occ. eigenvalues --   -0.54514  -0.52464  -0.50618  -0.48004  -0.47641
  Beta  occ. eigenvalues --   -0.45789  -0.44995  -0.44808  -0.44578  -0.44110
  Beta  occ. eigenvalues --   -0.43500  -0.42164  -0.41725  -0.40734  -0.39654
  Beta  occ. eigenvalues --   -0.38746  -0.38397  -0.38172  -0.37060  -0.36806
  Beta  occ. eigenvalues --   -0.35771  -0.35709  -0.34449  -0.34272  -0.34195
  Beta  occ. eigenvalues --   -0.33417  -0.30142  -0.28532  -0.28354  -0.26940
  Beta virt. eigenvalues --   -0.13141  -0.02398  -0.00907  -0.00571   0.00057
  Beta virt. eigenvalues --    0.00984   0.01520   0.01858   0.02188   0.02725
  Beta virt. eigenvalues --    0.03252   0.03285   0.03852   0.04012   0.04881

 Mulliken charges and spin densities:
               1          2
     1  C   -0.705743   0.000000
     2  C    0.669330  -0.000000
     3  C   -0.706569  -0.000000
     4  C   -0.450972   0.000000
     5  C    0.732988   0.000000
     6  C   -0.271496   0.000000
     7  C   -0.633637  -0.000000
     8  O   -0.305190   0.000000
     9  C   -0.271411  -0.000000
    10  C    0.732130   0.000000
    11  C   -0.795316  -0.000000
    12  O   -0.185833   0.000000
    13  C    0.668909  -0.000000
    14  C   -0.706106  -0.000000
    15  C   -0.450810   0.000000
    16  C   -0.706109   0.000000
    17  H    0.167638   0.000000
    18  H    0.153361   0.000000
    19  H    0.175004   0.000000
    20  H    0.174794   0.000000
    21  H    0.167473   0.000000
    22  H    0.153303   0.000000
    23  H    0.140571  -0.000000
    24  H    0.140731  -0.000000
    25  H    0.181430   0.000000
    26  H    0.238582   0.000000
    27  H    0.238726   0.000000
    28  H    0.167547   0.000000
    29  H    0.153361  -0.000000
    30  H    0.175001   0.000000
    31  H    0.140632  -0.000000
    32  H    0.181475   0.000000
    33  H    0.140575   0.000000
    34  H    0.167467   0.000000
    35  H    0.153386  -0.000000
    36  H    0.174777   0.000000
 Sum of Mulliken charges =  -0.00000  -0.00000

 Dipole moment (field-independent basis, Debye):
    X=              0.0557    Y=              1.5462    Z=             -1.6498  Tot=              2.2618
 Quadrupole moment (field-independent basis, Debye-Ang):
   XX=            -86.1209   YY=           -110.0346   ZZ=           -111.6025
   XY=             -1.2762   XZ=              0.0181   YZ=             11.8404

  Exact polarizability: 232.558  -1.896 232.722  -3.926 -61.316 242.900
 Approx polarizability: 230.397   0.496 280.342  -4.514 -95.126 296.445

                      1                      2                      3
                      A                      A                      A
 Frequencies --     20.1459                60.7712                80.1185
 Red. masses --      3.8991                 2.7175                 4.6417
 Frc consts  --      0.0009                 0.0059                 0.0176
 IR Inten    --      3.7195                 0.0001                 0.0888

                      4                      5                      6
                      A                      A                      A
 Frequencies --    134.8832               138.9126               147.7675
 Red. masses --      2.8615                 4.4770                 3.7230
 Frc consts  --      0.0307                 0.0509                 0.0479
 IR Inten    --      0.1348                13.7482                 0.4899

                      7                      8                      9
                      A                      A                      A
 Frequencies --    200.5491               210.8750               233.2753
 Red. masses --      1.3500                 1.1821                 1.8228
 Frc consts  --      0.0320                 0.0310                 0.0584
 IR Inten    --      1.8284                 0.0022                 0.0214

                     10                     11                     12
                      A                      A                      A
 Frequencies --    238.9043               246.6331               266.5655
 Red. masses --      1.1170                 1.5508                 2.4192
 Frc consts  --      0.0376                 0.0556                 0.1013
 IR Inten    --      0.1769                 0.0787                 0.1314

                     13                     14                     15
                      A                      A                      A
 Frequencies --    270.9123               279.6599               282.9537
 Red. masses --      3.4520                 3.0324                 2.5167
 Frc consts  --      0.1493                 0.1397                 0.1187
 IR Inten    --      0.7616                 0.1385                 0.0012

                     16                     17                     18
                      A                      A                      A
 Frequencies --    309.4228               333.6638               337.0067
 Red. masses --      2.3810                 1.0925                 1.0586
 Frc consts  --      0.1343                 0.0717                 0.0708
 IR Inten    --      0.0010                 0.0542                 0.0016

                     19                     20                     21
                      A                      A                      A
 Frequencies --    357.1415               372.8556               389.3905
 Red. masses --      4.4165                 2.1834                 2.1916
 Frc consts  --      0.3319                 0.1788                 0.1958
 IR Inten    --      9.6195                 0.8350                 0.0011

                     22                     23                     24
                      A                      A                      A
 Frequencies --    398.7544               430.2437               448.1474
 Red. masses --      2.7215                 2.7013                 3.2997
 Frc consts  --      0.2550                 0.2946                 0.3904
 IR Inten    --      1.1307                 0.5998                 0.0529

                     25                     26                     27
                      A                      A                      A
 Frequencies --    460.9624               466.6586               504.8814
 Red. masses --      5.5790                 7.6320                 2.8903
 Frc consts  --      0.6984                 0.9792                 0.4341
 IR Inten    --     44.2332                 0.2022                 0.0205

                     28                     29                     30
                      A                      A                      A
 Frequencies --    558.4383               589.9834               675.2347
 Red. masses --      2.8902                 3.9916                 4.8370
 Frc consts  --      0.5310                 0.8186                 1.2994
 IR Inten    --      1.1788                 0.0009                 0.0879

                     31                     32                     33
                      A                      A                      A
 Frequencies --    700.6559               736.6458               787.7157
 Red. masses --      3.9353                 4.9105                 5.3288
 Frc consts  --      1.1383                 1.5700                 1.9481
 IR Inten    --      4.1834                 7.2366                 0.6337

                     34                     35                     36
                      A                      A                      A
 Frequencies --    806.8354               838.0975               877.0951
 Red. masses --      3.3409                 8.3361                 2.5671
 Frc consts  --      1.2814                 3.4499                 1.1635
 IR Inten    --      1.2572                10.7834                62.1124

                     37                     38                     39
                      A                      A                      A
 Frequencies --    895.9894               925.1696               928.0235
 Red. masses --      1.4698                 3.0630                 1.8662
 Frc consts  --      0.6952                 1.5447                 0.9469
 IR Inten    --      0.0083                 2.3168                 6.3691

                     40                     41                     42
                      A                      A                      A
 Frequencies --    933.5489               935.8888               938.2673
 Red. masses --      1.6818                 1.7279                 1.8714
 Frc consts  --      0.8636                 0.8917                 0.9707
 IR Inten    --      0.0942                 7.4503                 0.4854

                     43                     44                     45
                      A                      A                      A
 Frequencies --    944.1301               963.4217               964.2856
 Red. masses --      1.5270                 1.1962                 1.1961
 Frc consts  --      0.8020                 0.6542                 0.6553
 IR Inten    --     63.6904                 0.0258                 0.0516

                     46                     47                     48
                      A                      A                      A
 Frequencies --   1038.2611              1045.3175              1046.7837
 Red. masses --      1.7143                 1.3749                 1.3884
 Frc consts  --      1.0888                 0.8852                 0.8963
 IR Inten    --     51.9483                 0.0192                 0.1016

                     49                     50                     51
                      A                      A                      A
 Frequencies --   1047.1383              1080.7690              1167.9722
 Red. masses --      1.3794                 2.1837                 2.4766
 Frc consts  --      0.8912                 1.5029                 1.9906
 IR Inten    --      1.2564                85.4047                59.6500

                     52                     53                     54
                      A                      A                      A
 Frequencies --   1213.1831              1214.0203              1221.1116
 Red. masses --      2.6940                 2.7106                 2.8863
 Frc consts  --      2.3361                 2.3538                 2.5357
 IR Inten    --      0.1870                11.1864                10.8138

                     55                     56                     57
                      A                      A                      A
 Frequencies --   1221.7654              1258.4828              1269.0959
 Red. masses --      2.3985                 2.4781                 2.5569
 Frc consts  --      2.1094                 2.3124                 2.4263
 IR Inten    --      1.0524               106.4972                 0.0427

                     58                     59                     60
                      A                      A                      A
 Frequencies --   1325.7355              1330.9994              1351.5900
 Red. masses --      3.5810                 1.6561                 2.5163
 Frc consts  --      3.7082                 1.7286                 2.7084
 IR Inten    --    177.9948                18.4309                 1.0408

                     61                     62                     63
                      A                      A                      A
 Frequencies --   1386.8132              1386.9956              1393.5547
 Red. masses --      1.1965                 1.1964                 1.2218
 Frc consts  --      1.3558                 1.3560                 1.3980
 IR Inten    --      0.8196                19.1258                26.8891

                     64                     65                     66
                      A                      A                      A
 Frequencies --   1393.9401              1420.7913              1421.0337
 Red. masses --      1.2410                 1.2176                 1.2205
 Frc consts  --      1.4207                 1.4481                 1.4520
 IR Inten    --      4.6814                 1.5279                11.2717

                     67                     68                     69
                      A                      A                      A
 Frequencies --   1474.7314              1475.0845              1489.2411
 Red. masses --      1.0465                 1.0463                 1.0470
 Frc consts  --      1.3409                 1.3414                 1.3682
 IR Inten    --      0.0081                 0.0268                 0.5438

                     70                     71                     72
                      A                      A                      A
 Frequencies --   1489.3722              1489.6979              1489.8205
 Red. masses --      1.0470                 1.0466                 1.0460
 Frc consts  --      1.3684                 1.3684                 1.3679
 IR Inten    --      1.1282                 1.6845                 1.3410

                     73                     74                     75
                      A                      A                      A
 Frequencies --   1491.4444              1491.8386              1502.9830
 Red. masses --      1.0522                 1.0533                 1.0487
 Frc consts  --      1.3790                 1.3812                 1.3957
 IR Inten    --     21.4474                25.8809                 7.5398

                     76                     77                     78
                      A                      A                      A
 Frequencies --   1503.4454              1517.6337              1517.8797
 Red. masses --      1.0487                 1.0592                 1.0606
 Frc consts  --      1.3966                 1.4374                 1.4397
 IR Inten    --     18.2230                30.2805                24.3036

                     79                     80                     81
                      A                      A                      A
 Frequencies --   1637.3792              1660.8310              1686.5596
 Red. masses --      8.2850                12.2109                 8.5353
 Frc consts  --     13.0870                19.8450                14.3045
 IR Inten    --    105.3222               269.2558               930.7547

                     82                     83                     84
                      A                      A                      A
 Frequencies --   1704.8981              3023.8773              3023.9471
 Red. masses --      9.9405                 1.0357                 1.0357
 Frc consts  --     17.0238                 5.5795                 5.5798
 IR Inten    --     34.6484                14.0239                38.2922

                     85                     86                     87
                      A                      A                      A
 Frequencies --   3025.9302              3026.0226              3031.7116
 Red. masses --      1.0380                 1.0380                 1.0386
 Frc consts  --      5.5998                 5.6001                 5.6242
 IR Inten    --     25.2977               105.0837                75.7396

                     88                     89                     90
                      A                      A                      A
 Frequencies --   3032.0617              3083.1912              3083.2415
 Red. masses --      1.0386                 1.1024                 1.1024
 Frc consts  --      5.6256                 6.1745                 6.1747
 IR Inten    --      5.9148                 2.4544                30.8027

                     91                     92                     93
                      A                      A                      A
 Frequencies --   3083.9778              3084.1413              3090.9675
 Red. masses --      1.1019                 1.1019                 1.1026
 Frc consts  --      6.1749                 6.1756                 6.2065
 IR Inten    --     40.1813                40.9488                15.6521

                     94                     95                     96
                      A                      A                      A
 Frequencies --   3091.0087              3095.6374              3095.8041
 Red. masses --      1.1026                 1.1010                 1.1009
 Frc consts  --      6.2066                 6.2166                 6.2167
 IR Inten    --     97.1402                75.4739                85.5337

                     97                     98                     99
                      A                      A                      A
 Frequencies --   3133.9330              3134.1694              3135.9269
 Red. masses --      1.0982                 1.0982                 1.0977
 Frc consts  --      6.3552                 6.3559                 6.3599
 IR Inten    --      0.5509                 0.3529                40.8066

                    100                    101                    102
                      A                      A                      A
 Frequencies --   3136.2936              3206.1151              3207.8071
 Red. masses --      1.0976                 1.0906                 1.0911
 Frc consts  --      6.3613                 6.6052                 6.6149
 IR Inten    --     36.0627                 3.0188                 4.6183

 - Thermochemistry -
 -------------------
 Temperature   298.150 Kelvin.  Pressure   1.00000 Atm.
 Atom     1 has atomic number  6 and mass  12.00000

 Molecular mass:   220.14633 amu.
 Principal axes and moments of inertia in atomic units:
                           1         2         3
     Eigenvalues --  2336.822454584.511686112.85506
           X            0.99716  -0.02393   0.07144
           Y           -0.06875  -0.67696   0.73281
           Z           -0.03083   0.73563   0.67668
 This molecule is an asymmetric top.
 Rotational symmetry number  1.
 Warning -- assumption of classical behavior for rotation
           may cause significant error
 Rotational temperatures (Kelvin)      0.03706     0.01889     0.01417
 Rotational constants (GHZ):           0.77231     0.39366     0.29524
 Zero-point vibrational energy     809306.3 (Joules/Mol)
                                  193.42884 (Kcal/Mol)
 Warning -- explicit consideration of  29 degrees of freedom as
           vibrations may cause significant error
 Vibrational temperatures:     28.99    87.44   115.27   194.07   199.86
          (Kelvin)            212.60   288.55   303.40   335.63   343.73
                              354.85   383.53   389.78   402.37   407.11
                              445.19   480.07   484.88   513.85   536.46
                              560.25   573.72   619.02   644.78   663.22
                              671.42   726.41   803.47   848.85   971.51
                             1008.09  1059.87  1133.35  1160.86  1205.84
                             1261.94  1289.13  1331.11  1335.22  1343.17
                             1346.54  1349.96  1358.39  1386.15  1387.39
                             1493.83  1503.98  1506.09  1506.60  1554.99
                             1680.45  1745.50  1746.70  1756.91  1757.85
                             1810.68  1825.95  1907.44  1915.01  1944.64
                             1995.31  1995.58  2005.01  2005.57  2044.20
                             2044.55  2121.81  2122.32  2142.69  2142.87
                             2143.34  2143.52  2145.86  2146.42  2162.46
                             2163.12  2183.54  2183.89  2355.82  2389.57
                             2426.58  2452.97  4350.68  4350.79  4353.64
                             4353.77  4361.96  4362.46  4436.02  4436.10
                             4437.16  4437.39  4447.21  4447.27  4453.93
                             4454.17  4509.03  4509.37  4511.90  4512.43
                             4612.88  4615.32

 Zero-point correction=                           0.308248 (Hartree/Particle)
 Thermal correction to Energy=                    0.325515
 Thermal correction to Enthalpy=                  0.326459
 Thermal correction to Gibbs Free Energy=         0.264525
 Sum of electronic and zero-point Energies=           -695.856376
 Sum of electronic and thermal Energies=              -695.839109
 Sum of electronic and thermal Enthalpies=            -695.838165
 Sum of electronic and thermal Free Energies=         -695.900099

                     E (Thermal)             CV                S
                      KCal/Mol        Cal/Mol-Kelvin    Cal/Mol-Kelvin
 Total                  204.264             67.305            130.352
 Electronic               0.000              0.000              0.000
 Translational            0.889              2.981             42.070
 Rotational               0.889              2.981             32.549
 Vibrational            202.486             61.343             55.733
 Vibration     1          0.593              1.986              6.620
 Vibration     2          0.597              1.973              4.432
 Vibration     3          0.600              1.963              3.888
 Vibration     4          0.613              1.919              2.875
 Vibration     5          0.615              1.914              2.819
 Vibration     6          0.617              1.905              2.701
 Vibration     7          0.638              1.839              2.128
 Vibration     8          0.643              1.824              2.036
 Vibration     9          0.654              1.790              1.854
 Vibration    10          0.657              1.781              1.811
 Vibration    11          0.661              1.768              1.755
 Vibration    12          0.672              1.734              1.618
 Vibration    13          0.675              1.727              1.590
 Vibration    14          0.680              1.711              1.536
 Vibration    15          0.682              1.705              1.516
 Vibration    16          0.699              1.656              1.365
 Vibration    17          0.715              1.608              1.242
 Vibration    18          0.718              1.602              1.226
 Vibration    19          0.732              1.561              1.135
 Vibration    20          0.744              1.528              1.068
 Vibration    21          0.757              1.493              1.002
 Vibration    22          0.765              1.473              0.967
 Vibration    23          0.791              1.404              0.858
 Vibration    24          0.807              1.365              0.801
 Vibration    25          0.819              1.337              0.763
 Vibration    26          0.824              1.324              0.747
 Vibration    27          0.860              1.239              0.646
 Vibration    28          0.914              1.121              0.527
 Vibration    29          0.947              1.053              0.467

                           ! Non-Optimized Parameters !
 Normal termination of Gaussian 16 at Sat Feb 10 13:02:26 2024.
