 Gaussian 16, Revision A.03,
 Gaussian 16:  ES64L-G16RevA.03 25-Dec-2016

 --------------------------------------
 #P UB3LYP/6-311++G(d,p) nosym opt freq
 --------------------------------------

 --------
 Oxidized
 --------
 Symbolic Z-matrix:
 Charge =  0 Multiplicity = 1

 SCF Done:  E(UB3LYP) =  -690.094032199     A.U. after   15 cycles
 SCF Done:  E(UB3LYP) =  -690.121069541     A.U. after   14 cycles
 SCF Done:  E(UB3LYP) =  -690.125632994     A.U. after   14 cycles
 SCF Done:  E(UB3LYP) =  -690.128467390     A.U. after   13 cycles
 SCF Done:  E(UB3LYP) =  -690.128707988     A.U. after   13 cycles
 SCF Done:  E(UB3LYP) =  -690.128898987     A.U. after   12 cycles
 SCF Done:  E(UB3LYP) =  -690.128908508     A.U. after   10 cycles
 SCF Done:  E(UB3LYP) =  -690.128908931     A.U. after    9 cycles
 SCF Done:  E(UB3LYP) =  -690.128909344     A.U. after   10 cycles
 SCF Done:  E(UB3LYP) =  -690.128564396     A.U. after   16 cycles
 SCF Done:  E(UB3LYP) =  -690.135099136     A.U. after   15 cycles
 SCF Done:  E(UB3LYP) =  -690.135608496     A.U. after   16 cycles
 SCF Done:  E(UB3LYP) =  -690.135875163     A.U. after   13 cycles
 SCF Done:  E(UB3LYP) =  -690.135936097     A.U. after   12 cycles
 SCF Done:  E(UB3LYP) =  -690.135944132     A.U. after   12 cycles
 SCF Done:  E(UB3LYP) =  -690.135945453     A.U. after   11 cycles
 SCF Done:  E(UB3LYP) =  -690.135945997     A.U. after   11 cycles
 SCF Done:  E(UB3LYP) =  -690.135946139     A.U. after   10 cycles
 SCF Done:  E(UB3LYP) =  -690.135946177     A.U. after    9 cycles
 Optimization completed.
    -- Stationary point found.
 Normal termination of Gaussian 16 at Sat Jan  6 04:45:27 2024.

 ----------------------------------------------------------------------
 #P Geom=AllCheck Guess=TCheck SCRF=Check GenChk UB3LYP/6-311++G(d,p) F
 req
 ----------------------------------------------------------------------

 Structure from the checkpoint file:  "346.chk"
 --------
 Oxidized
 --------
 Charge =  0 Multiplicity = 1

                          Input orientation:
 ---------------------------------------------------------------------
 Center     Atomic      Atomic             Coordinates (Angstroms)
 Number     Number       Type             X           Y           Z
 ---------------------------------------------------------------------
      1          8           0       -0.131790    0.072906    2.236650
      2          6           0       -0.490445    0.356786    1.108639
      3          6           0       -1.834141    0.013772    0.572159
      4          6           0       -2.729147   -0.664785    1.413524
      5          6           0       -3.982986   -1.035969    0.947560
      6          6           0       -4.355669   -0.737521   -0.365419
      7          6           0       -3.471660   -0.066589   -1.208527
      8          6           0       -2.214547    0.310614   -0.744097
      9          6           0        0.483237    1.179961    0.238807
     10          8           0        0.120301    2.286735   -0.114713
     11          6           0        1.831231    0.630783   -0.065065
     12          6           0        2.724231    1.433421   -0.791519
     13          6           0        3.981955    0.952361   -1.128745
     14          6           0        4.360634   -0.337401   -0.747999
     15          6           0        3.478746   -1.142085   -0.028824
     16          6           0        2.217715   -0.662257    0.314495
     17          1           0       -2.419572   -0.888629    2.427194
     18          1           0       -4.672152   -1.557095    1.602184
     19          1           0       -5.335166   -1.027722   -0.729030
     20          1           0       -3.762814    0.167952   -2.225809
     21          1           0       -1.540465    0.847775   -1.398479
     22          1           0        2.409978    2.429432   -1.079036
     23          1           0        4.669500    1.577196   -1.687253
     24          1           0        5.343130   -0.712852   -1.011788
     25          1           0        3.774591   -2.141125    0.269602
     26          1           0        1.545305   -1.285666    0.889274
 ---------------------------------------------------------------------

 SCF Done:  E(UB3LYP) =  -690.135946177     A.U. after    1 cycles

 Alpha  occ. eigenvalues --  -19.13408 -19.13407 -10.27985 -10.27964 -10.20286
 Alpha  occ. eigenvalues --  -10.20285 -10.19926 -10.19925 -10.19922 -10.19922
 Alpha  occ. eigenvalues --  -10.19546 -10.19545 -10.19414 -10.19413 -10.19399
 Alpha  occ. eigenvalues --  -10.19398  -1.07675  -1.05723  -0.88040  -0.88024
 Alpha  occ. eigenvalues --   -0.78763  -0.78169  -0.76967  -0.76906  -0.69439
 Alpha  occ. eigenvalues --   -0.65108  -0.63210  -0.62587  -0.60328  -0.56721
 Alpha  occ. eigenvalues --   -0.54544  -0.51283  -0.49941  -0.48003  -0.47497
 Alpha  occ. eigenvalues --   -0.46576  -0.46114  -0.46050  -0.44568  -0.44398
 Alpha  occ. eigenvalues --   -0.43991  -0.42246  -0.41084  -0.38224  -0.38137
 Alpha  occ. eigenvalues --   -0.37878  -0.37465  -0.36454  -0.36442  -0.32011
 Alpha  occ. eigenvalues --   -0.28235  -0.27634  -0.27566  -0.27539  -0.25036
 Alpha virt. eigenvalues --   -0.09501  -0.07272  -0.03147  -0.03040  -0.01143
 Alpha virt. eigenvalues --   -0.00714   0.00213   0.00696   0.01082   0.01459
 Alpha virt. eigenvalues --    0.02623   0.02894   0.03600   0.03817   0.04337

  Beta  occ. eigenvalues --  -19.13408 -19.13407 -10.27985 -10.27964 -10.20286
  Beta  occ. eigenvalues --  -10.20285 -10.19926 -10.19925 -10.19922 -10.19922
  Beta  occ. eigenvalues --  -10.19546 -10.19545 -10.19414 -10.19413 -10.19399
  Beta  occ. eigenvalues --  -10.19398  -1.07675  -1.05723  -0.88040  -0.88024
  Beta  occ. eigenvalues --   -0.78763  -0.78169  -0.76967  -0.76906  -0.69439
  Beta  occ. eigenvalues --   -0.65108  -0.63210  -0.62587  -0.60328  -0.56721
  Beta  occ. eigenvalues --   -0.54544  -0.51283  -0.49941  -0.48003  -0.47497
  Beta  occ. eigenvalues --   -0.46576  -0.46114  -0.46050  -0.44568  -0.44398
  Beta  occ. eigenvalues --   -0.43991  -0.42246  -0.41084  -0.38224  -0.38137
  Beta  occ. eigenvalues --   -0.37878  -0.37465  -0.36454  -0.36442  -0.32011
  Beta  occ. eigenvalues --   -0.28235  -0.27634  -0.27566  -0.27539  -0.25036
  Beta virt. eigenvalues --   -0.09501  -0.07272  -0.03147  -0.03040  -0.01143
  Beta virt. eigenvalues --   -0.00714   0.00213   0.00696   0.01082   0.01459
  Beta virt. eigenvalues --    0.02623   0.02894   0.03600   0.03817   0.04337

 Mulliken charges and spin densities:
               1          2
     1  O   -0.198988  -0.000000
     2  C   -0.267004   0.000000
     3  C    1.274008   0.000000
     4  C    0.462887  -0.000000
     5  C   -0.452171  -0.000000
     6  C   -0.242351   0.000000
     7  C   -0.493814   0.000000
     8  C   -0.964775  -0.000000
     9  C   -0.269044   0.000000
    10  O   -0.198934   0.000000
    11  C    1.274782  -0.000000
    12  C    0.461425   0.000000
    13  C   -0.453201  -0.000000
    14  C   -0.242342   0.000000
    15  C   -0.494983  -0.000000
    16  C   -0.961829  -0.000000
    17  H    0.205337   0.000000
    18  H    0.176051  -0.000000
    19  H    0.160279   0.000000
    20  H    0.188141   0.000000
    21  H    0.153250  -0.000000
    22  H    0.205362  -0.000000
    23  H    0.176066  -0.000000
    24  H    0.160271   0.000000
    25  H    0.188161  -0.000000
    26  H    0.153418  -0.000000
 Sum of Mulliken charges =  -0.00000  -0.00000

 Dipole moment (field-independent basis, Debye):
    X=              0.0125    Y=             -2.5009    Z=             -2.3552  Tot=              3.4354
 Quadrupole moment (field-independent basis, Debye-Ang):
   XX=            -70.1557   YY=            -96.1433   ZZ=            -95.4037
   XY=              2.9002   XZ=             -2.9437   YZ=             -4.0817

  Exact polarizability: 233.330   8.073 137.085  -8.059 -20.095 139.554
 Approx polarizability: 322.662   1.697 240.514  -1.284 -45.387 246.224

                      1                      2                      3
                      A                      A                      A
 Frequencies --     24.3246                33.8827                36.5885
 Red. masses --      6.6213                 3.6947                 4.4007
 Frc consts  --      0.0023                 0.0025                 0.0035
 IR Inten    --      2.3715                 0.0508                 0.7055

                      4                      5                      6
                      A                      A                      A
 Frequencies --    128.0603               147.3411               156.2319
 Red. masses --      7.7186                 6.9208                 4.7756
 Frc consts  --      0.0746                 0.0885                 0.0687
 IR Inten    --      1.4149                 2.4357                 0.0049

                      7                      8                      9
                      A                      A                      A
 Frequencies --    158.0173               265.6231               277.7942
 Red. masses --      6.1305                 5.1562                 7.5601
 Frc consts  --      0.0902                 0.2143                 0.3437
 IR Inten    --      0.2662                 0.1321                32.4564

                     10                     11                     12
                      A                      A                      A
 Frequencies --    335.5502               407.6047               409.0407
 Red. masses --     10.0953                 3.0720                 2.8525
 Frc consts  --      0.6697                 0.3007                 0.2812
 IR Inten    --      3.5958                 0.0000                 0.0077

                     13                     14                     15
                      A                      A                      A
 Frequencies --    422.1610               432.4752               460.7961
 Red. masses --      5.0013                 5.2182                 4.8007
 Frc consts  --      0.5252                 0.5750                 0.6006
 IR Inten    --      0.0000                 0.4229                 3.4522

                     16                     17                     18
                      A                      A                      A
 Frequencies --    486.4986               630.2226               630.2463
 Red. masses --      4.6491                 6.4210                 6.4254
 Frc consts  --      0.6483                 1.5026                 1.5037
 IR Inten    --      6.7170                 1.3929                 0.0718

                     19                     20                     21
                      A                      A                      A
 Frequencies --    657.1583               697.0899               697.3097
 Red. masses --      7.6717                 2.1725                 2.7842
 Frc consts  --      1.9520                 0.6220                 0.7976
 IR Inten    --    108.0773                11.0613                15.0923

                     22                     23                     24
                      A                      A                      A
 Frequencies --    704.5663               729.5356               732.5943
 Red. masses --      2.7406                 3.4468                 1.8597
 Frc consts  --      0.8016                 1.0808                 0.5881
 IR Inten    --     51.7539                40.3528                37.5858

                     25                     26                     27
                      A                      A                      A
 Frequencies --    799.5994               817.2335               861.0173
 Red. masses --      2.5632                 3.9116                 1.2506
 Frc consts  --      0.9656                 1.5392                 0.5463
 IR Inten    --     16.0688                48.8425                 0.6933

                     28                     29                     30
                      A                      A                      A
 Frequencies --    861.2597               884.3037               955.3179
 Red. masses --      1.2507                 4.9348                 1.4034
 Frc consts  --      0.5466                 2.2736                 0.7546
 IR Inten    --      0.3579                89.7018                 1.3905

                     31                     32                     33
                      A                      A                      A
 Frequencies --    959.5117               999.0848               999.2340
 Red. masses --      1.5164                 1.3788                 1.3788
 Frc consts  --      0.8225                 0.8109                 0.8111
 IR Inten    --      1.6924                 0.3721                 0.4178

                     34                     35                     36
                      A                      A                      A
 Frequencies --   1013.8274              1013.9700              1015.8636
 Red. masses --      1.3222                 1.3352                 5.9981
 Frc consts  --      0.8007                 0.8088                 3.6470
 IR Inten    --      0.0018                 0.0785                 0.1419

                     37                     38                     39
                      A                      A                      A
 Frequencies --   1016.3470              1040.1175              1047.3109
 Red. masses --      5.7477                 3.8075                 2.1535
 Frc consts  --      3.4981                 2.4269                 1.3917
 IR Inten    --      4.0930                 0.8473                 6.0605

                     40                     41                     42
                      A                      A                      A
 Frequencies --   1064.7559              1106.9614              1107.4954
 Red. masses --      2.5216                 1.5672                 1.5832
 Frc consts  --      1.6843                 1.1315                 1.1441
 IR Inten    --      0.7617                 8.3402                 0.2721

                     43                     44                     45
                      A                      A                      A
 Frequencies --   1183.8794              1184.9535              1195.7220
 Red. masses --      1.1422                 1.1159                 1.3159
 Frc consts  --      0.9432                 0.9231                 1.1085
 IR Inten    --     23.7450                 0.4951               156.3510

                     46                     47                     48
                      A                      A                      A
 Frequencies --   1204.9955              1224.1880              1307.1028
 Red. masses --      1.1486                 2.7316                 4.6634
 Frc consts  --      0.9826                 2.4120                 4.6943
 IR Inten    --      1.4021               175.7794                25.8179

                     49                     50                     51
                      A                      A                      A
 Frequencies --   1337.4055              1342.5021              1355.9796
 Red. masses --      3.0020                 3.6353                 1.7603
 Frc consts  --      3.1636                 3.8603                 1.9069
 IR Inten    --     10.1216                11.4434                 0.0063

                     52                     53                     54
                      A                      A                      A
 Frequencies --   1356.1765              1477.8802              1478.6910
 Red. masses --      1.8248                 2.2110                 2.2465
 Frc consts  --      1.9774                 2.8453                 2.8941
 IR Inten    --      8.5489                34.1883                 0.3515

                     55                     56                     57
                      A                      A                      A
 Frequencies --   1520.1498              1520.3130              1616.8964
 Red. masses --      2.1793                 2.1357                 5.3944
 Frc consts  --      2.9672                 2.9085                 8.3091
 IR Inten    --      0.7473                 0.8939                18.7535

                     58                     59                     60
                      A                      A                      A
 Frequencies --   1616.9824              1635.8202              1636.4115
 Red. masses --      5.3662                 5.4877                 5.4026
 Frc consts  --      8.2667                 8.6519                 8.5239
 IR Inten    --      7.2461                20.8344                69.8458

                     61                     62                     63
                      A                      A                      A
 Frequencies --   1725.9517              1726.7176              3166.0112
 Red. masses --     12.8252                12.3681                 1.0861
 Frc consts  --     22.5098                21.7268                 6.4142
 IR Inten    --    300.3447               128.6448                 0.3195

                     64                     65                     66
                      A                      A                      A
 Frequencies --   3166.0321              3177.6751              3177.7339
 Red. masses --      1.0861                 1.0895                 1.0895
 Frc consts  --      6.4143                 6.4818                 6.4820
 IR Inten    --      0.2682                 9.2407                 9.1049

                     67                     68                     69
                      A                      A                      A
 Frequencies --   3187.1333              3187.2146              3197.5319
 Red. masses --      1.0938                 1.0938                 1.0943
 Frc consts  --      6.5463                 6.5464                 6.5922
 IR Inten    --     21.8836                 4.3151                18.5508

                     70                     71                     72
                      A                      A                      A
 Frequencies --   3197.6951              3205.4404              3205.5087
 Red. masses --      1.0944                 1.0937                 1.0936
 Frc consts  --      6.5935                 6.6208                 6.6209
 IR Inten    --      0.1640                 3.9242                 2.2161

 - Thermochemistry -
 -------------------
 Temperature   298.150 Kelvin.  Pressure   1.00000 Atm.
 Atom     1 has atomic number  8 and mass  15.99491

 Molecular mass:   210.06808 amu.
 Principal axes and moments of inertia in atomic units:
                           1         2         3
     Eigenvalues --  1365.113946559.799366858.22220
           X            0.98911   0.14715  -0.00359
           Y            0.10323  -0.67614   0.72950
           Z           -0.10492   0.72193   0.68397
 This molecule is an asymmetric top.
 Rotational symmetry number  1.
 Warning -- assumption of classical behavior for rotation
           may cause significant error
 Rotational temperatures (Kelvin)      0.06345     0.01320     0.01263
 Rotational constants (GHZ):           1.32204     0.27512     0.26315
 Zero-point vibrational energy     524805.4 (Joules/Mol)
                                  125.43151 (Kcal/Mol)
 Warning -- explicit consideration of  16 degrees of freedom as
           vibrations may cause significant error
 Vibrational temperatures:     35.00    48.75    52.64   184.25   211.99
          (Kelvin)            224.78   227.35   382.17   399.68   482.78
                              586.45   588.52   607.40   622.24   662.98
                              699.96   906.75   906.78   945.50  1002.96
                             1003.27  1013.71  1049.64  1054.04  1150.45
                             1175.82  1238.81  1239.16  1272.32  1374.49
                             1380.52  1437.46  1437.67  1458.67  1458.88
                             1461.60  1462.30  1496.50  1506.85  1531.95
                             1592.67  1593.44  1703.34  1704.88  1720.38
                             1733.72  1761.33  1880.63  1924.23  1931.56
                             1950.95  1951.24  2126.34  2127.51  2187.16
                             2187.39  2326.35  2326.48  2353.58  2354.43
                             2483.26  2484.36  4555.18  4555.21  4571.97
                             4572.05  4585.57  4585.69  4600.54  4600.77
                             4611.91  4612.01

 Zero-point correction=                           0.199888 (Hartree/Particle)
 Thermal correction to Energy=                    0.212785
 Thermal correction to Enthalpy=                  0.213729
 Thermal correction to Gibbs Free Energy=         0.158131
 Sum of electronic and zero-point Energies=           -689.936058
 Sum of electronic and thermal Energies=              -689.923161
 Sum of electronic and thermal Enthalpies=            -689.922217
 Sum of electronic and thermal Free Energies=         -689.977815

                     E (Thermal)             CV                S
                      KCal/Mol        Cal/Mol-Kelvin    Cal/Mol-Kelvin
 Total                  133.525             49.532            117.016
 Electronic               0.000              0.000              0.000
 Translational            0.889              2.981             41.931
 Rotational               0.889              2.981             32.485
 Vibrational            131.747             43.571             42.601
 Vibration     1          0.593              1.985              6.246
 Vibration     2          0.594              1.983              5.588
 Vibration     3          0.594              1.982              5.436
 Vibration     4          0.611              1.925              2.975
 Vibration     5          0.617              1.906              2.706
 Vibration     6          0.620              1.896              2.595
 Vibration     7          0.621              1.894              2.573
 Vibration     8          0.671              1.736              1.625
 Vibration     9          0.679              1.715              1.547
 Vibration    10          0.717              1.605              1.233
 Vibration    11          0.772              1.454              0.935
 Vibration    12          0.773              1.451              0.930
 Vibration    13          0.784              1.422              0.885
 Vibration    14          0.793              1.399              0.851
 Vibration    15          0.819              1.337              0.764
 Vibration    16          0.843              1.280              0.693

                           ! Non-Optimized Parameters !
 Normal termination of Gaussian 16 at Sat Jan  6 05:24:54 2024.
