 Q-Chem 5.4, Q-Chem, Inc., Pleasanton, CA (2021)
 Q-Chem 5.4.0 for Intel X86 EM64T Linux

User input:
--------------------------------------------------------------
$molecule
-1 2
N                 -4.5012680000     -0.0318300000      0.1831410000
C                 -3.1261000000     -0.3799420000      0.2402570000
C                 -2.7532370000     -1.6187580000      0.7921720000
C                 -1.4234120000     -1.9538090000      0.9272580000
C                 -0.4069580000     -1.0614310000      0.5386710000
C                  0.9838170000     -1.4838780000      0.7302800000
O                  1.2765030000     -2.5944360000      1.2365970000
C                  2.0137920000     -0.5432090000      0.2936500000
C                  3.3754850000     -0.8818950000      0.4453780000
C                  4.3760550000     -0.0218420000      0.0387450000
C                  4.0381540000      1.2220690000     -0.5406870000
C                  2.7130880000      1.5736010000     -0.6986160000
C                  1.6710430000      0.7086220000     -0.2895600000
C                  0.2857890000      1.1281820000     -0.4755930000
O                  0.0331940000      2.2576560000     -1.0067030000
C                 -0.7567400000      0.2043420000     -0.0324600000
C                 -2.1452900000      0.5200010000     -0.1927480000
N                 -2.5601850000      1.7529470000     -0.7416120000
H                 -5.0860350000     -0.7055950000     -0.2935840000
H                 -4.6627460000      0.9056540000     -0.1571470000
H                 -3.5329160000     -2.2929330000      1.1359640000
H                 -1.1195390000     -2.9017320000      1.3538290000
H                  3.6007720000     -1.8433670000      0.8925670000
H                  5.4190030000     -0.2981020000      0.1631140000
H                  4.8227780000      1.9016400000     -0.8608410000
H                  2.4286990000      2.5219330000     -1.1388460000
H                 -1.7329280000      2.2778070000     -1.0485710000
H                 -3.2308190000      1.6383040000     -1.4946530000
$end

$rem
BASIS  =  6-311++G(d,p)
GUI  =  2
JOB_TYPE  =  SP
METHOD  =  B3LYP
SCF_CONVERGENCE  = 8
SOLVENT_METHOD = sm12
$end

$smx
solvent dimethylformamide
charges CM5
$end

--------------------------------------------------------------

             Standard Nuclear Orientation (Angstroms)
    I     Atom           X                Y                Z
 ----------------------------------------------------------------
    1      N      -4.5012680000    -0.0318300000     0.1831410000
    2      C      -3.1261000000    -0.3799420000     0.2402570000
    3      C      -2.7532370000    -1.6187580000     0.7921720000
    4      C      -1.4234120000    -1.9538090000     0.9272580000
    5      C      -0.4069580000    -1.0614310000     0.5386710000
    6      C       0.9838170000    -1.4838780000     0.7302800000
    7      O       1.2765030000    -2.5944360000     1.2365970000
    8      C       2.0137920000    -0.5432090000     0.2936500000
    9      C       3.3754850000    -0.8818950000     0.4453780000
   10      C       4.3760550000    -0.0218420000     0.0387450000
   11      C       4.0381540000     1.2220690000    -0.5406870000
   12      C       2.7130880000     1.5736010000    -0.6986160000
   13      C       1.6710430000     0.7086220000    -0.2895600000
   14      C       0.2857890000     1.1281820000    -0.4755930000
   15      O       0.0331940000     2.2576560000    -1.0067030000
   16      C      -0.7567400000     0.2043420000    -0.0324600000
   17      C      -2.1452900000     0.5200010000    -0.1927480000
   18      N      -2.5601850000     1.7529470000    -0.7416120000
   19      H      -5.0860350000    -0.7055950000    -0.2935840000
   20      H      -4.6627460000     0.9056540000    -0.1571470000
   21      H      -3.5329160000    -2.2929330000     1.1359640000
   22      H      -1.1195390000    -2.9017320000     1.3538290000
   23      H       3.6007720000    -1.8433670000     0.8925670000
   24      H       5.4190030000    -0.2981020000     0.1631140000
   25      H       4.8227780000     1.9016400000    -0.8608410000
   26      H       2.4286990000     2.5219330000    -1.1388460000
   27      H      -1.7329280000     2.2778070000    -1.0485710000
   28      H      -3.2308190000     1.6383040000    -1.4946530000
 ----------------------------------------------------------------

   18    -799.7639452820      6.19e-09  Convergence criterion met
 Total energy in the final basis set =     -799.8571063754

                    Orbital Energies (a.u.)
 --------------------------------------------------------------

 Alpha MOs
 -- Occupied --
-19.0801 -19.0750 -14.3182 -14.3056 -10.2293 -10.2260 -10.2141 -10.2109
-10.1819 -10.1814 -10.1808 -10.1786 -10.1779 -10.1773 -10.1769 -10.1762
-10.1733 -10.1703  -1.0052  -1.0014  -0.9337  -0.8861  -0.8635  -0.8394
 -0.7848  -0.7571  -0.7400  -0.7290  -0.6692  -0.6425  -0.6255  -0.5932
 -0.5658  -0.5470  -0.5370  -0.5125  -0.4928  -0.4791  -0.4739  -0.4697
 -0.4538  -0.4419  -0.4310  -0.4267  -0.4213  -0.4122  -0.4018  -0.3899
 -0.3857  -0.3804  -0.3643  -0.3578  -0.3513  -0.3422  -0.3123  -0.3031
 -0.2686  -0.2631  -0.2490  -0.2433  -0.2362  -0.2101  -0.1417

 Beta MOs
 -- Occupied --
-19.0743 -19.0698 -14.3180 -14.3054 -10.2272 -10.2247 -10.2137 -10.2101
-10.1817 -10.1809 -10.1801 -10.1781 -10.1778 -10.1771 -10.1760 -10.1758
-10.1728 -10.1702  -0.9954  -0.9922  -0.9325  -0.8855  -0.8611  -0.8380
 -0.7812  -0.7549  -0.7384  -0.7267  -0.6623  -0.6410  -0.6231  -0.5924
 -0.5636  -0.5451  -0.5358  -0.5116  -0.4916  -0.4768  -0.4729  -0.4680
 -0.4530  -0.4407  -0.4305  -0.4199  -0.4158  -0.4078  -0.3985  -0.3877
 -0.3814  -0.3636  -0.3597  -0.3561  -0.3426  -0.3400  -0.3086  -0.2956
 -0.2563  -0.2506  -0.2438  -0.2384  -0.2314  -0.2022

          Ground-State Mulliken Net Atomic Charges

     Atom                 Charge (a.u.)    Spin (a.u.)
  --------------------------------------------------------
      1 N                    -0.165453       0.009988
      2 C                     1.959559       0.055247
      3 C                     1.233949       0.018899
      4 C                    -0.226646       0.034805
      5 C                    -0.998726       0.018924
      6 C                    -2.137851       0.061496
      7 O                    -0.302457       0.194242
      8 C                    -1.412517       0.044042
      9 C                     0.004674       0.011213
     10 C                     0.998799       0.053766
     11 C                     0.932485       0.031532
     12 C                     0.286395       0.041847
     13 C                    -0.413689       0.043076
     14 C                    -1.824036       0.095668
     15 O                    -0.252557       0.216302
     16 C                    -1.103507      -0.000304
     17 C                    -0.116424       0.070578
     18 N                    -0.335012       0.012849
     19 H                     0.379594       0.001900
     20 H                     0.354826       0.000019
     21 H                     0.347081      -0.001750
     22 H                     0.135771      -0.002575
     23 H                     0.153916      -0.000546
     24 H                     0.355477      -0.004135
     25 H                     0.362206      -0.002606
     26 H                     0.170235      -0.001785
     27 H                     0.264915      -0.003640
     28 H                     0.348996       0.000949
  --------------------------------------------------------
  Sum of atomic charges =    -1.000000

                    Cartesian Multipole Moments
 -----------------------------------------------------------------
    Charge (ESU x 10^10)
                -4.8032
    Dipole Moment (Debye)
         X      -4.1277      Y       1.1639      Z      -2.9314
       Tot       5.1947
    Quadrupole Moments (Debye-Ang)
        XX    -109.3293     XY       7.8578     YY    -133.4883
        XZ       6.4464     YZ       7.4907     ZZ    -115.9947

 Total job time:  789.77s(wall), 5973.09s(cpu)
        *  Thank you very much for using Q-Chem.  Have a nice day.  *
