 Q-Chem 5.4, Q-Chem, Inc., Pleasanton, CA (2021)
 Q-Chem 5.4.0 for Intel X86 EM64T Linux

User input:
--------------------------------------------------------------
$molecule
-1 2
Br                -2.7083910000     -1.8520180000     -0.0956920000
C                 -1.1368080000     -0.7258150000     -0.0395540000
C                 -1.2966100000      0.6288750000     -0.0297750000
C                 -0.1562830000      1.5235390000      0.0118370000
O                 -0.2842320000      2.7765030000      0.0212290000
C                  1.1420230000      0.8780540000      0.0413610000
C                  1.2606870000     -0.4806950000      0.0303820000
Br                 3.0279040000     -1.2655890000      0.0715970000
C                  0.1457990000     -1.4229380000     -0.0107280000
O                  0.2726450000     -2.6624120000     -0.0204580000
H                 -2.2798130000      1.0819240000     -0.0527070000
H                  2.0130790000      1.5205730000      0.0725080000
$end

$rem
BASIS  =  6-311++G(d,p)
GUI  =  2
JOB_TYPE  =  SP
METHOD  =  B3LYP
SCF_CONVERGENCE  = 8
SOLVENT_METHOD = sm12
$end

$smx
solvent dimethylformamide
charges CM5
$end

--------------------------------------------------------------

             Standard Nuclear Orientation (Angstroms)
    I     Atom           X                Y                Z
 ----------------------------------------------------------------
    1      Br     -2.7083910000    -1.8520180000    -0.0956920000
    2      C      -1.1368080000    -0.7258150000    -0.0395540000
    3      C      -1.2966100000     0.6288750000    -0.0297750000
    4      C      -0.1562830000     1.5235390000     0.0118370000
    5      O      -0.2842320000     2.7765030000     0.0212290000
    6      C       1.1420230000     0.8780540000     0.0413610000
    7      C       1.2606870000    -0.4806950000     0.0303820000
    8      Br      3.0279040000    -1.2655890000     0.0715970000
    9      C       0.1457990000    -1.4229380000    -0.0107280000
   10      O       0.2726450000    -2.6624120000    -0.0204580000
   11      H      -2.2798130000     1.0819240000    -0.0527070000
   12      H       2.0130790000     1.5205730000     0.0725080000
 ----------------------------------------------------------------

   18   -5528.7367020729      3.92e-09  Convergence criterion met
 Total energy in the final basis set =    -5528.8143704362

                    Orbital Energies (a.u.)
 --------------------------------------------------------------

 Alpha MOs
 -- Occupied --
********-482.8264 -62.4790 -62.4789 -56.2994 -56.2994 -56.2958 -56.2957
-56.2955 -56.2954 -19.0903 -19.0879 -10.2454 -10.2364 -10.2310 -10.2310
-10.1837 -10.1837  -8.6875  -8.6874  -6.5187  -6.5185  -6.5063  -6.5063
 -6.5055  -6.5055  -2.6296  -2.6294  -2.6261  -2.6261  -2.6256  -2.6255
 -2.6158  -2.6157  -2.6157  -2.6157  -1.0202  -1.0098  -0.8596  -0.8221
 -0.7743  -0.7274  -0.6956  -0.5984  -0.5793  -0.5007  -0.4853  -0.4372
 -0.4315  -0.4242  -0.4162  -0.3910  -0.3895  -0.3700  -0.3358  -0.3192
 -0.2891  -0.2857  -0.2751  -0.2563  -0.2524  -0.2485  -0.1756

 Beta MOs
 -- Occupied --
********-482.8264 -62.4790 -62.4789 -56.2995 -56.2994 -56.2957 -56.2957
-56.2955 -56.2954 -19.0829 -19.0803 -10.2445 -10.2356 -10.2298 -10.2298
-10.1825 -10.1824  -8.6875  -8.6874  -6.5187  -6.5186  -6.5063  -6.5062
 -6.5055  -6.5055  -2.6297  -2.6294  -2.6261  -2.6261  -2.6256  -2.6256
 -2.6158  -2.6157  -2.6157  -2.6156  -1.0076  -0.9967  -0.8542  -0.8207
 -0.7721  -0.7253  -0.6857  -0.5942  -0.5752  -0.4985  -0.4811  -0.4330
 -0.4231  -0.4143  -0.4093  -0.3865  -0.3682  -0.3610  -0.3318  -0.3014
 -0.2888  -0.2852  -0.2524  -0.2493  -0.2467  -0.2420

          Ground-State Mulliken Net Atomic Charges

     Atom                 Charge (a.u.)    Spin (a.u.)
  --------------------------------------------------------
      1 Br                    0.073993       0.005643
      2 C                     1.858032       0.100795
      3 C                    -0.582844       0.076407
      4 C                    -0.819582       0.097081
      5 O                    -0.398618       0.266049
      6 C                    -0.571305       0.076403
      7 C                     1.844914       0.100474
      8 Br                    0.073302       0.005657
      9 C                    -2.680752       0.012921
     10 O                    -0.200116       0.274416
     11 H                     0.201511      -0.007916
     12 H                     0.201465      -0.007930
  --------------------------------------------------------
  Sum of atomic charges =    -1.000000

                    Cartesian Multipole Moments
 -----------------------------------------------------------------
    Charge (ESU x 10^10)
                -4.8032
    Dipole Moment (Debye)
         X      -0.1263      Y       1.2092      Z       0.0100
       Tot       1.2158
    Quadrupole Moments (Debye-Ang)
        XX     -95.6358     XY       2.7010     YY    -121.6672
        XZ      -0.2326     YZ      -0.2970     ZZ     -86.3752

 Total job time:  159.97s(wall), 1132.64s(cpu)
        *  Thank you very much for using Q-Chem.  Have a nice day.  *
