 Q-Chem 5.4, Q-Chem, Inc., Pleasanton, CA (2021)
 Q-Chem 5.4.0 for Intel X86 EM64T Linux

User input:
--------------------------------------------------------------
$molecule
-1 2
C                  5.0723530000     -2.4798040000      0.2729590000
C                  5.8102150000     -1.5220010000     -0.3842780000
C                  5.1230290000     -0.4965260000     -1.0735050000
C                  3.6590840000     -2.4587670000      0.2630700000
C                  2.9850150000     -1.4168020000     -0.4361050000
C                  3.7450960000     -0.4345210000     -1.1009580000
C                  2.9281540000     -3.5086260000      0.9751300000
C                  1.4646310000     -3.4218690000      0.9186510000
C                  0.7905310000     -2.3800030000      0.2193700000
C                  1.5215120000     -1.3300940000     -0.4927420000
C                  0.7045530000     -4.4039900000      1.5837010000
C                 -0.6226820000     -2.3589820000      0.2093930000
C                 -1.3605790000     -3.3167370000      0.8667600000
O                  3.5150370000     -4.4208930000      1.5972040000
O                  0.9345930000     -0.4178800000     -1.1147700000
H                  5.5556890000     -3.2801730000      0.8202430000
H                 -2.4428970000     -3.3051600000      0.8522090000
H                  3.2213540000      0.3596900000     -1.6179370000
H                  1.2283300000     -5.1980900000      2.1008290000
H                 -1.1060280000     -1.5587140000     -0.3380290000
C                 -0.6733940000     -4.3419490000      1.5562110000
S                  6.0673870000      0.7167650000     -1.9736610000
H                  6.8925350000     -1.5336730000     -0.3698670000
S                 -1.6176340000     -5.5550940000      2.4568810000
O                 -0.7622520000     -6.7077080000      2.7528430000
O                 -2.9253070000     -5.7540970000      1.8243740000
N                 -1.9832390000     -4.7260830000      3.9088170000
H                 -1.2244180000     -4.8447280000      4.5748560000
H                 -2.8435610000     -5.1195780000      4.2814310000
O                  5.2118270000      1.8691020000     -2.2701690000
O                  7.3746920000      0.9163300000     -1.3405520000
N                  6.4342110000     -0.1123500000     -3.4250070000
H                  7.2941420000      0.2817390000     -3.7978140000
H                  5.6752790000      0.0043570000     -4.0912170000
$end
$rem
MAX_SCF_CYCLES=200
BASIS  =  6-311++G(d,p)
GUI  =  2
JOB_TYPE  =  SP
METHOD  =  B3LYP
SOLVENT_METHOD = COSMO
$end
$solvent
dielectric 37.219
opticaldielectric 1.43
$end

--------------------------------------------------------------

             Standard Nuclear Orientation (Angstroms)
    I     Atom           X                Y                Z
 ----------------------------------------------------------------
    1      C       2.0305993700    -1.9967868266     0.0477469257
    2      C       3.3625372502    -1.6539698158     0.0947083191
    3      C       3.7053085261    -0.2827130140     0.1266468194
    4      C       1.0154743542    -1.0135278562     0.0234032711
    5      C       1.3809119468     0.3627768215     0.0572641472
    6      C       2.7455367259     0.7082194808     0.1129164850
    7      C      -0.3842458166    -1.4390480165    -0.0332365123
    8      C      -1.3809328069    -0.3626480294    -0.0576155454
    9      C      -1.0155277957     1.0136629371    -0.0238992269
   10      C       0.3842783395     1.4391998495     0.0327289591
   11      C      -2.7455499237    -0.7080793736    -0.1130144443
   12      C      -2.0305842155     1.9969108125    -0.0483223012
   13      C      -3.3625753592     1.6540921216    -0.0951510705
   14      O      -0.7107033423    -2.6459423823    -0.0549222228
   15      O       0.7106616932     2.6460679177     0.0544199564
   16      H       1.7205413314    -3.0346923334     0.0293031375
   17      H      -4.1395611458     2.4073017500    -0.1221020366
   18      H       3.0102162531     1.7574127020     0.1514186138
   19      H      -3.0102052382    -1.7572924113    -0.1513301112
   20      H      -1.7205312715     3.0348204219    -0.0300496920
   21      C      -3.7052970013     0.2828996866    -0.1267538039
   22      S       5.4276044761     0.1731809455     0.1316732906
   23      H       4.1395307891    -2.4071791245     0.1214902622
   24      S      -5.4276404077    -0.1732024442    -0.1312764411
   25      O      -5.5540003707    -1.5711913037    -0.5525260262
   26      O      -6.2275431514     0.8664177014    -0.7862737902
   27      N      -5.8446017929    -0.0340963802     1.5227601692
   28      H      -5.6318053007    -0.9023316576     2.0068872719
   29      H      -6.8406677688     0.1632536827     1.5750953969
   30      O       5.5539100772     1.5713540388     0.5523149023
   31      O       6.2272953516    -0.8661029786     0.7874804168
   32      N       5.8451537434     0.0329324589    -1.5219227040
   33      H       6.8413379460    -0.1637143097    -1.5740725525
   34      H       5.6312920340     0.9001560974    -2.0073301602
 ----------------------------------------------------------------

    9   -1897.0747403981      8.46e-06  Convergence criterion met
 Total energy in the final basis set =    -1897.0747403981
    4   -1897.1699964879      7.60e-06  Convergence criterion met
 Total energy in the final basis set =    -1897.1699964879

                    Orbital Energies (a.u.)
 --------------------------------------------------------------

 Alpha MOs
 -- Occupied --
-89.0815 -89.0815 -19.1359 -19.1359 -19.1353 -19.1352 -19.0950 -19.0950
-14.3440 -14.3440 -10.2437 -10.2437 -10.2226 -10.2226 -10.2004 -10.2004
-10.1970 -10.1970 -10.1941 -10.1941 -10.1936 -10.1936 -10.1883 -10.1883
 -8.1433  -8.1433  -6.1060  -6.1060  -6.1059  -6.1059  -6.1041  -6.1041
 -1.1376  -1.1376  -1.0290  -1.0290  -1.0250  -1.0227  -0.9124  -0.9124
 -0.8874  -0.8800  -0.8179  -0.7854  -0.7766  -0.7716  -0.7074  -0.7027
 -0.6611  -0.6532  -0.6148  -0.6094  -0.5791  -0.5646  -0.5528  -0.5405
 -0.5273  -0.5260  -0.5202  -0.5130  -0.4967  -0.4897  -0.4832  -0.4758
 -0.4666  -0.4489  -0.4481  -0.4438  -0.4410  -0.4338  -0.4325  -0.4170
 -0.3996  -0.3930  -0.3899  -0.3777  -0.3767  -0.3756  -0.3661  -0.3593
 -0.3508  -0.3501  -0.3387  -0.3383  -0.3287  -0.3277  -0.3063  -0.3057
 -0.2856  -0.2800  -0.2772  -0.2700  -0.2654  -0.2561  -0.1616

 Beta MOs
 -- Occupied --
-89.0815 -89.0815 -19.1358 -19.1358 -19.1352 -19.1352 -19.0894 -19.0893
-14.3440 -14.3440 -10.2423 -10.2423 -10.2222 -10.2222 -10.2006 -10.2006
-10.1962 -10.1962 -10.1933 -10.1933 -10.1924 -10.1924 -10.1884 -10.1884
 -8.1433  -8.1433  -6.1060  -6.1060  -6.1059  -6.1059  -6.1041  -6.1041
 -1.1375  -1.1375  -1.0289  -1.0289  -1.0154  -1.0128  -0.9123  -0.9123
 -0.8850  -0.8788  -0.8140  -0.7835  -0.7753  -0.7693  -0.7061  -0.6973
 -0.6580  -0.6513  -0.6133  -0.6089  -0.5770  -0.5637  -0.5511  -0.5395
 -0.5270  -0.5257  -0.5198  -0.5126  -0.4943  -0.4889  -0.4815  -0.4754
 -0.4662  -0.4486  -0.4474  -0.4429  -0.4310  -0.4286  -0.4278  -0.4146
 -0.3902  -0.3880  -0.3768  -0.3764  -0.3762  -0.3751  -0.3578  -0.3566
 -0.3501  -0.3498  -0.3384  -0.3380  -0.3283  -0.3274  -0.3048  -0.3023
 -0.2769  -0.2689  -0.2664  -0.2638  -0.2601  -0.2509

          Ground-State Mulliken Net Atomic Charges

     Atom                 Charge (a.u.)    Spin (a.u.)
  --------------------------------------------------------
      1 C                    -0.080588       0.009595
      2 C                    -0.415746       0.071255
      3 C                    -0.230823       0.019273
      4 C                     0.545102       0.064970
      5 C                     0.102595       0.043293
      6 C                     0.013442       0.003844
      7 C                    -0.583046       0.081493
      8 C                     0.102038       0.043216
      9 C                     0.545888       0.064863
     10 C                    -0.583263       0.081485
     11 C                     0.012881       0.003897
     12 C                    -0.079734       0.009589
     13 C                    -0.416458       0.071204
     14 O                    -0.435650       0.206590
     15 O                    -0.435674       0.206529
     16 H                     0.187906      -0.000588
     17 H                     0.274352      -0.004433
     18 H                     0.244770      -0.000350
     19 H                     0.244695      -0.000354
     20 H                     0.187952      -0.000587
     21 C                    -0.230555       0.019222
     22 S                     0.306528       0.004931
     23 H                     0.274198      -0.004435
     24 S                     0.307133       0.004918
     25 O                    -0.285982       0.001787
     26 O                    -0.345023      -0.002069
     27 N                    -0.471508       0.000082
     28 H                     0.324855      -0.000217
     29 H                     0.348214       0.000711
     30 O                    -0.285634       0.001787
     31 O                    -0.344703      -0.002072
     32 N                    -0.471164       0.000078
     33 H                     0.348072       0.000712
     34 H                     0.324928      -0.000218
  --------------------------------------------------------
  Sum of atomic charges =    -1.000003

                    Cartesian Multipole Moments
 -----------------------------------------------------------------
    Charge (ESU x 10^10)
                -4.8032
    Dipole Moment (Debye)
         X      -0.0038      Y      -0.0008      Z      -0.0034
       Tot       0.0051
    Quadrupole Moments (Debye-Ang)
        XX    -217.3463     XY      -9.4690     YY    -189.8441
        XZ     -52.9146     YZ      -7.8445     ZZ    -154.8161

 Total job time:  135.13s(wall), 1008.51s(cpu)
        *  Thank you very much for using Q-Chem.  Have a nice day.  *
