 Q-Chem 5.4, Q-Chem, Inc., Pleasanton, CA (2021)
 Q-Chem 5.4.0 for Intel X86 EM64T Linux

User input:
--------------------------------------------------------------
$molecule
0 1
C                 -1.5293270000      1.9071560000     -4.7759520000
C                 -1.4930020000      0.5391210000     -5.0131610000
C                 -1.2542480000     -0.3483120000     -3.9595670000
C                 -1.3282920000      2.3978200000     -3.4809590000
C                 -1.0883730000      1.5087030000     -2.4226430000
C                 -1.0514590000      0.1334050000     -2.6719890000
C                 -1.3731800000      3.8568350000     -3.2402090000
C                 -0.8559030000      1.9950130000     -1.0299360000
C                 -1.1777770000      4.3568190000     -1.8740110000
C                 -0.9227480000      3.4681050000     -0.7880400000
C                 -1.2594820000      5.7516370000     -1.6460830000
C                 -1.0993420000      6.2520030000     -0.3435620000
C                 -0.8552270000      5.3885600000      0.7003710000
C                 -0.7611500000      4.0078960000      0.4888390000
O                 -1.5820510000      4.6336820000     -4.1848730000
O                 -0.6244370000      1.1933500000     -0.1386210000
H                 -1.7111350000      2.6132610000     -5.5761560000
H                 -1.6491160000      0.1601500000     -6.0166260000
H                 -1.2252640000     -1.4156470000     -4.1469650000
H                 -0.8605000000     -0.5367250000     -1.8435010000
H                 -0.7292760000      5.7598820000      1.7101800000
O                 -1.4906160000      6.6361200000     -2.6205280000
O                 -0.5828470000      3.2279980000      1.6172580000
C                  0.6525150000      2.6454860000      1.8318760000
C                  0.5687540000      1.6717420000      2.9686740000
O                  1.6211470000      2.9202120000      1.1833900000
H                 -1.1693590000      7.3216650000     -0.1902980000
H                 -1.5790240000      6.1233420000     -3.4631470000
H                  0.0378720000      0.7852200000      2.6129930000
H                  0.0017860000      2.0924890000      3.8004630000
H                  1.5719170000      1.3959120000      3.2871220000
$end
$rem
MAX_SCF_CYCLES=200
BASIS  =  6-311++G(d,p)
GUI  =  2
JOB_TYPE  =  SP
METHOD  =  B3LYP
SOLVENT_METHOD = PCM
$end
$pcm
theory = CPCM
$end
$solvent
dielectric 37.219
opticaldielectric 1.43
$end

--------------------------------------------------------------

             Standard Nuclear Orientation (Angstroms)
    I     Atom           X                Y                Z
 ----------------------------------------------------------------
    1      C      -1.5293270000     1.9071560000    -4.7759520000
    2      C      -1.4930020000     0.5391210000    -5.0131610000
    3      C      -1.2542480000    -0.3483120000    -3.9595670000
    4      C      -1.3282920000     2.3978200000    -3.4809590000
    5      C      -1.0883730000     1.5087030000    -2.4226430000
    6      C      -1.0514590000     0.1334050000    -2.6719890000
    7      C      -1.3731800000     3.8568350000    -3.2402090000
    8      C      -0.8559030000     1.9950130000    -1.0299360000
    9      C      -1.1777770000     4.3568190000    -1.8740110000
   10      C      -0.9227480000     3.4681050000    -0.7880400000
   11      C      -1.2594820000     5.7516370000    -1.6460830000
   12      C      -1.0993420000     6.2520030000    -0.3435620000
   13      C      -0.8552270000     5.3885600000     0.7003710000
   14      C      -0.7611500000     4.0078960000     0.4888390000
   15      O      -1.5820510000     4.6336820000    -4.1848730000
   16      O      -0.6244370000     1.1933500000    -0.1386210000
   17      H      -1.7111350000     2.6132610000    -5.5761560000
   18      H      -1.6491160000     0.1601500000    -6.0166260000
   19      H      -1.2252640000    -1.4156470000    -4.1469650000
   20      H      -0.8605000000    -0.5367250000    -1.8435010000
   21      H      -0.7292760000     5.7598820000     1.7101800000
   22      O      -1.4906160000     6.6361200000    -2.6205280000
   23      O      -0.5828470000     3.2279980000     1.6172580000
   24      C       0.6525150000     2.6454860000     1.8318760000
   25      C       0.5687540000     1.6717420000     2.9686740000
   26      O       1.6211470000     2.9202120000     1.1833900000
   27      H      -1.1693590000     7.3216650000    -0.1902980000
   28      H      -1.5790240000     6.1233420000    -3.4631470000
   29      H       0.0378720000     0.7852200000     2.6129930000
   30      H       0.0017860000     2.0924890000     3.8004630000
   31      H       1.5719170000     1.3959120000     3.2871220000
 ----------------------------------------------------------------

    9    -992.1683210415      3.96e-06  Convergence criterion met
 Total energy in the final basis set =     -992.1683210415

                    Orbital Energies (a.u.)
 --------------------------------------------------------------

 Alpha MOs
 -- Occupied --
-19.1884 -19.1662 -19.1432 -19.1351 -19.1341 -10.3254 -10.2929 -10.2903
-10.2723 -10.2656 -10.2232 -10.2168 -10.2110 -10.2103 -10.2074 -10.2021
-10.1990 -10.1986 -10.1980 -10.1977 -10.1804  -1.1327  -1.0972  -1.0706
 -1.0653  -1.0528  -0.8988  -0.8844  -0.8211  -0.7933  -0.7802  -0.7781
 -0.7511  -0.7032  -0.6764  -0.6620  -0.6500  -0.6067  -0.5913  -0.5724
 -0.5610  -0.5433  -0.5142  -0.5081  -0.5051  -0.4970  -0.4906  -0.4798
 -0.4675  -0.4649  -0.4578  -0.4537  -0.4475  -0.4471  -0.4343  -0.4269
 -0.4214  -0.4157  -0.4042  -0.3919  -0.3906  -0.3837  -0.3811  -0.3700
 -0.3581  -0.3412  -0.3061  -0.2980  -0.2970  -0.2814  -0.2803  -0.2787
 -0.2519

          Ground-State Mulliken Net Atomic Charges

     Atom                 Charge (a.u.)
  ----------------------------------------
      1 C                    -0.007424
      2 C                    -0.509771
      3 C                    -0.402827
      4 C                     0.100352
      5 C                    -0.160102
      6 C                     0.096348
      7 C                    -0.345728
      8 C                    -0.252913
      9 C                     0.785509
     10 C                     0.639439
     11 C                    -0.320125
     12 C                    -0.159571
     13 C                     0.120132
     14 C                    -0.233472
     15 O                    -0.321951
     16 O                    -0.264227
     17 H                     0.202670
     18 H                     0.223862
     19 H                     0.229034
     20 H                     0.194267
     21 H                     0.253582
     22 O                    -0.327332
     23 O                    -0.006854
     24 C                     0.051215
     25 C                    -0.504539
     26 O                    -0.276188
     27 H                     0.251812
     28 H                     0.361428
     29 H                     0.206668
     30 H                     0.194752
     31 H                     0.181954
  ----------------------------------------
  Sum of atomic charges =     0.000000

                    Cartesian Multipole Moments
 -----------------------------------------------------------------
    Charge (ESU x 10^10)
                -0.0000
    Dipole Moment (Debye)
         X      -2.1100      Y      -2.2921      Z       0.2666
       Tot       3.1268
    Quadrupole Moments (Debye-Ang)
        XX    -126.8305     XY      -2.7847     YY    -122.8014
        XZ       2.4400     YZ      21.7036     ZZ     -99.3941

 Total job time:  94.28s(wall), 509.68s(cpu)
        *  Thank you very much for using Q-Chem.  Have a nice day.  *
