 Q-Chem 5.4, Q-Chem, Inc., Pleasanton, CA (2021)
 Q-Chem 5.4.0 for Intel X86 EM64T Linux

User input:
--------------------------------------------------------------
$molecule
-1 2
C                 -0.8231970000      3.7973130000     -0.1353050000
C                 -1.8667150000      3.1188100000      0.4671340000
C                 -1.6933920000      1.7834710000      0.8836150000
C                  0.4265290000      3.1735590000     -0.3432130000
C                  0.5997840000      1.8234600000      0.0737090000
C                 -0.4746050000      1.1545590000      0.6851580000
C                  1.5125850000      3.9072520000     -0.9755860000
C                  2.7663980000      3.1907430000     -1.1340160000
C                  2.9298810000      1.8559220000     -0.7683540000
C                  1.8805490000      1.1117320000     -0.1240470000
O                  1.4027790000      5.1001430000     -1.3934670000
O                  2.0281490000     -0.0824480000      0.2571930000
N                  3.8095910000      3.9234030000     -1.6650250000
H                 -0.9314150000      4.8249540000     -0.4635650000
H                 -2.8208580000      3.6152720000      0.6209410000
H                 -2.5126810000      1.2504500000      1.3573390000
H                 -0.3101710000      0.1277980000      0.9926570000
H                  3.5015720000      4.7597250000     -2.1441320000
H                  4.5468060000      3.3695190000     -2.0764150000
N                  4.2163110000      1.2552780000     -1.0425050000
C                  5.0219480000      1.0346490000      0.1593280000
C                  4.1554800000      0.0646660000     -1.8920570000
H                  5.0983080000      1.9712860000      0.7169190000
H                  6.0346480000      0.7279220000     -0.1323080000
H                  4.5951210000      0.2646300000      0.8188910000
H                  3.5800090000      0.2966330000     -2.7920740000
H                  3.6874040000     -0.7938630000     -1.3923340000
H                  5.1736120000     -0.2072800000     -2.1993960000
$end
$rem
MAX_SCF_CYCLES=200
BASIS  =  6-311++G(d,p)
GUI  =  2
JOB_TYPE  =  SP
METHOD  =  B3LYP
SOLVENT_METHOD = PCM
$end
$pcm
theory = CPCM
$end
$solvent
dielectric 37.219
opticaldielectric 1.43
$end

--------------------------------------------------------------

             Standard Nuclear Orientation (Angstroms)
    I     Atom           X                Y                Z
 ----------------------------------------------------------------
    1      C      -0.8231970000     3.7973130000    -0.1353050000
    2      C      -1.8667150000     3.1188100000     0.4671340000
    3      C      -1.6933920000     1.7834710000     0.8836150000
    4      C       0.4265290000     3.1735590000    -0.3432130000
    5      C       0.5997840000     1.8234600000     0.0737090000
    6      C      -0.4746050000     1.1545590000     0.6851580000
    7      C       1.5125850000     3.9072520000    -0.9755860000
    8      C       2.7663980000     3.1907430000    -1.1340160000
    9      C       2.9298810000     1.8559220000    -0.7683540000
   10      C       1.8805490000     1.1117320000    -0.1240470000
   11      O       1.4027790000     5.1001430000    -1.3934670000
   12      O       2.0281490000    -0.0824480000     0.2571930000
   13      N       3.8095910000     3.9234030000    -1.6650250000
   14      H      -0.9314150000     4.8249540000    -0.4635650000
   15      H      -2.8208580000     3.6152720000     0.6209410000
   16      H      -2.5126810000     1.2504500000     1.3573390000
   17      H      -0.3101710000     0.1277980000     0.9926570000
   18      H       3.5015720000     4.7597250000    -2.1441320000
   19      H       4.5468060000     3.3695190000    -2.0764150000
   20      N       4.2163110000     1.2552780000    -1.0425050000
   21      C       5.0219480000     1.0346490000     0.1593280000
   22      C       4.1554800000     0.0646660000    -1.8920570000
   23      H       5.0983080000     1.9712860000     0.7169190000
   24      H       6.0346480000     0.7279220000    -0.1323080000
   25      H       4.5951210000     0.2646300000     0.8188910000
   26      H       3.5800090000     0.2966330000    -2.7920740000
   27      H       3.6874040000    -0.7938630000    -1.3923340000
   28      H       5.1736120000    -0.2072800000    -2.1993960000
 ----------------------------------------------------------------

    8    -724.7967582077      8.91e-06  Convergence criterion met
 Total energy in the final basis set =     -724.7967582077

                    Orbital Energies (a.u.)
 --------------------------------------------------------------

 Alpha MOs
 -- Occupied --
-19.0775 -19.0664 -14.3074 -14.2993 -10.2180 -10.2171 -10.2015 -10.1758
-10.1750 -10.1727 -10.1697 -10.1690 -10.1680 -10.1679 -10.1665 -10.1660
 -1.0017  -0.9935  -0.9218  -0.8913  -0.8533  -0.7837  -0.7471  -0.7249
 -0.6941  -0.6721  -0.6353  -0.6058  -0.5810  -0.5584  -0.5356  -0.5050
 -0.4818  -0.4717  -0.4538  -0.4456  -0.4430  -0.4302  -0.4187  -0.4165
 -0.4131  -0.4075  -0.3919  -0.3865  -0.3700  -0.3632  -0.3564  -0.3521
 -0.3481  -0.3337  -0.3205  -0.2608  -0.2542  -0.2524  -0.2421  -0.2145
 -0.2047  -0.1449

 Beta MOs
 -- Occupied --
-19.0713 -19.0621 -14.3065 -14.2994 -10.2166 -10.2141 -10.2002 -10.1756
-10.1750 -10.1727 -10.1694 -10.1689 -10.1671 -10.1669 -10.1662 -10.1660
 -0.9911  -0.9855  -0.9201  -0.8895  -0.8513  -0.7794  -0.7448  -0.7234
 -0.6940  -0.6638  -0.6331  -0.6034  -0.5795  -0.5558  -0.5342  -0.5027
 -0.4811  -0.4684  -0.4528  -0.4437  -0.4419  -0.4289  -0.4181  -0.4141
 -0.4017  -0.4008  -0.3889  -0.3814  -0.3624  -0.3571  -0.3557  -0.3488
 -0.3400  -0.3324  -0.3048  -0.2483  -0.2473  -0.2439  -0.2374  -0.2083
 -0.2006

          Ground-State Mulliken Net Atomic Charges

     Atom                 Charge (a.u.)    Spin (a.u.)
  --------------------------------------------------------
      1 C                    -0.110905       0.072682
      2 C                    -0.355875       0.001178
      3 C                    -0.371499       0.075705
      4 C                     0.818259       0.004521
      5 C                     0.125748       0.066230
      6 C                     0.016099       0.008033
      7 C                    -0.663086       0.194098
      8 C                     0.152759       0.066248
      9 C                    -0.256056      -0.000777
     10 C                    -0.820434       0.072666
     11 O                    -0.534296       0.236364
     12 O                    -0.465458       0.167170
     13 N                    -0.459622       0.046499
     14 H                     0.162179      -0.004426
     15 H                     0.193251      -0.000785
     16 H                     0.195649      -0.005310
     17 H                     0.164540      -0.000047
     18 H                     0.300142      -0.001956
     19 H                     0.303868      -0.000876
     20 N                     0.162390      -0.005308
     21 C                    -0.254349       0.004036
     22 C                    -0.216689       0.002377
     23 H                     0.142412       0.001037
     24 H                     0.152670       0.000713
     25 H                     0.163294      -0.001043
     26 H                     0.149465       0.000775
     27 H                     0.161052      -0.000036
     28 H                     0.144492       0.000232
  --------------------------------------------------------
  Sum of atomic charges =    -1.000000

                    Cartesian Multipole Moments
 -----------------------------------------------------------------
    Charge (ESU x 10^10)
                -4.8032
    Dipole Moment (Debye)
         X      -7.1069      Y     -12.2213      Z       1.3588
       Tot      14.2026
    Quadrupole Moments (Debye-Ang)
        XX    -105.5873     XY     -15.8391     YY    -161.3075
        XZ      -3.4466     YZ      11.6739     ZZ    -100.4526

 Total job time:  60.48s(wall), 359.66s(cpu)
        *  Thank you very much for using Q-Chem.  Have a nice day.  *
