 Q-Chem 5.4, Q-Chem, Inc., Pleasanton, CA (2021)
 Q-Chem 5.4.0 for Intel X86 EM64T Linux

User input:
--------------------------------------------------------------
$molecule
-1 2
C                 -1.4704310000     -2.0665090000      1.4067880000
C                 -2.0502990000     -2.0607710000      0.0810280000
C                 -1.7899960000     -1.0812280000     -0.8272650000
C                 -0.9012350000      0.0253020000     -0.5450460000
C                 -0.2791430000      0.0358400000      0.7847980000
C                 -0.5813740000     -0.9441830000      1.7316860000
O                 -1.7414680000     -2.9853950000      2.2276260000
O                 -0.6743140000      0.9109370000     -1.4143810000
H                 -2.2370290000     -1.0904850000     -1.8173730000
C                  0.5201770000     -1.9926810000      3.7434950000
C                 -0.2471880000      0.2773900000      3.9090980000
C                  0.9708960000     -1.9347700000      5.0599390000
C                  0.8125350000     -0.7701990000      5.8120110000
C                  0.1945620000      0.3354210000      5.2288930000
H                 -2.7175470000     -2.8866930000     -0.1489010000
H                  0.6230190000     -2.9082420000      3.1765820000
H                 -0.7274730000      1.1421020000      3.4666780000
H                  1.4406400000     -2.8073600000      5.5037770000
H                  1.1596680000     -0.7276330000      6.8396250000
H                  0.0545660000      1.2467320000      5.8020660000
C                  0.7302940000      1.1024870000      1.0325430000
C                  0.4434380000      2.4520380000      0.7707140000
C                  2.0187990000      0.7880580000      1.4910550000
C                  1.3945350000      3.4453700000      0.9903380000
C                  2.9751040000      1.7784440000      1.7031460000
C                  2.6668520000      3.1162590000      1.4591800000
H                 -0.5315170000      2.7135100000      0.3817250000
H                  2.2699120000     -0.2484650000      1.6825670000
H                  1.1432330000      4.4817190000      0.7856570000
H                  3.9629960000      1.5030270000      2.0592770000
H                  3.4091270000      3.8906740000      1.6253590000
C                 -0.0841800000     -0.8811420000      3.1341370000
$end
$rem
MAX_SCF_CYCLES=200
BASIS  =  6-311++G(d,p)
GUI  =  2
JOB_TYPE  =  SP
METHOD  =  B3LYP
SOLVENT_METHOD = COSMO
$end
$solvent
dielectric 37.219
opticaldielectric 1.43
$end

--------------------------------------------------------------

             Standard Nuclear Orientation (Angstroms)
    I     Atom           X                Y                Z
 ----------------------------------------------------------------
    1      C       1.4577958116    -2.2208654012    -0.0396292096
    2      C       0.6799151648    -3.4409061931    -0.0216969655
    3      C      -0.6803587780    -3.4408591865     0.0220421790
    4      C      -1.4582014627    -2.2207748852     0.0395743148
    5      C      -0.6981062131    -0.9652905543    -0.0005364908
    6      C       0.6977393809    -0.9653492993     0.0002487299
    7      O       2.7184715421    -2.2576360421    -0.0701608472
    8      O      -2.7188811034    -2.2575146930     0.0699530162
    9      H      -1.2487666031    -4.3665331549     0.0387243639
   10      C       2.5606107255     0.5502120791    -0.7697656699
   11      C       1.2442472184     1.2218970065     1.1237818519
   12      C       3.3153711862     1.7151187418    -0.6563848071
   13      C       3.0416636501     2.6409345263     0.3510204894
   14      C       2.0031339392     2.3836691431     1.2452147509
   15      H       1.2482638840    -4.3666198920    -0.0380759044
   16      H       2.7969876593    -0.1746301484    -1.5371954463
   17      H       0.4406018805     1.0315037633     1.8252378836
   18      H       4.1277891834     1.8965487624    -1.3536114914
   19      H       3.6336971437     3.5462411608     0.4416844690
   20      H       1.7820153765     3.0883619405     2.0409085042
   21      C      -1.4973896732     0.2866947084    -0.1089584306
   22      C      -2.5608964047     0.5504787990     0.7693923406
   23      C      -1.2439714081     1.2223340034    -1.1237008992
   24      C      -3.3151507735     1.7157447670     0.6563249365
   25      C      -2.0023907239     2.3844401776    -1.2448440192
   26      C      -3.0409164955     2.6418258344    -0.3506938504
   27      H      -2.7977140772    -0.1745623614     1.5364972921
   28      H      -0.4402992504     1.0319469332    -1.8251125764
   29      H      -4.1275911789     1.8972610032     1.3535040386
   30      H      -1.7808579395     3.0893198261    -2.0402573227
   31      H      -3.6325334699     3.5474331198    -0.4410875892
   32      C       1.4971855030     0.2865182211     0.1086851537
 ----------------------------------------------------------------

   10    -843.8610457986      4.07e-06  Convergence criterion met
 Total energy in the final basis set =     -843.8610457986
    4    -843.9466723263      7.06e-06  Convergence criterion met
 Total energy in the final basis set =     -843.9466723263

                    Orbital Energies (a.u.)
 --------------------------------------------------------------

 Alpha MOs
 -- Occupied --
-19.0812 -19.0812 -10.2246 -10.2246 -10.1799 -10.1799 -10.1795 -10.1790
-10.1707 -10.1707 -10.1699 -10.1699 -10.1695 -10.1695 -10.1689 -10.1689
-10.1673 -10.1673 -10.1648 -10.1641  -1.0061  -1.0038  -0.8638  -0.8528
 -0.8244  -0.7780  -0.7561  -0.7429  -0.7423  -0.7133  -0.6805  -0.6278
 -0.6082  -0.6005  -0.5990  -0.5693  -0.5567  -0.5108  -0.5091  -0.4830
 -0.4722  -0.4591  -0.4534  -0.4453  -0.4400  -0.4328  -0.4179  -0.4162
 -0.4144  -0.4083  -0.4051  -0.3905  -0.3784  -0.3755  -0.3668  -0.3634
 -0.3453  -0.3414  -0.3405  -0.3385  -0.2882  -0.2742  -0.2660  -0.2548
 -0.2531  -0.2439  -0.2384  -0.2233  -0.1646

 Beta MOs
 -- Occupied --
-19.0743 -19.0743 -10.2233 -10.2233 -10.1801 -10.1801 -10.1783 -10.1778
-10.1706 -10.1706 -10.1699 -10.1699 -10.1696 -10.1696 -10.1687 -10.1687
-10.1671 -10.1671 -10.1638 -10.1631  -0.9943  -0.9917  -0.8627  -0.8526
 -0.8197  -0.7758  -0.7550  -0.7427  -0.7422  -0.7117  -0.6713  -0.6249
 -0.6071  -0.6002  -0.5985  -0.5674  -0.5540  -0.5097  -0.5083  -0.4810
 -0.4692  -0.4578  -0.4520  -0.4446  -0.4388  -0.4302  -0.4166  -0.4159
 -0.4137  -0.4025  -0.3891  -0.3864  -0.3733  -0.3674  -0.3622  -0.3517
 -0.3423  -0.3402  -0.3396  -0.3382  -0.2732  -0.2645  -0.2543  -0.2531
 -0.2517  -0.2389  -0.2329  -0.2178

          Ground-State Mulliken Net Atomic Charges

     Atom                 Charge (a.u.)    Spin (a.u.)
  --------------------------------------------------------
      1 C                    -0.664373       0.101963
      2 C                    -0.149455       0.077285
      3 C                    -0.148968       0.077326
      4 C                    -0.664640       0.101929
      5 C                     0.017628       0.065392
      6 C                     0.017586       0.065408
      7 O                    -0.481238       0.241402
      8 O                    -0.481264       0.241406
      9 H                     0.208902      -0.007063
     10 C                    -0.049389       0.026833
     11 C                    -0.518355       0.009043
     12 C                    -0.331371      -0.003072
     13 C                    -0.392045       0.009668
     14 C                    -0.488623      -0.004685
     15 H                     0.208889      -0.007061
     16 H                     0.229630      -0.001743
     17 H                     0.212180      -0.001072
     18 H                     0.209520       0.000339
     19 H                     0.195296      -0.000695
     20 H                     0.209900       0.000406
     21 C                     1.291044      -0.014023
     22 C                    -0.049017       0.026845
     23 C                    -0.517584       0.009035
     24 C                    -0.331444      -0.003077
     25 C                    -0.488439      -0.004689
     26 C                    -0.392009       0.009678
     27 H                     0.229572      -0.001742
     28 H                     0.211767      -0.001073
     29 H                     0.209492       0.000339
     30 H                     0.209879       0.000406
     31 H                     0.195301      -0.000695
     32 C                     1.291628      -0.014014
  --------------------------------------------------------
  Sum of atomic charges =    -1.000000

                    Cartesian Multipole Moments
 -----------------------------------------------------------------
    Charge (ESU x 10^10)
                -4.8032
    Dipole Moment (Debye)
         X       0.0011      Y       9.8950      Z       0.0027
       Tot       9.8950
    Quadrupole Moments (Debye-Ang)
        XX    -158.9977     XY       0.0022     YY    -134.7529
        XZ      -6.3319     YZ      -0.0007     ZZ    -116.6097

 Total job time:  127.89s(wall), 965.73s(cpu)
        *  Thank you very much for using Q-Chem.  Have a nice day.  *
