 Gaussian 16, Revision A.03,
 Gaussian 16:  ES64L-G16RevA.03 25-Dec-2016

 --------------------------------------
 #P UB3LYP/6-311++G(d,p) nosym opt freq
 --------------------------------------

 -------
 Radical
 -------
 Symbolic Z-matrix:
 Charge = -1 Multiplicity = 2

 SCF Done:  E(UB3LYP) =  -843.861107651     A.U. after   24 cycles
 SCF Done:  E(UB3LYP) =  -843.861107278     A.U. after   13 cycles
 SCF Done:  E(UB3LYP) =  -843.861107808     A.U. after   13 cycles
 Optimization completed.
    -- Stationary point found.
 Normal termination of Gaussian 16 at Wed Jan 10 05:17:57 2024.

 ----------------------------------------------------------------------
 #P Geom=AllCheck Guess=TCheck SCRF=Check GenChk UB3LYP/6-311++G(d,p) F
 req
 ----------------------------------------------------------------------

 Structure from the checkpoint file:  "063-rad.chk"
 -------
 Radical
 -------
 Charge = -1 Multiplicity = 2

                          Input orientation:
 ---------------------------------------------------------------------
 Center     Atomic      Atomic             Coordinates (Angstroms)
 Number     Number       Type             X           Y           Z
 ---------------------------------------------------------------------
      1          6           0       -1.470431   -2.066509    1.406788
      2          6           0       -2.050299   -2.060771    0.081028
      3          6           0       -1.789996   -1.081228   -0.827265
      4          6           0       -0.901235    0.025302   -0.545046
      5          6           0       -0.279143    0.035840    0.784798
      6          6           0       -0.581374   -0.944183    1.731686
      7          8           0       -1.741468   -2.985395    2.227626
      8          8           0       -0.674314    0.910937   -1.414381
      9          1           0       -2.237029   -1.090485   -1.817373
     10          6           0        0.520177   -1.992681    3.743495
     11          6           0       -0.247188    0.277390    3.909098
     12          6           0        0.970896   -1.934770    5.059939
     13          6           0        0.812535   -0.770199    5.812011
     14          6           0        0.194562    0.335421    5.228893
     15          1           0       -2.717547   -2.886693   -0.148901
     16          1           0        0.623019   -2.908242    3.176582
     17          1           0       -0.727473    1.142102    3.466678
     18          1           0        1.440640   -2.807360    5.503777
     19          1           0        1.159668   -0.727633    6.839625
     20          1           0        0.054566    1.246732    5.802066
     21          6           0        0.730294    1.102487    1.032543
     22          6           0        0.443438    2.452038    0.770714
     23          6           0        2.018799    0.788058    1.491055
     24          6           0        1.394535    3.445370    0.990338
     25          6           0        2.975104    1.778444    1.703146
     26          6           0        2.666852    3.116259    1.459180
     27          1           0       -0.531517    2.713510    0.381725
     28          1           0        2.269912   -0.248465    1.682567
     29          1           0        1.143233    4.481719    0.785657
     30          1           0        3.962996    1.503027    2.059277
     31          1           0        3.409127    3.890674    1.625359
     32          6           0       -0.084180   -0.881142    3.134137
 ---------------------------------------------------------------------

 SCF Done:  E(UB3LYP) =  -843.861107808     A.U. after    1 cycles

 Alpha  occ. eigenvalues --  -18.94537 -18.94537 -10.09392 -10.09391 -10.07140
 Alpha  occ. eigenvalues --  -10.07140 -10.07124 -10.07123 -10.06983 -10.06983
 Alpha  occ. eigenvalues --  -10.06914 -10.06914 -10.06366 -10.06366 -10.06123
 Alpha  occ. eigenvalues --  -10.06123 -10.05581 -10.05527 -10.04081 -10.04012
 Alpha  occ. eigenvalues --   -0.87045  -0.86770  -0.75546  -0.74786  -0.70441
 Alpha  occ. eigenvalues --   -0.66152  -0.64896  -0.63946  -0.63904  -0.60065
 Alpha  occ. eigenvalues --   -0.55656  -0.51336  -0.50145  -0.49733  -0.49376
 Alpha  occ. eigenvalues --   -0.45825  -0.44148  -0.40483  -0.40405  -0.36369
 Alpha  occ. eigenvalues --   -0.35493  -0.35401  -0.34774  -0.33525  -0.32849
 Alpha  occ. eigenvalues --   -0.31994  -0.31592  -0.31440  -0.30450  -0.27902
 Alpha  occ. eigenvalues --   -0.27409  -0.26918  -0.25991  -0.25692  -0.25568
 Alpha  occ. eigenvalues --   -0.24418  -0.23814  -0.23736  -0.23243  -0.22816
 Alpha  occ. eigenvalues --   -0.16573  -0.15802  -0.14843  -0.14620  -0.14609
 Alpha  occ. eigenvalues --   -0.11062  -0.11035  -0.10440  -0.03270
 Alpha virt. eigenvalues --    0.07096   0.07466   0.07796   0.08880   0.09077
 Alpha virt. eigenvalues --    0.09135   0.09488   0.10003   0.10123   0.10439
 Alpha virt. eigenvalues --    0.11010   0.12120   0.12646   0.12965   0.13195

  Beta  occ. eigenvalues --  -18.93812 -18.93812 -10.09302 -10.09301 -10.07141
  Beta  occ. eigenvalues --  -10.07140 -10.07125 -10.07124 -10.06990 -10.06989
  Beta  occ. eigenvalues --  -10.06920 -10.06920 -10.06348 -10.06348 -10.06106
  Beta  occ. eigenvalues --  -10.06106 -10.05441 -10.05386 -10.03985 -10.03915
  Beta  occ. eigenvalues --   -0.85821  -0.85505  -0.75471  -0.74758  -0.69978
  Beta  occ. eigenvalues --   -0.65913  -0.64800  -0.63928  -0.63887  -0.59877
  Beta  occ. eigenvalues --   -0.54833  -0.51025  -0.50084  -0.49704  -0.49314
  Beta  occ. eigenvalues --   -0.45615  -0.43929  -0.40396  -0.40285  -0.36253
  Beta  occ. eigenvalues --   -0.35321  -0.35300  -0.34689  -0.33375  -0.32657
  Beta  occ. eigenvalues --   -0.31828  -0.31569  -0.31425  -0.30376  -0.27097
  Beta  occ. eigenvalues --   -0.26743  -0.26302  -0.25751  -0.25335  -0.25232
  Beta  occ. eigenvalues --   -0.23815  -0.23713  -0.23244  -0.22651  -0.21292
  Beta  occ. eigenvalues --   -0.15795  -0.15676  -0.14532  -0.14522  -0.12119
  Beta  occ. eigenvalues --   -0.10368  -0.10242  -0.09724
  Beta virt. eigenvalues --    0.03698   0.07097   0.07795   0.08103   0.08906
  Beta virt. eigenvalues --    0.09166   0.09225   0.09490   0.10024   0.10169
  Beta virt. eigenvalues --    0.10447   0.11012   0.12153   0.12678   0.13210

 Mulliken charges and spin densities:
               1          2
     1  C   -0.888619   0.060757
     2  C   -0.009825   0.075193
     3  C   -0.009453   0.075219
     4  C   -0.888925   0.060722
     5  C    0.057131   0.085974
     6  C    0.057727   0.085996
     7  O   -0.351477   0.263227
     8  O   -0.351510   0.263216
     9  H    0.154823  -0.007091
    10  C   -0.057628   0.028341
    11  C   -0.499924   0.010816
    12  C   -0.266175  -0.003728
    13  C   -0.346131   0.010768
    14  C   -0.445381  -0.004672
    15  H    0.154814  -0.007089
    16  H    0.215515  -0.001873
    17  H    0.182503  -0.001212
    18  H    0.142212   0.000453
    19  H    0.121823  -0.000938
    20  H    0.144388   0.000517
    21  C    1.346670  -0.016536
    22  C   -0.057670   0.028350
    23  C   -0.500097   0.010806
    24  C   -0.266463  -0.003736
    25  C   -0.445164  -0.004677
    26  C   -0.346237   0.010785
    27  H    0.215554  -0.001871
    28  H    0.182487  -0.001213
    29  H    0.142206   0.000453
    30  H    0.144391   0.000517
    31  H    0.121824  -0.000939
    32  C    1.346610  -0.016534
 Sum of Mulliken charges =  -1.00000   1.00000

 Dipole moment (field-independent basis, Debye):
    X=              3.2438    Y=              3.0641    Z=             -4.7544  Tot=              6.5204
 Quadrupole moment (field-independent basis, Debye-Ang):
   XX=           -130.5379   YY=           -140.3585   ZZ=           -151.8343
   XY=            -14.8254   XZ=              6.2710   YZ=             17.3108

  Exact polarizability: 205.074  47.677 262.693  42.013 -27.004 266.965
 Approx polarizability: 322.427  47.960 449.579  58.177 -62.603 411.854

                      1                      2                      3
                      A                      A                      A
 Frequencies --     41.8674                57.1875                58.2891
 Red. masses --      7.6761                 3.7327                 5.0138
 Frc consts  --      0.0079                 0.0072                 0.0100
 IR Inten    --      0.1625                 0.1668                 1.2960

                      4                      5                      6
                      A                      A                      A
 Frequencies --     71.0298                88.6114               106.5083
 Red. masses --      4.1130                 4.7998                 7.0023
 Frc consts  --      0.0122                 0.0222                 0.0468
 IR Inten    --      0.4334                 3.0660                 4.5209

                      7                      8                      9
                      A                      A                      A
 Frequencies --    137.0263               219.7866               232.8331
 Red. masses --      6.2587                 5.0892                 6.5354
 Frc consts  --      0.0692                 0.1448                 0.2087
 IR Inten    --      1.7753                 0.0726                 0.7438

                     10                     11                     12
                      A                      A                      A
 Frequencies --    259.5055               300.7791               308.6316
 Red. masses --      5.1276                 7.1960                 6.0394
 Frc consts  --      0.2035                 0.3836                 0.3389
 IR Inten    --      0.1918                 8.6737                 1.2522

                     13                     14                     15
                      A                      A                      A
 Frequencies --    330.7992               389.4712               415.9401
 Red. masses --      4.8973                 5.5740                 2.8951
 Frc consts  --      0.3157                 0.4982                 0.2951
 IR Inten    --      0.3411                 1.0891                 0.0121

                     16                     17                     18
                      A                      A                      A
 Frequencies --    416.6868               442.0290               486.9592
 Red. masses --      2.8940                 8.3051                10.3360
 Frc consts  --      0.2961                 0.9561                 1.4441
 IR Inten    --      0.1783                 4.1859                 0.0635

                     19                     20                     21
                      A                      A                      A
 Frequencies --    499.2645               520.3013               580.3151
 Red. masses --      3.6113                 4.1308                 4.8861
 Frc consts  --      0.5304                 0.6589                 0.9695
 IR Inten    --      4.6719                 6.9783                 0.5930

                     22                     23                     24
                      A                      A                      A
 Frequencies --    588.5385               629.4731               634.0085
 Red. masses --      4.7225                 4.5357                 6.2532
 Frc consts  --      0.9638                 1.0589                 1.4810
 IR Inten    --      1.7274                 1.7863                 0.2331

                     25                     26                     27
                      A                      A                      A
 Frequencies --    640.6526               651.4985               683.5917
 Red. masses --      2.9699                 4.9736                 6.7516
 Frc consts  --      0.7182                 1.2438                 1.8589
 IR Inten    --     19.5126                 2.0139                 2.5086

                     28                     29                     30
                      A                      A                      A
 Frequencies --    701.9045               702.0066               748.6601
 Red. masses --      1.5725                 1.6044                 7.0468
 Frc consts  --      0.4565                 0.4658                 2.3271
 IR Inten    --     63.7135                20.0976                24.4290

                     31                     32                     33
                      A                      A                      A
 Frequencies --    756.7376               761.8808               804.5929
 Red. masses --      2.5188                 2.2908                 5.0297
 Frc consts  --      0.8498                 0.7835                 1.9184
 IR Inten    --      9.7619                32.9279                 3.1661

                     34                     35                     36
                      A                      A                      A
 Frequencies --    837.8866               841.0339               841.2066
 Red. masses --      1.9324                 1.2962                 1.2582
 Frc consts  --      0.7993                 0.5402                 0.5246
 IR Inten    --     36.2581                 5.3140                 0.6837

                     37                     38                     39
                      A                      A                      A
 Frequencies --    887.7953               907.7768               919.0020
 Red. masses --      2.5381                 3.0706                 2.0430
 Frc consts  --      1.1787                 1.4908                 1.0166
 IR Inten    --     16.5700                 2.8606                 0.0169

                     40                     41                     42
                      A                      A                      A
 Frequencies --    924.1913               964.8701               971.4551
 Red. masses --      2.3275                 1.2896                 1.3654
 Frc consts  --      1.1713                 0.7074                 0.7592
 IR Inten    --     14.9226                 0.2053                 1.3251

                     43                     44                     45
                      A                      A                      A
 Frequencies --    971.6460               979.0730               979.7607
 Red. masses --      1.3656                 1.2798                 1.2732
 Frc consts  --      0.7596                 0.7228                 0.7201
 IR Inten    --      0.8676                 0.5886                 0.3753

                     46                     47                     48
                      A                      A                      A
 Frequencies --   1014.5003              1014.9520              1038.1427
 Red. masses --      6.2340                 6.1888                 3.6791
 Frc consts  --      3.7802                 3.7562                 2.3362
 IR Inten    --      0.7253                 3.8107                20.3378

                     49                     50                     51
                      A                      A                      A
 Frequencies --   1049.3367              1060.1441              1093.0494
 Red. masses --      2.2376                 2.1377                 1.8685
 Frc consts  --      1.4516                 1.4156                 1.3153
 IR Inten    --     10.2234                 1.1340                 0.0004

                     52                     53                     54
                      A                      A                      A
 Frequencies --   1095.8500              1101.2605              1172.6061
 Red. masses --      1.6352                 1.6466                 1.0991
 Frc consts  --      1.1570                 1.1766                 0.8904
 IR Inten    --      0.0068                12.5553                 0.0026

                     55                     56                     57
                      A                      A                      A
 Frequencies --   1173.0219              1192.1755              1200.3696
 Red. masses --      1.0955                 1.8181                 1.1382
 Frc consts  --      0.8882                 1.5224                 0.9663
 IR Inten    --      0.0162                56.3825                 1.4842

                     58                     59                     60
                      A                      A                      A
 Frequencies --   1201.7600              1228.4422              1236.1407
 Red. masses --      1.1753                 5.0791                 3.0588
 Frc consts  --      1.0001                 4.5159                 2.7538
 IR Inten    --      1.2033                 3.9380                 6.8798

                     61                     62                     63
                      A                      A                      A
 Frequencies --   1309.6670              1314.5836              1343.4691
 Red. masses --      3.9061                 4.1117                 2.4903
 Frc consts  --      3.9474                 4.1864                 2.6482
 IR Inten    --      4.0613                 0.1624                11.8150

                     64                     65                     66
                      A                      A                      A
 Frequencies --   1350.8502              1355.7685              1413.3784
 Red. masses --      1.5868                 1.6348                 4.3126
 Frc consts  --      1.7060                 1.7705                 5.0759
 IR Inten    --      0.0640                 0.4131                79.1212

                     67                     68                     69
                      A                      A                      A
 Frequencies --   1454.4117              1468.0694              1475.8498
 Red. masses --      3.0249                 2.2835                 3.8992
 Frc consts  --      3.7699                 2.8997                 5.0039
 IR Inten    --     26.9045                 3.7487                74.1216

                     70                     71                     72
                      A                      A                      A
 Frequencies --   1504.8148              1516.6940              1524.5964
 Red. masses --      6.2938                 2.4314                 2.6353
 Frc consts  --      8.3971                 3.2954                 3.6090
 IR Inten    --      2.9386                30.5750                59.6607

                     73                     74                     75
                      A                      A                      A
 Frequencies --   1533.7115              1605.8250              1606.6714
 Red. masses --      5.3921                 5.3380                 5.3716
 Frc consts  --      7.4730                 8.1101                 8.1697
 IR Inten    --    271.1765                10.8472                 1.7227

                     76                     77                     78
                      A                      A                      A
 Frequencies --   1624.8097              1632.3288              1637.5536
 Red. masses --      6.3350                 5.5860                 6.2640
 Frc consts  --      9.8538                 8.7694                 9.8968
 IR Inten    --     57.5911                38.3434                 0.4055

                     79                     80                     81
                      A                      A                      A
 Frequencies --   3136.8988              3137.6539              3137.7425
 Red. masses --      1.0850                 1.0838                 1.0838
 Frc consts  --      6.2904                 6.2864                 6.2869
 IR Inten    --     13.8909                 2.5239                 0.0674

                     82                     83                     84
                      A                      A                      A
 Frequencies --   3149.5714              3149.6180              3159.2593
 Red. masses --      1.0890                 1.0890                 1.0954
 Frc consts  --      6.3647                 6.3650                 6.4418
 IR Inten    --     12.8426                49.7187                55.2274

                     85                     86                     87
                      A                      A                      A
 Frequencies --   3164.8183              3165.2346              3183.0827
 Red. masses --      1.0947                 1.0946                 1.0931
 Frc consts  --      6.4602                 6.4610                 6.5257
 IR Inten    --     57.0688                66.8511                 4.9491

                     88                     89                     90
                      A                      A                      A
 Frequencies --   3183.4382              3203.4901              3203.5846
 Red. masses --      1.0932                 1.0924                 1.0924
 Frc consts  --      6.5272                 6.6054                 6.6057
 IR Inten    --     17.5618                 4.0910                 7.9473

 - Thermochemistry -
 -------------------
 Temperature   298.150 Kelvin.  Pressure   1.00000 Atm.
 Atom     1 has atomic number  6 and mass  12.00000

 Molecular mass:   260.08373 amu.
 Principal axes and moments of inertia in atomic units:
                           1         2         3
     Eigenvalues --  4353.137874809.278538309.56931
           X            0.22143   0.60174   0.76738
           Y            0.69854   0.45122  -0.55538
           Z           -0.68045   0.65902  -0.32043
 This molecule is an asymmetric top.
 Rotational symmetry number  1.
 Warning -- assumption of classical behavior for rotation
           may cause significant error
 Rotational temperatures (Kelvin)      0.01990     0.01801     0.01042
 Rotational constants (GHZ):           0.41458     0.37526     0.21719
 Zero-point vibrational energy     638879.2 (Joules/Mol)
                                  152.69579 (Kcal/Mol)
 Warning -- explicit consideration of  22 degrees of freedom as
           vibrations may cause significant error
 Vibrational temperatures:     60.24    82.28    83.86   102.20   127.49
          (Kelvin)            153.24   197.15   316.22   334.99   373.37
                              432.75   444.05   475.95   560.36   598.45
                              599.52   635.98   700.63   718.33   748.60
                              834.94   846.78   905.67   912.20   921.76
                              937.36   983.54  1009.88  1010.03  1077.15
                             1088.78  1096.18  1157.63  1205.53  1210.06
                             1210.31  1277.34  1306.09  1322.24  1329.71
                             1388.23  1397.71  1397.98  1408.67  1409.66
                             1459.64  1460.29  1493.66  1509.76  1525.31
                             1572.65  1576.68  1584.47  1687.12  1687.72
                             1715.27  1727.06  1729.06  1767.45  1778.53
                             1884.32  1891.39  1932.95  1943.57  1950.65
                             2033.54  2092.57  2112.22  2123.42  2165.09
                             2182.18  2193.55  2206.67  2310.42  2311.64
                             2337.74  2348.56  2356.07  4513.30  4514.38
                             4514.51  4531.53  4531.60  4545.47  4553.47
                             4554.07  4579.75  4580.26  4609.11  4609.24

 Zero-point correction=                           0.243336 (Hartree/Particle)
 Thermal correction to Energy=                    0.258836
 Thermal correction to Enthalpy=                  0.259781
 Thermal correction to Gibbs Free Energy=         0.199003
 Sum of electronic and zero-point Energies=           -843.617772
 Sum of electronic and thermal Energies=              -843.602271
 Sum of electronic and thermal Enthalpies=            -843.601327
 Sum of electronic and thermal Free Energies=         -843.662105

                     E (Thermal)             CV                S
                      KCal/Mol        Cal/Mol-Kelvin    Cal/Mol-Kelvin
 Total                  162.422             61.982            127.917
 Electronic               0.000              0.000              1.377
 Translational            0.889              2.981             42.567
 Rotational               0.889              2.981             33.519
 Vibrational            160.645             56.020             50.453
 Vibration     1          0.594              1.980              5.169
 Vibration     2          0.596              1.975              4.552
 Vibration     3          0.596              1.974              4.514
 Vibration     4          0.598              1.968              4.125
 Vibration     5          0.601              1.957              3.690
 Vibration     6          0.605              1.944              3.332
 Vibration     7          0.614              1.916              2.845
 Vibration     8          0.647              1.811              1.961
 Vibration     9          0.654              1.791              1.857
 Vibration    10          0.668              1.747              1.665
 Vibration    11          0.693              1.672              1.413
 Vibration    12          0.698              1.657              1.370
 Vibration    13          0.713              1.614              1.256
 Vibration    14          0.757              1.493              1.002
 Vibration    15          0.779              1.436              0.906
 Vibration    16          0.780              1.434              0.903
 Vibration    17          0.802              1.378              0.820
 Vibration    18          0.843              1.279              0.692
 Vibration    19          0.855              1.252              0.660
 Vibration    20          0.875              1.205              0.609
 Vibration    21          0.937              1.074              0.485
 Vibration    22          0.946              1.056              0.470

 Optimization completed.
    -- Stationary point found.
 Normal termination of Gaussian 16 at Wed Jan 10 07:54:05 2024.
