 Gaussian 16, Revision A.03,
 Gaussian 16:  ES64L-G16RevA.03 25-Dec-2016

 ----------------------------------------------------------------
 #P UB3LYP/6-311++G(d,p) SCRF=(PCM,Solvent=n,n-DiMethylFormamide)
 ----------------------------------------------------------------

 -------
 Reduced
 -------
 Symbolic Z-matrix:
 Charge = -2 Multiplicity = 1

                         Standard orientation:
 ---------------------------------------------------------------------
 Center     Atomic      Atomic             Coordinates (Angstroms)
 Number     Number       Type             X           Y           Z
 ---------------------------------------------------------------------
      1          8           0       -0.000000    2.978706    0.524851
      2          6           0       -0.000002    1.698301    0.302584
      3          6           0        1.224041    0.968031    0.102538
      4          6           0        2.458066    1.687005   -0.012791
      5          6           0        3.635361    1.085464   -0.396174
      6          6           0        3.687445   -0.308061   -0.688821
      7          6           0        2.531921   -1.061960   -0.511649
      8          6           0        1.341558   -0.464020   -0.093076
      9         16           0        0.000001   -1.497588    0.367498
     10          8           0        0.000009   -1.734682    1.842562
     11          6           0       -1.341562   -0.464019   -0.093062
     12          6           0       -2.531916   -1.061960   -0.511657
     13          6           0       -3.687439   -0.308063   -0.688837
     14          6           0       -3.635361    1.085459   -0.396171
     15          6           0       -2.458074    1.687000   -0.012767
     16          6           0       -1.224045    0.968031    0.102551
     17          1           0        2.401859    2.751302    0.190659
     18          1           0        4.539674    1.686375   -0.487430
     19          1           0        4.611037   -0.778421   -1.014333
     20          1           0        2.535862   -2.134817   -0.681134
     21          1           0       -2.535847   -2.134816   -0.681152
     22          1           0       -4.611025   -0.778422   -1.014366
     23          1           0       -4.539679    1.686366   -0.487421
     24          1           0       -2.401876    2.751293    0.190705
     25          8           0       -0.000005   -2.763359   -0.431351
 ---------------------------------------------------------------------

 SCF Done:  E(UB3LYP) =  -1124.44094909     A.U. after   20 cycles

 The electronic state is 1-A.
 Alpha  occ. eigenvalues --  -89.01897 -19.09023 -19.08813 -19.00828 -10.16927
 Alpha  occ. eigenvalues --  -10.16927 -10.16527 -10.16526 -10.16524 -10.15581
 Alpha  occ. eigenvalues --  -10.15581 -10.14944 -10.14943 -10.14758 -10.14758
 Alpha  occ. eigenvalues --  -10.14635 -10.14635  -8.08275  -6.04590  -6.04438
 Alpha  occ. eigenvalues --   -6.04348  -1.07385  -0.96575  -0.92419  -0.84078
 Alpha  occ. eigenvalues --   -0.83042  -0.76786  -0.73600  -0.73441  -0.71692
 Alpha  occ. eigenvalues --   -0.66872  -0.62158  -0.60104  -0.57036  -0.55221
 Alpha  occ. eigenvalues --   -0.52513  -0.51619  -0.48007  -0.45718  -0.44791
 Alpha  occ. eigenvalues --   -0.44030  -0.43338  -0.42499  -0.41707  -0.40859
 Alpha  occ. eigenvalues --   -0.39549  -0.37290  -0.36722  -0.35798  -0.35057
 Alpha  occ. eigenvalues --   -0.33553  -0.33097  -0.32707  -0.31115  -0.30224
 Alpha  occ. eigenvalues --   -0.30135  -0.28786  -0.27085  -0.24582  -0.24056
 Alpha  occ. eigenvalues --   -0.22200  -0.22162  -0.19367  -0.10170
 Alpha virt. eigenvalues --   -0.01840  -0.01011  -0.00025   0.00805   0.00940
 Alpha virt. eigenvalues --    0.01511   0.02329   0.02603   0.04023   0.04419
 Alpha virt. eigenvalues --    0.04573   0.04680   0.06154   0.06242   0.06859

  Beta  occ. eigenvalues --  -89.01897 -19.09023 -19.08813 -19.00828 -10.16927
  Beta  occ. eigenvalues --  -10.16927 -10.16527 -10.16526 -10.16524 -10.15581
  Beta  occ. eigenvalues --  -10.15581 -10.14944 -10.14943 -10.14758 -10.14758
  Beta  occ. eigenvalues --  -10.14635 -10.14635  -8.08275  -6.04590  -6.04438
  Beta  occ. eigenvalues --   -6.04348  -1.07385  -0.96575  -0.92419  -0.84078
  Beta  occ. eigenvalues --   -0.83042  -0.76786  -0.73600  -0.73441  -0.71692
  Beta  occ. eigenvalues --   -0.66872  -0.62158  -0.60104  -0.57036  -0.55221
  Beta  occ. eigenvalues --   -0.52513  -0.51619  -0.48007  -0.45718  -0.44791
  Beta  occ. eigenvalues --   -0.44030  -0.43338  -0.42499  -0.41707  -0.40859
  Beta  occ. eigenvalues --   -0.39549  -0.37290  -0.36722  -0.35798  -0.35057
  Beta  occ. eigenvalues --   -0.33553  -0.33097  -0.32707  -0.31115  -0.30224
  Beta  occ. eigenvalues --   -0.30135  -0.28786  -0.27085  -0.24582  -0.24056
  Beta  occ. eigenvalues --   -0.22200  -0.22162  -0.19367  -0.10170
  Beta virt. eigenvalues --   -0.01840  -0.01011  -0.00025   0.00805   0.00940
  Beta virt. eigenvalues --    0.01511   0.02329   0.02603   0.04023   0.04419
  Beta virt. eigenvalues --    0.04573   0.04680   0.06154   0.06242   0.06859

 Mulliken charges and spin densities:
               1          2
     1  O   -0.703825  -0.000000
     2  C   -0.122470  -0.000000
     3  C    1.162482  -0.000000
     4  C   -0.005425  -0.000000
     5  C   -0.680319  -0.000000
     6  C   -0.281501   0.000000
     7  C   -0.011701   0.000000
     8  C   -1.265812   0.000000
     9  S    0.191983   0.000000
    10  O   -0.185911  -0.000000
    11  C   -1.265898   0.000000
    12  C   -0.011686   0.000000
    13  C   -0.281515   0.000000
    14  C   -0.680310   0.000000
    15  C   -0.005416  -0.000000
    16  C    1.162502   0.000000
    17  H    0.169134  -0.000000
    18  H    0.156384  -0.000000
    19  H    0.163551   0.000000
    20  H    0.190073   0.000000
    21  H    0.190075   0.000000
    22  H    0.163550   0.000000
    23  H    0.156384  -0.000000
    24  H    0.169133   0.000000
    25  O   -0.373459  -0.000000
 Sum of Mulliken charges =  -2.00000  -0.00000

 Dipole moment (field-independent basis, Debye):
    X=              0.0000    Y=             -3.8625    Z=             -4.2388  Tot=              5.7347
 Quadrupole moment (field-independent basis, Debye-Ang):
   XX=           -128.7553   YY=           -167.0212   ZZ=           -130.1168
   XY=              0.0000   XZ=             -0.0000   YZ=             -0.5110

 Normal termination of Gaussian 16 at Sat Jan 13 19:22:31 2024.
