 Gaussian 16, Revision A.03,
 Gaussian 16:  ES64L-G16RevA.03 25-Dec-2016

 --------------------------------------
 #P UB3LYP/6-311++G(d,p) nosym opt freq
 --------------------------------------

 -------
 Reduced
 -------
 Symbolic Z-matrix:
 Charge = -2 Multiplicity = 1

 SCF Done:  E(UB3LYP) =  -1124.17981351     A.U. after   44 cycles
 Optimization completed.
    -- Stationary point found.
 Normal termination of Gaussian 16 at Tue Jan  9 20:38:54 2024.

 ----------------------------------------------------------------------
 #P Geom=AllCheck Guess=TCheck SCRF=Check GenChk UB3LYP/6-311++G(d,p) F
 req
 ----------------------------------------------------------------------

 Structure from the checkpoint file:  "339-an.chk"
 -------
 Reduced
 -------
 Charge = -2 Multiplicity = 1

                          Input orientation:
 ---------------------------------------------------------------------
 Center     Atomic      Atomic             Coordinates (Angstroms)
 Number     Number       Type             X           Y           Z
 ---------------------------------------------------------------------
      1          8           0       -0.018714   -2.551346   -0.599557
      2          6           0       -0.019961   -1.302469   -0.240189
      3          6           0        1.203012   -0.598538    0.043380
      4          6           0        2.436590   -1.326205    0.086120
      5          6           0        3.611971   -0.770050    0.537814
      6          6           0        3.662460    0.583658    0.979621
      7          6           0        2.507668    1.352702    0.879546
      8          6           0        1.319384    0.803935    0.393195
      9         16           0       -0.020146    1.881711    0.040737
     10          8           0       -0.013218    2.276862   -1.400039
     11          6           0       -1.363706    0.804892    0.380558
     12          6           0       -2.556113    1.354506    0.855730
     13          6           0       -3.712342    0.586286    0.944941
     14          6           0       -3.658670   -0.767454    0.503606
     15          6           0       -2.479495   -1.324446    0.062968
     16          6           0       -1.245047   -0.597664    0.031849
     17          1           0        2.381508   -2.362254   -0.231445
     18          1           0        4.515937   -1.377627    0.567834
     19          1           0        4.584434    1.015747    1.358411
     20          1           0        2.510644    2.400951    1.164024
     21          1           0       -2.561009    2.402755    1.140181
     22          1           0       -4.637526    1.019030    1.315057
     23          1           0       -4.563315   -1.374382    0.525110
     24          1           0       -2.422174   -2.360529   -0.254090
     25          8           0       -0.024114    3.053714    0.971719
 ---------------------------------------------------------------------

 SCF Done:  E(UB3LYP) =  -1124.17981351     A.U. after    2 cycles

 Alpha  occ. eigenvalues --  -88.77839 -18.84770 -18.84211 -18.76097  -9.93786
 Alpha  occ. eigenvalues --   -9.93786  -9.93547  -9.93547  -9.93246  -9.93246
 Alpha  occ. eigenvalues --   -9.92791  -9.92531  -9.92531  -9.91809  -9.91809
 Alpha  occ. eigenvalues --   -9.91306  -9.91305  -7.84195  -5.80498  -5.80357
 Alpha  occ. eigenvalues --   -5.80289  -0.82954  -0.72024  -0.67700  -0.60777
 Alpha  occ. eigenvalues --   -0.60079  -0.53660  -0.50485  -0.50401  -0.48767
 Alpha  occ. eigenvalues --   -0.43497  -0.39281  -0.37181  -0.34214  -0.31958
 Alpha  occ. eigenvalues --   -0.29718  -0.28642  -0.24416  -0.23066  -0.21919
 Alpha  occ. eigenvalues --   -0.20502  -0.20234  -0.18754  -0.18619  -0.17989
 Alpha  occ. eigenvalues --   -0.16822  -0.14402  -0.13427  -0.12262  -0.11918
 Alpha  occ. eigenvalues --   -0.10513  -0.10352  -0.08374  -0.07224  -0.06109
 Alpha  occ. eigenvalues --   -0.05811  -0.04543  -0.03005  -0.01018  -0.00905
 Alpha  occ. eigenvalues --    0.01050   0.01923   0.05540   0.13783
 Alpha virt. eigenvalues --    0.15884   0.15885   0.17654   0.17682   0.19788
 Alpha virt. eigenvalues --    0.20895   0.21100   0.21335   0.21760   0.22839
 Alpha virt. eigenvalues --    0.23683   0.24559   0.25413   0.26339   0.26620

  Beta  occ. eigenvalues --  -88.77839 -18.84770 -18.84211 -18.76097  -9.93786
  Beta  occ. eigenvalues --   -9.93786  -9.93547  -9.93547  -9.93246  -9.93246
  Beta  occ. eigenvalues --   -9.92791  -9.92531  -9.92531  -9.91809  -9.91809
  Beta  occ. eigenvalues --   -9.91306  -9.91305  -7.84195  -5.80498  -5.80357
  Beta  occ. eigenvalues --   -5.80289  -0.82954  -0.72024  -0.67700  -0.60777
  Beta  occ. eigenvalues --   -0.60079  -0.53660  -0.50485  -0.50401  -0.48767
  Beta  occ. eigenvalues --   -0.43497  -0.39281  -0.37181  -0.34214  -0.31958
  Beta  occ. eigenvalues --   -0.29718  -0.28642  -0.24416  -0.23066  -0.21919
  Beta  occ. eigenvalues --   -0.20502  -0.20234  -0.18754  -0.18619  -0.17989
  Beta  occ. eigenvalues --   -0.16822  -0.14402  -0.13427  -0.12262  -0.11918
  Beta  occ. eigenvalues --   -0.10513  -0.10352  -0.08374  -0.07224  -0.06109
  Beta  occ. eigenvalues --   -0.05811  -0.04543  -0.03005  -0.01018  -0.00905
  Beta  occ. eigenvalues --    0.01050   0.01923   0.05540   0.13783
  Beta virt. eigenvalues --    0.15884   0.15885   0.17654   0.17682   0.19788
  Beta virt. eigenvalues --    0.20895   0.21100   0.21335   0.21760   0.22839
  Beta virt. eigenvalues --    0.23683   0.24559   0.25413   0.26339   0.26620

 Mulliken charges and spin densities:
               1          2
     1  O   -0.540935  -0.000000
     2  C   -0.452301  -0.000000
     3  C    1.418228   0.000000
     4  C   -0.035050  -0.000000
     5  C   -0.510169  -0.000000
     6  C   -0.174411   0.000000
     7  C   -0.077530   0.000000
     8  C   -1.298879  -0.000000
     9  S    0.096936  -0.000000
    10  O   -0.089499  -0.000000
    11  C   -1.299012   0.000000
    12  C   -0.077480   0.000000
    13  C   -0.174444  -0.000000
    14  C   -0.510202   0.000000
    15  C   -0.035026  -0.000000
    16  C    1.418302  -0.000000
    17  H    0.150801   0.000000
    18  H    0.036390  -0.000000
    19  H    0.004442   0.000000
    20  H    0.140998  -0.000000
    21  H    0.141006   0.000000
    22  H    0.004465   0.000000
    23  H    0.036399   0.000000
    24  H    0.150798   0.000000
    25  O   -0.323829  -0.000000
 Sum of Mulliken charges =  -2.00000   0.00000

 Dipole moment (field-independent basis, Debye):
    X=              0.1974    Y=             -0.9531    Z=              0.0611  Tot=              0.9752
 Quadrupole moment (field-independent basis, Debye-Ang):
   XX=           -160.8980   YY=           -164.5697   ZZ=           -132.4668
   XY=              0.0388   XZ=             -0.1368   YZ=             -4.3466

  Exact polarizability:********  -4.812 305.655  47.920 119.880 360.666
 Approx polarizability:1394.523  -0.773 436.971   5.156  94.030 310.377

                      1                      2                      3
                      A                      A                      A
 Frequencies --     47.4836                97.3229               112.1631
 Red. masses --      6.5849                 3.8424                 5.7958
 Frc consts  --      0.0087                 0.0214                 0.0430
 IR Inten    --      4.0217              1660.5727                 4.5942

                      4                      5                      6
                      A                      A                      A
 Frequencies --    150.2560               160.3848               213.1663
 Red. masses --      6.5330                 8.0181                 5.4021
 Frc consts  --      0.0869                 0.1215                 0.1446
 IR Inten    --      2.3840               127.6980                 0.7744

                      7                      8                      9
                      A                      A                      A
 Frequencies --    242.9585               290.4515               293.4847
 Red. masses --      8.0300                 8.1017                 9.8567
 Frc consts  --      0.2793                 0.4027                 0.5002
 IR Inten    --      1.6508              3075.1922                11.0320

                     10                     11                     12
                      A                      A                      A
 Frequencies --    321.0909               323.9249               380.2012
 Red. masses --      9.2018                 8.0388                 7.1078
 Frc consts  --      0.5590                 0.4970                 0.6054
 IR Inten    --    725.8489                74.6441              3177.0499

                     13                     14                     15
                      A                      A                      A
 Frequencies --    382.1692               404.7633               446.0293
 Red. masses --      7.6773                 3.8027                 3.5504
 Frc consts  --      0.6606                 0.3671                 0.4162
 IR Inten    --     18.5541                 7.3553              3279.1850

                     16                     17                     18
                      A                      A                      A
 Frequencies --    463.6897               498.3370               534.2544
 Red. masses --      4.2053                 8.7856                11.5303
 Frc consts  --      0.5327                 1.2855                 1.9390
 IR Inten    --   1247.3497                61.0131                44.2398

                     19                     20                     21
                      A                      A                      A
 Frequencies --    553.4246               565.2617               607.1743
 Red. masses --      8.0539                 5.4597                 2.7285
 Frc consts  --      1.4534                 1.0278                 0.5926
 IR Inten    --   5546.7379               130.6486                39.3507

                     22                     23                     24
                      A                      A                      A
 Frequencies --    610.8522               628.3452               656.5952
 Red. masses --      1.7720                 6.9693                 1.5463
 Frc consts  --      0.3896                 1.6212                 0.3928
 IR Inten    --  20955.5487                 5.0917                43.3340

                     25                     26                     27
                      A                      A                      A
 Frequencies --    670.3942               682.7943               725.9827
 Red. masses --      5.8313                 2.4079                 2.9311
 Frc consts  --      1.5441                 0.6614                 0.9102
 IR Inten    --      5.4618              1734.3361                40.6488

                     28                     29                     30
                      A                      A                      A
 Frequencies --    738.0541               760.0621               775.9257
 Red. masses --      6.4543                 5.3199                 1.3609
 Frc consts  --      2.0715                 1.8107                 0.4828
 IR Inten    --    164.5271                46.4633              4245.9571

                     31                     32                     33
                      A                      A                      A
 Frequencies --    795.0868               905.1930               907.3625
 Red. masses --      2.0199                 1.3319                 1.2792
 Frc consts  --      0.7523                 0.6430                 0.6205
 IR Inten    --     22.2634                24.5629                13.2975

                     34                     35                     36
                      A                      A                      A
 Frequencies --    919.5568               947.4640               950.4676
 Red. masses --      5.4785                 1.3657                 1.4005
 Frc consts  --      2.7294                 0.7223                 0.7454
 IR Inten    --     56.5395              4882.4663               184.7719

                     37                     38                     39
                      A                      A                      A
 Frequencies --    980.2661               992.1286               996.2159
 Red. masses --      4.1859                 2.6548                 4.1532
 Frc consts  --      2.3699                 1.5396                 2.4285
 IR Inten    --    398.3960              2667.4066               126.1859

                     40                     41                     42
                      A                      A                      A
 Frequencies --   1023.8198              1053.0706              1099.3726
 Red. masses --      3.1663                 3.7847                 1.6500
 Frc consts  --      1.9554                 2.4729                 1.1749
 IR Inten    --    351.8954               372.9574               609.1647

                     43                     44                     45
                      A                      A                      A
 Frequencies --   1108.4392              1131.8277              1150.1198
 Red. masses --      1.8889                11.5536                 1.2603
 Frc consts  --      1.3674                 8.7202                 0.9822
 IR Inten    --     41.3620               112.8393                62.7337

                     46                     47                     48
                      A                      A                      A
 Frequencies --   1151.4791              1186.0482              1217.4244
 Red. masses --      1.2099                 2.4298                 1.7834
 Frc consts  --      0.9452                 2.0138                 1.5574
 IR Inten    --    176.5660                12.9995               438.3862

                     49                     50                     51
                      A                      A                      A
 Frequencies --   1219.0986              1317.4740              1319.1358
 Red. masses --      2.4827                 4.6279                 2.7925
 Frc consts  --      2.1739                 4.7328                 2.8630
 IR Inten    --    470.0130              1620.9285               512.4816

                     52                     53                     54
                      A                      A                      A
 Frequencies --   1339.0937              1390.2066              1423.5751
 Red. masses --      3.1159                 6.8672                 2.3987
 Frc consts  --      3.2920                 7.8197                 2.8641
 IR Inten    --   1290.6682               931.4363              4667.5354

                     55                     56                     57
                      A                      A                      A
 Frequencies --   1435.7887              1453.1903              1461.6273
 Red. masses --      2.4968                 3.1130                 3.4508
 Frc consts  --      3.0326                 3.8732                 4.3435
 IR Inten    --     72.4066               372.6425                 8.6042

                     58                     59                     60
                      A                      A                      A
 Frequencies --   1493.9969              1501.3829              1570.1910
 Red. masses --      3.6569                 3.7849                 4.8055
 Frc consts  --      4.8091                 5.0268                 6.9806
 IR Inten    --     66.9228               144.0176              4850.9317

                     61                     62                     63
                      A                      A                      A
 Frequencies --   1572.0024              3091.7930              3091.8165
 Red. masses --      5.1986                 1.0843                 1.0846
 Frc consts  --      7.5691                 6.1070                 6.1090
 IR Inten    --    171.1767                96.6913               795.3881

                     64                     65                     66
                      A                      A                      A
 Frequencies --   3130.6970              3130.7748              3153.1539
 Red. masses --      1.0872                 1.0874                 1.0925
 Frc consts  --      6.2782                 6.2798                 6.4000
 IR Inten    --     55.0047                 2.5774              1988.7133

                     67                     68                     69
                      A                      A                      A
 Frequencies --   3154.3217              3166.3522              3167.1201
 Red. masses --      1.0927                 1.0903                 1.0906
 Frc consts  --      6.4058                 6.4407                 6.4451
 IR Inten    --     40.2383               705.3989                23.5036

 - Thermochemistry -
 -------------------
 Temperature   298.150 Kelvin.  Pressure   1.00000 Atm.
 Atom     1 has atomic number  8 and mass  15.99491

 Molecular mass:   244.01942 amu.
 Principal axes and moments of inertia in atomic units:
                           1         2         3
     Eigenvalues --  2485.282854367.383336192.20921
           X            0.99999  -0.00012  -0.00472
           Y           -0.00036   0.99492  -0.10070
           Z            0.00470   0.10071   0.99491
 This molecule is an asymmetric top.
 Rotational symmetry number  1.
 Warning -- assumption of classical behavior for rotation
           may cause significant error
 Rotational temperatures (Kelvin)      0.03485     0.01983     0.01399
 Rotational constants (GHZ):           0.72617     0.41323     0.29145
 Zero-point vibrational energy     451202.3 (Joules/Mol)
                                  107.83994 (Kcal/Mol)
 Warning -- explicit consideration of  22 degrees of freedom as
           vibrations may cause significant error
 Vibrational temperatures:     68.32   140.03   161.38   216.18   230.76
          (Kelvin)            306.70   349.56   417.89   422.26   461.98
                              466.06   547.02   549.86   582.36   641.74
                              667.15   717.00   768.67   796.25   813.29
                              873.59   878.88   904.05   944.69   964.55
                              982.39  1044.53  1061.90  1093.56  1116.38
                             1143.95  1302.37  1305.49  1323.04  1363.19
                             1367.51  1410.38  1427.45  1433.33  1473.05
                             1515.13  1581.75  1594.80  1628.45  1654.77
                             1656.72  1706.46  1751.60  1754.01  1895.55
                             1897.94  1926.66  2000.20  2048.21  2065.78
                             2090.82  2102.96  2149.53  2160.16  2259.15
                             2261.76  4448.40  4448.43  4504.37  4504.49
                             4536.69  4538.37  4555.67  4556.78

 Zero-point correction=                           0.171854 (Hartree/Particle)
 Thermal correction to Energy=                    0.185156
 Thermal correction to Enthalpy=                  0.186100
 Thermal correction to Gibbs Free Energy=         0.132309
 Sum of electronic and zero-point Energies=          -1124.007960
 Sum of electronic and thermal Energies=             -1123.994657
 Sum of electronic and thermal Enthalpies=           -1123.993713
 Sum of electronic and thermal Free Energies=        -1124.047504

                     E (Thermal)             CV                S
                      KCal/Mol        Cal/Mol-Kelvin    Cal/Mol-Kelvin
 Total                  116.187             54.183            113.213
 Electronic               0.000              0.000              0.000
 Translational            0.889              2.981             42.377
 Rotational               0.889              2.981             32.574
 Vibrational            114.410             48.221             38.262
 Vibration     1          0.595              1.979              4.920
 Vibration     2          0.603              1.951              3.507
 Vibration     3          0.607              1.939              3.231
 Vibration     4          0.618              1.902              2.669
 Vibration     5          0.622              1.891              2.545
 Vibration     6          0.644              1.821              2.016
 Vibration     7          0.659              1.774              1.781
 Vibration     8          0.686              1.691              1.471
 Vibration     9          0.688              1.686              1.454
 Vibration    10          0.707              1.633              1.305
 Vibration    11          0.708              1.628              1.290
 Vibration    12          0.750              1.512              1.038
 Vibration    13          0.752              1.508              1.031
 Vibration    14          0.770              1.460              0.945
 Vibration    15          0.805              1.370              0.808
 Vibration    16          0.821              1.331              0.755
 Vibration    17          0.854              1.254              0.662
 Vibration    18          0.889              1.174              0.578
 Vibration    19          0.909              1.132              0.537
 Vibration    20          0.921              1.106              0.513
 Vibration    21          0.966              1.017              0.437
 Vibration    22          0.970              1.009              0.431

 Optimization completed.
    -- Stationary point found.
 Normal termination of Gaussian 16 at Tue Jan  9 21:28:20 2024.
