 Q-Chem 5.4, Q-Chem, Inc., Pleasanton, CA (2021)
 Q-Chem 5.4.0 for Intel X86 EM64T Linux

User input:
--------------------------------------------------------------
$molecule
-1 2
C                  5.4100280000     -3.7686130000     -2.5262720000
O                  4.6033830000     -2.8502750000     -1.8213220000
C                  5.1728310000     -2.0799700000     -0.8505810000
C                  6.5208180000     -2.1786790000     -0.5359010000
C                  7.0795900000     -1.3693670000      0.4710650000
C                  6.2933780000     -0.4712230000      1.1530080000
C                  4.9203830000     -0.3480480000      0.8574720000
C                  4.1642530000      0.6492160000      1.6447320000
O                  4.7570220000      1.3305280000      2.5040890000
C                  2.7332220000      0.7763840000      1.3530930000
C                  1.8995720000      1.6979650000      2.0421130000
O                  2.4598550000      2.5004700000      3.0105660000
C                  0.5426700000      1.8181540000      1.7421450000
C                 -0.2858550000      2.9053710000      2.3977830000
C                 -1.4593210000      3.3251200000      1.5151340000
O                 -2.2047810000      4.3108290000      2.2648330000
C                 -2.3119380000      2.1004670000      1.2140680000
C                 -1.5402950000      0.9929240000      0.4810120000
O                 -2.1561470000     -0.2689680000      0.8782990000
C                 -2.7511250000     -1.0039050000     -0.1280540000
C                 -2.9430730000     -2.4369970000      0.3502070000
C                 -3.7600910000     -3.2688010000     -0.6637360000
N                 -3.0235210000     -3.6689020000     -1.8770290000
C                 -5.0408140000     -2.5025830000     -1.0648470000
O                 -5.9625100000     -2.4503480000      0.0275210000
C                 -4.6840840000     -1.0815140000     -1.5302690000
C                 -5.8781830000     -0.2448060000     -1.9628500000
O                 -4.0407230000     -0.4098730000     -0.4387620000
C                 -0.0581140000      0.9659300000      0.7838920000
C                  0.7417510000      0.0695680000      0.0736260000
O                  0.1713960000     -0.6943760000     -0.8753410000
C                  2.1426840000     -0.0401170000      0.3378630000
C                  2.9079220000     -1.0065410000     -0.4371920000
O                  2.3144960000     -1.7018840000     -1.3388630000
C                  4.3237700000     -1.1527320000     -0.1555370000
C                 -1.0427880000      4.0690100000      0.2238130000
O                 -1.7604890000      4.0583350000     -0.7588820000
C                  0.2117450000      4.9231150000      0.2101180000
O                  0.2909640000      5.6997560000     -0.9628430000
H                  4.7441970000     -4.2570110000     -3.2381290000
H                  5.8461890000     -4.5260370000     -1.8620680000
H                  6.2189140000     -3.2680830000     -3.0741120000
H                  7.1558360000     -2.8781780000     -1.0618050000
H                  8.1364800000     -1.4625990000      0.7007520000
H                  6.6919710000      0.1670280000      1.9306240000
H                  1.7523560000      2.8843600000      3.5356420000
H                  0.3238790000      3.7873480000      2.6196460000
H                 -0.7213550000      2.5831310000      3.3533090000
H                 -3.0423840000      4.4539820000      1.8078980000
H                 -3.1957250000      2.3715280000      0.6318740000
H                 -2.6502780000      1.7012350000      2.1736900000
H                 -1.6800100000      1.0981440000     -0.5979920000
H                 -2.1412970000     -0.9608190000     -1.0387480000
H                 -1.9624500000     -2.8904040000      0.5148080000
H                 -3.4554850000     -2.4020560000      1.3175660000
H                 -4.0909670000     -4.1916550000     -0.1796690000
H                 -2.4734060000     -2.9000250000     -2.2482170000
H                 -2.3558310000     -4.3983350000     -1.6485790000
H                 -5.5379000000     -3.0528440000     -1.8665750000
H                 -5.6558800000     -1.7481140000      0.6161090000
H                 -3.9805080000     -1.1566490000     -2.3734910000
H                 -6.3741260000     -0.7095020000     -2.8198000000
H                 -5.5471930000      0.7554880000     -2.2500240000
H                 -6.6050820000     -0.1549410000     -1.1536430000
H                  0.9749980000     -1.2501090000     -1.2483670000
H                  0.2055690000      5.5769270000      1.0901880000
H                  1.0802770000      4.2560770000      0.3015240000
H                 -0.4186710000      5.3774970000     -1.5405870000
$end
$rem
MAX_SCF_CYCLES=200
SCF_Guess=core
BASIS  =  6-311++G(d,p)
GUI  =  2
JOB_TYPE  =  SP
METHOD  =  B3LYP
THRESH = 14
SCF_CONVERGENCE = 8
SOLVENT_METHOD = COSMO
$end
$solvent
dielectric 37.219
opticaldielectric 1.43
$end

--------------------------------------------------------------

             Standard Nuclear Orientation (Angstroms)
    I     Atom           X                Y                Z
 ----------------------------------------------------------------
    1      C       5.2318609015    -4.3807670899    -1.4826539484
    2      O       4.3983453327    -3.3119341134    -1.0904509324
    3      C       4.9610932250    -2.2140896956    -0.5090462964
    4      C       6.3283637938    -2.1228956545    -0.2897502413
    5      C       6.8795430429    -0.9761677416     0.3122540076
    6      C       6.0666129319     0.0665793901     0.6886331555
    7      C       4.6736551913     0.0038123157     0.4804075444
    8      C       3.8890301713     1.1785130911     0.9168568958
    9      O       4.4755088445     2.1543620582     1.4246138667
   10      C       2.4382163193     1.1179040869     0.7155103161
   11      C       1.5766656970     2.1825987423     1.0939125335
   12      O       2.1276857822     3.3091097754     1.6624037703
   13      C       0.1997052119     2.1162701196     0.8813341465
   14      C      -0.6713695612     3.3232664662     1.1689871089
   15      C      -1.9218366317     3.3338912857     0.2923457043
   16      O      -2.6970847521     4.4847705689     0.6971279450
   17      C      -2.6935190498     2.0414772676     0.5193780961
   18      C      -1.8818988877     0.7845930368     0.1715703071
   19      O      -2.3753911999    -0.2772276876     1.0424802639
   20      C      -2.9682923501    -1.3563737933     0.4173486907
   21      C      -3.0220650734    -2.5264655828     1.3906543969
   22      C      -3.8289760841    -3.7098704179     0.8110473481
   23      N      -3.1339051158    -4.4842810061    -0.2338740216
   24      C      -5.1855010807    -3.2077728091     0.2670166638
   25      O      -6.0449795156    -2.8103890939     1.3388855278
   26      C      -4.9660473735    -2.0357821740    -0.7033384544
   27      C      -6.2435490823    -1.4750606268    -1.3088628149
   28      O      -4.3152854655    -0.9821969477     0.0197588075
   29      C      -0.3872301548     0.9451153673     0.3433941921
   30      C       0.4375455943    -0.1055408335    -0.0610723149
   31      O      -0.1253579111    -1.1896198341    -0.6244247732
   32      C       1.8554997985    -0.0401350649     0.1109544917
   33      C       2.6475137140    -1.1812463752    -0.3259136036
   34      O       2.0590572368    -2.1855235023    -0.8679591033
   35      C       4.0841093167    -1.1427359328    -0.1258213080
   36      C      -1.6376937004     3.5794054454    -1.2087764057
   37      O      -2.4070790602     3.1765447682    -2.0612126714
   38      C      -0.4553237894     4.4334709092    -1.6284304647
   39      O      -0.5027492172     4.7351005156    -3.0039502973
   40      H       4.5662011558    -5.1273676450    -1.9163458085
   41      H       5.7619484546    -4.8225436868    -0.6288769800
   42      H       5.9674741924    -4.0721533735    -2.2367004773
   43      H       6.9843826232    -2.9319648899    -0.5798674529
   44      H       7.9518024437    -0.9255824844     0.4740121759
   45      H       6.4584731544     0.9627897854     1.1514288508
   46      H       1.4237278839     3.8204665942     2.0705565043
   47      H      -0.1196176288     4.2556501856     1.0105176323
   48      H      -1.0258636430     3.3474504263     2.2083512829
   49      H      -3.5677985107     4.4094946614     0.2884076865
   50      H      -3.6271474288     2.0374653551    -0.0479184184
   51      H      -2.9451476558     2.0004705768     1.5822685064
   52      H      -2.0903179787     0.4842559064    -0.8585754361
   53      H      -2.4162673443    -1.6151634616    -0.4944662330
   54      H      -2.0017361344    -2.8385505937     1.6269268395
   55      H      -3.4798999299    -2.1695397627     2.3193963251
   56      H      -4.0599277436    -4.4101455802     1.6183486062
   57      H      -2.6664748603    -3.8751596999    -0.8987492552
   58      H      -2.4002375487    -5.0461060574     0.1858358219
   59      H      -5.6835353030    -4.0358812807    -0.2417541276
   60      H      -5.7603104955    -1.9278598289     1.6103556492
   61      H      -4.3077865447    -2.3753327315    -1.5176393185
   62      H      -6.7501569649    -2.2435007815    -1.8997209333
   63      H      -6.0072580398    -0.6313475328    -1.9607263981
   64      H      -6.9280893941    -1.1353254655    -0.5295949374
   65      H       0.6961029418    -1.8008604066    -0.8373819713
   66      H      -0.4617600813     5.3605821269    -1.0432340504
   67      H       0.4656910659     3.8903153258    -1.3747451601
   68      H      -1.2171680114     4.1894769114    -3.3688084819
 ----------------------------------------------------------------

   35   -1929.1507151270      9.88e-09  Convergence criterion met
 Total energy in the final basis set =    -1929.1507151270
   14   -1929.2577468502      4.43e-09  Convergence criterion met
 Total energy in the final basis set =    -1929.2577468502

                    Orbital Energies (a.u.)
 --------------------------------------------------------------

 Alpha MOs
 -- Occupied --
-19.1540 -19.1498 -19.1488 -19.1483 -19.1370 -19.1364 -19.1286 -19.1277
-19.1209 -19.0931 -19.0772 -14.2976 -10.2852 -10.2658 -10.2567 -10.2427
-10.2400 -10.2360 -10.2357 -10.2353 -10.2335 -10.2331 -10.2235 -10.2185
-10.2144 -10.2017 -10.1913 -10.1899 -10.1836 -10.1824 -10.1808 -10.1789
-10.1783 -10.1751 -10.1749 -10.1702 -10.1654 -10.1634 -10.1573  -1.0896
 -1.0750  -1.0733  -1.0629  -1.0531  -1.0479  -1.0356  -1.0344  -1.0108
 -1.0102  -1.0055  -0.8916  -0.8708  -0.8589  -0.8298  -0.7899  -0.7852
 -0.7685  -0.7628  -0.7566  -0.7505  -0.7404  -0.7246  -0.7001  -0.6958
 -0.6730  -0.6670  -0.6467  -0.6374  -0.6212  -0.6170  -0.6074  -0.5944
 -0.5741  -0.5711  -0.5699  -0.5613  -0.5513  -0.5381  -0.5279  -0.5210
 -0.5184  -0.5047  -0.5027  -0.5004  -0.4922  -0.4861  -0.4847  -0.4834
 -0.4742  -0.4723  -0.4708  -0.4698  -0.4685  -0.4557  -0.4490  -0.4434
 -0.4423  -0.4408  -0.4370  -0.4294  -0.4228  -0.4213  -0.4163  -0.4090
 -0.4060  -0.4036  -0.4030  -0.3978  -0.3945  -0.3930  -0.3909  -0.3895
 -0.3854  -0.3805  -0.3802  -0.3711  -0.3708  -0.3666  -0.3646  -0.3624
 -0.3608  -0.3569  -0.3544  -0.3481  -0.3413  -0.3348  -0.3268  -0.3254
 -0.3222  -0.3208  -0.3093  -0.2975  -0.2971  -0.2870  -0.2762  -0.2711
 -0.2608  -0.2536  -0.2515  -0.2512  -0.2370  -0.2355  -0.2155  -0.1440

 Beta MOs
 -- Occupied --
-19.1539 -19.1496 -19.1488 -19.1482 -19.1368 -19.1364 -19.1286 -19.1277
-19.1206 -19.0886 -19.0722 -14.2976 -10.2852 -10.2658 -10.2567 -10.2425
-10.2375 -10.2357 -10.2356 -10.2353 -10.2333 -10.2318 -10.2235 -10.2185
-10.2144 -10.2017 -10.1903 -10.1900 -10.1835 -10.1818 -10.1808 -10.1779
-10.1772 -10.1749 -10.1744 -10.1698 -10.1654 -10.1634 -10.1573  -1.0896
 -1.0748  -1.0729  -1.0622  -1.0510  -1.0479  -1.0355  -1.0344  -1.0101
 -1.0019  -0.9991  -0.8916  -0.8689  -0.8571  -0.8287  -0.7894  -0.7822
 -0.7683  -0.7612  -0.7561  -0.7491  -0.7393  -0.7229  -0.6995  -0.6956
 -0.6682  -0.6657  -0.6447  -0.6366  -0.6203  -0.6169  -0.6065  -0.5930
 -0.5731  -0.5708  -0.5691  -0.5610  -0.5511  -0.5367  -0.5277  -0.5200
 -0.5175  -0.5043  -0.5025  -0.4996  -0.4910  -0.4856  -0.4843  -0.4833
 -0.4731  -0.4717  -0.4702  -0.4689  -0.4682  -0.4546  -0.4483  -0.4424
 -0.4406  -0.4380  -0.4354  -0.4281  -0.4212  -0.4162  -0.4134  -0.4077
 -0.4044  -0.4033  -0.3982  -0.3969  -0.3939  -0.3910  -0.3904  -0.3880
 -0.3850  -0.3799  -0.3739  -0.3710  -0.3682  -0.3646  -0.3621  -0.3591
 -0.3568  -0.3529  -0.3518  -0.3476  -0.3403  -0.3343  -0.3266  -0.3252
 -0.3204  -0.3177  -0.3032  -0.2970  -0.2967  -0.2865  -0.2752  -0.2608
 -0.2558  -0.2519  -0.2493  -0.2467  -0.2327  -0.2282  -0.2072

          Ground-State Mulliken Net Atomic Charges

     Atom                 Charge (a.u.)    Spin (a.u.)
  --------------------------------------------------------
      1 C                    -0.295250      -0.000627
      2 O                    -0.182866       0.004051
      3 C                     0.025135       0.029683
      4 C                    -0.166314       0.035274
      5 C                    -0.418606       0.060566
      6 C                    -0.074775       0.019178
      7 C                     0.170612       0.073630
      8 C                    -0.548815       0.066479
      9 O                    -0.447211       0.188649
     10 C                     0.003044       0.026633
     11 C                    -0.230394       0.024671
     12 O                    -0.285384       0.006177
     13 C                     0.253890       0.069217
     14 C                    -0.448458       0.000419
     15 C                     0.385460      -0.001253
     16 O                    -0.181747      -0.000077
     17 C                    -0.825544      -0.007310
     18 C                    -0.604467      -0.009009
     19 O                     0.115007       0.001032
     20 C                    -0.058781       0.006982
     21 C                    -0.682046       0.003270
     22 C                     0.109225      -0.000989
     23 N                    -0.474131       0.000046
     24 C                    -0.360428      -0.000048
     25 O                    -0.252528      -0.000004
     26 C                    -0.184365       0.000334
     27 C                    -0.597088       0.000407
     28 O                    -0.059098      -0.000215
     29 C                     0.356305       0.078315
     30 C                    -0.441813       0.003907
     31 O                    -0.456524       0.012059
     32 C                     0.595543       0.008666
     33 C                    -0.360807       0.148940
     34 O                    -0.534209       0.163845
     35 C                     0.160181      -0.014311
     36 C                    -0.202517       0.000696
     37 O                    -0.269944       0.000630
     38 C                    -0.448429      -0.001098
     39 O                    -0.334877       0.000040
     40 H                     0.204630      -0.000202
     41 H                     0.168340       0.000535
     42 H                     0.169055       0.000529
     43 H                     0.196070      -0.002471
     44 H                     0.220228      -0.004300
     45 H                     0.168789      -0.001059
     46 H                     0.342699      -0.000369
     47 H                     0.208752       0.001535
     48 H                     0.288338       0.004780
     49 H                     0.314274      -0.000103
     50 H                     0.270293      -0.000040
     51 H                     0.248093       0.000092
     52 H                     0.289605       0.002412
     53 H                     0.317582       0.000703
     54 H                     0.209763       0.000277
     55 H                     0.198171      -0.000011
     56 H                     0.265392      -0.000008
     57 H                     0.249000       0.000026
     58 H                     0.294065       0.000010
     59 H                     0.255968       0.000026
     60 H                     0.297137      -0.000002
     61 H                     0.162537      -0.000003
     62 H                     0.169366       0.000003
     63 H                     0.159572      -0.000017
     64 H                     0.167879       0.000030
     65 H                     0.594576      -0.001333
     66 H                     0.246425      -0.000041
     67 H                     0.272525       0.000177
     68 H                     0.303891      -0.000034
  --------------------------------------------------------
  Sum of atomic charges =    -1.000000

                    Cartesian Multipole Moments
 -----------------------------------------------------------------
    Charge (ESU x 10^10)
                -4.8032
    Dipole Moment (Debye)
         X      -8.1078      Y      -2.9918      Z      -0.6621
       Tot       8.6675
    Quadrupole Moments (Debye-Ang)
        XX    -295.6186     XY     -49.6943     YY    -257.2497
        XZ      -9.2645     YZ       9.3358     ZZ    -248.7139

 Total job time:  4946.35s(wall), 35914.22s(cpu)
        *  Thank you very much for using Q-Chem.  Have a nice day.  *
