 Q-Chem 5.4, Q-Chem, Inc., Pleasanton, CA (2021)
 Q-Chem 5.4.0 for Intel X86 EM64T Linux

User input:
--------------------------------------------------------------
$molecule
-1 2
N                 -2.5876590000     -2.2688730000      0.5753590000
C                 -2.3435880000     -0.9443010000      0.2151730000
C                 -3.4185680000     -0.0912270000     -0.0060410000
C                 -3.2152260000      1.2607720000     -0.2995690000
C                 -1.9399280000      1.7983520000     -0.3623800000
O                 -1.7958990000      3.1413820000     -0.6398770000
C                 -0.7978250000      0.9772960000     -0.1546270000
C                  0.5557400000      1.5463690000     -0.2254980000
O                  0.7880020000      2.7595360000     -0.4151170000
C                  1.6745910000      0.6057000000     -0.0609810000
C                  2.9949250000      1.0974390000     -0.1347770000
C                  4.0801650000      0.2543550000      0.0037030000
C                  3.8734020000     -1.1249230000      0.2237810000
C                  2.5893270000     -1.6252010000      0.2996370000
C                  1.4669880000     -0.7764190000      0.1612320000
C                  0.1263160000     -1.3428350000      0.2548180000
O                 -0.0050660000     -2.5956320000      0.4388780000
C                 -1.0045040000     -0.4314600000      0.1171080000
H                 -3.4406000000     -2.6588770000      0.2031730000
H                 -1.7468710000     -2.8474940000      0.5100110000
H                 -4.4296390000     -0.4810810000      0.0717020000
H                 -4.0734290000      1.9084800000     -0.4697020000
H                 -2.6843490000      3.4975740000     -0.7466860000
H                  3.1190320000      2.1603620000     -0.3058010000
H                  5.0900280000      0.6496950000     -0.0563620000
H                  4.7247050000     -1.7906020000      0.3339430000
H                  2.3999300000     -2.6783880000      0.4689000000
$end
$rem
MAX_SCF_CYCLES=200
BASIS  =  6-311++G(d,p)
GUI  =  2
JOB_TYPE  =  SP
METHOD  =  B3LYP
SOLVENT_METHOD = PCM
$end
$pcm
theory = CPCM
$end
$solvent
dielectric 37.219
opticaldielectric 1.43
$end

--------------------------------------------------------------

             Standard Nuclear Orientation (Angstroms)
    I     Atom           X                Y                Z
 ----------------------------------------------------------------
    1      N      -2.5876590000    -2.2688730000     0.5753590000
    2      C      -2.3435880000    -0.9443010000     0.2151730000
    3      C      -3.4185680000    -0.0912270000    -0.0060410000
    4      C      -3.2152260000     1.2607720000    -0.2995690000
    5      C      -1.9399280000     1.7983520000    -0.3623800000
    6      O      -1.7958990000     3.1413820000    -0.6398770000
    7      C      -0.7978250000     0.9772960000    -0.1546270000
    8      C       0.5557400000     1.5463690000    -0.2254980000
    9      O       0.7880020000     2.7595360000    -0.4151170000
   10      C       1.6745910000     0.6057000000    -0.0609810000
   11      C       2.9949250000     1.0974390000    -0.1347770000
   12      C       4.0801650000     0.2543550000     0.0037030000
   13      C       3.8734020000    -1.1249230000     0.2237810000
   14      C       2.5893270000    -1.6252010000     0.2996370000
   15      C       1.4669880000    -0.7764190000     0.1612320000
   16      C       0.1263160000    -1.3428350000     0.2548180000
   17      O      -0.0050660000    -2.5956320000     0.4388780000
   18      C      -1.0045040000    -0.4314600000     0.1171080000
   19      H      -3.4406000000    -2.6588770000     0.2031730000
   20      H      -1.7468710000    -2.8474940000     0.5100110000
   21      H      -4.4296390000    -0.4810810000     0.0717020000
   22      H      -4.0734290000     1.9084800000    -0.4697020000
   23      H      -2.6843490000     3.4975740000    -0.7466860000
   24      H       3.1190320000     2.1603620000    -0.3058010000
   25      H       5.0900280000     0.6496950000    -0.0563620000
   26      H       4.7247050000    -1.7906020000     0.3339430000
   27      H       2.3999300000    -2.6783880000     0.4689000000
 ----------------------------------------------------------------

    8    -819.7203238609      7.56e-06  Convergence criterion met
 Total energy in the final basis set =     -819.7203238609

                    Orbital Energies (a.u.)
 --------------------------------------------------------------

 Alpha MOs
 -- Occupied --
-19.1439 -19.0756 -19.0700 -14.2974 -10.2281 -10.2259 -10.2255 -10.2094
-10.1758 -10.1753 -10.1707 -10.1702 -10.1700 -10.1691 -10.1681 -10.1676
-10.1674 -10.1639  -1.0552  -1.0031  -1.0006  -0.9061  -0.8566  -0.8324
 -0.7817  -0.7485  -0.7393  -0.7236  -0.6644  -0.6378  -0.6254  -0.5869
 -0.5634  -0.5473  -0.5373  -0.5062  -0.4903  -0.4728  -0.4627  -0.4518
 -0.4439  -0.4309  -0.4276  -0.4211  -0.4087  -0.4057  -0.3974  -0.3855
 -0.3797  -0.3778  -0.3630  -0.3561  -0.3463  -0.3430  -0.3353  -0.2892
 -0.2653  -0.2549  -0.2480  -0.2443  -0.2316  -0.2027  -0.1351

 Beta MOs
 -- Occupied --
-19.1435 -19.0709 -19.0653 -14.2969 -10.2277 -10.2243 -10.2234 -10.2091
-10.1754 -10.1751 -10.1703 -10.1697 -10.1694 -10.1684 -10.1675 -10.1674
-10.1671 -10.1627  -1.0544  -0.9948  -0.9922  -0.9046  -0.8545  -0.8307
 -0.7778  -0.7464  -0.7375  -0.7211  -0.6577  -0.6360  -0.6228  -0.5861
 -0.5614  -0.5450  -0.5360  -0.5052  -0.4891  -0.4697  -0.4615  -0.4505
 -0.4427  -0.4286  -0.4206  -0.4200  -0.4059  -0.4023  -0.3897  -0.3820
 -0.3766  -0.3684  -0.3619  -0.3459  -0.3448  -0.3345  -0.3318  -0.2828
 -0.2487  -0.2478  -0.2431  -0.2402  -0.2273  -0.1927

          Ground-State Mulliken Net Atomic Charges

     Atom                 Charge (a.u.)    Spin (a.u.)
  --------------------------------------------------------
      1 N                    -0.453481       0.021201
      2 C                     0.053730       0.039287
      3 C                    -0.232278       0.098565
      4 C                    -0.297576       0.069727
      5 C                    -0.262823       0.040503
      6 O                    -0.274296       0.008327
      7 C                     0.425655       0.020514
      8 C                    -0.309908       0.079201
      9 O                    -0.474410       0.182536
     10 C                    -0.087725       0.034817
     11 C                     0.115362       0.022034
     12 C                    -0.514130       0.040924
     13 C                    -0.537164       0.027233
     14 C                     0.177287       0.040574
     15 C                     0.054800       0.019904
     16 C                    -0.340400       0.119560
     17 O                    -0.480907       0.175435
     18 C                     0.429792      -0.014463
     19 H                     0.272624      -0.000840
     20 H                     0.315393      -0.003064
     21 H                     0.197615      -0.006977
     22 H                     0.187586      -0.006340
     23 H                     0.307443      -0.000739
     24 H                     0.164691      -0.000948
     25 H                     0.195091      -0.003217
     26 H                     0.194690      -0.002423
     27 H                     0.173340      -0.001329
  --------------------------------------------------------
  Sum of atomic charges =    -1.000000

                    Cartesian Multipole Moments
 -----------------------------------------------------------------
    Charge (ESU x 10^10)
                -4.8032
    Dipole Moment (Debye)
         X      -4.1390      Y      -1.8052      Z      -1.0602
       Tot       4.6384
    Quadrupole Moments (Debye-Ang)
        XX     -90.7415     XY      -8.8780     YY    -135.5909
        XZ       5.5772     YZ       6.2316     ZZ    -114.2272

 Total job time:  187.97s(wall), 389.80s(cpu)
        *  Thank you very much for using Q-Chem.  Have a nice day.  *
