 Q-Chem 5.4, Q-Chem, Inc., Pleasanton, CA (2021)
 Q-Chem 5.4.0 for Intel X86 EM64T Linux

User input:
--------------------------------------------------------------
$molecule
-1 2
C                  0.2527770000     -0.5762300000     -0.0760310000
C                 -0.3225080000     -1.7416750000     -0.5367480000
C                 -1.7491840000     -1.9056440000     -0.6130500000
O                 -2.2829930000     -2.9632550000     -1.0335060000
C                 -2.5706090000     -0.7588290000     -0.1685780000
C                 -3.9731430000     -0.8443290000     -0.2127050000
C                 -4.7687020000      0.2127060000      0.1969040000
C                 -4.1704650000      1.3987270000      0.6676850000
C                 -2.7931580000      1.5059590000      0.7201520000
C                 -1.9669270000      0.4383400000      0.3064950000
C                 -0.5201930000      0.5712510000      0.3693390000
O                  0.0710700000      1.6178390000      0.7843030000
H                  0.2959650000     -2.5691910000     -0.8544830000
H                 -4.4034370000     -1.7695020000     -0.5794240000
H                 -5.8507560000      0.1294250000      0.1562210000
H                 -4.7927350000      2.2288450000      0.9896170000
H                 -2.3095140000      2.4074550000      1.0786260000
N                  1.6279280000     -0.3157040000      0.0273870000
C                  2.7071040000     -1.0991290000     -0.2666230000
N                  3.9277550000     -0.4615300000     -0.0029380000
C                  5.1497860000     -1.0432570000     -0.5283060000
O                  2.6684430000     -2.2477900000     -0.6894560000
H                  1.7577000000      0.6165220000      0.4213920000
H                  3.9008910000      0.5466520000      0.0372720000
H                  5.1342840000     -2.1165170000     -0.3432410000
H                  6.0075030000     -0.6063370000     -0.0107160000
H                  5.2722670000     -0.8919500000     -1.6100730000
$end

$rem
BASIS  =  6-311++G(d,p)
GUI  =  2
JOB_TYPE  =  SP
METHOD  =  B3LYP
SCF_CONVERGENCE  = 8
SOLVENT_METHOD = sm12
$end

$smx
solvent dimethylformamide
charges CM5
$end

--------------------------------------------------------------

             Standard Nuclear Orientation (Angstroms)
    I     Atom           X                Y                Z
 ----------------------------------------------------------------
    1      C       0.2527770000    -0.5762300000    -0.0760310000
    2      C      -0.3225080000    -1.7416750000    -0.5367480000
    3      C      -1.7491840000    -1.9056440000    -0.6130500000
    4      O      -2.2829930000    -2.9632550000    -1.0335060000
    5      C      -2.5706090000    -0.7588290000    -0.1685780000
    6      C      -3.9731430000    -0.8443290000    -0.2127050000
    7      C      -4.7687020000     0.2127060000     0.1969040000
    8      C      -4.1704650000     1.3987270000     0.6676850000
    9      C      -2.7931580000     1.5059590000     0.7201520000
   10      C      -1.9669270000     0.4383400000     0.3064950000
   11      C      -0.5201930000     0.5712510000     0.3693390000
   12      O       0.0710700000     1.6178390000     0.7843030000
   13      H       0.2959650000    -2.5691910000    -0.8544830000
   14      H      -4.4034370000    -1.7695020000    -0.5794240000
   15      H      -5.8507560000     0.1294250000     0.1562210000
   16      H      -4.7927350000     2.2288450000     0.9896170000
   17      H      -2.3095140000     2.4074550000     1.0786260000
   18      N       1.6279280000    -0.3157040000     0.0273870000
   19      C       2.7071040000    -1.0991290000    -0.2666230000
   20      N       3.9277550000    -0.4615300000    -0.0029380000
   21      C       5.1497860000    -1.0432570000    -0.5283060000
   22      O       2.6684430000    -2.2477900000    -0.6894560000
   23      H       1.7577000000     0.6165220000     0.4213920000
   24      H       3.9008910000     0.5466520000     0.0372720000
   25      H       5.1342840000    -2.1165170000    -0.3432410000
   26      H       6.0075030000    -0.6063370000    -0.0107160000
   27      H       5.2722670000    -0.8919500000    -1.6100730000
 ----------------------------------------------------------------

   18    -798.7949012877      6.38e-09  Convergence criterion met
 Total energy in the final basis set =     -798.8942449844

                    Orbital Energies (a.u.)
 --------------------------------------------------------------

 Alpha MOs
 -- Occupied --
-19.0896 -19.0861 -19.0743 -14.3469 -14.3316 -10.3017 -10.2270 -10.2260
-10.2185 -10.1936 -10.1836 -10.1826 -10.1826 -10.1802 -10.1801 -10.1794
-10.1604  -1.0554  -1.0110  -0.9988  -0.9437  -0.9095  -0.8657  -0.8061
 -0.7591  -0.7500  -0.7078  -0.6762  -0.6355  -0.6276  -0.5841  -0.5740
 -0.5610  -0.5289  -0.5013  -0.4899  -0.4687  -0.4624  -0.4499  -0.4385
 -0.4367  -0.4304  -0.4266  -0.4168  -0.4068  -0.4038  -0.3934  -0.3855
 -0.3802  -0.3631  -0.3614  -0.3462  -0.3198  -0.2809  -0.2720  -0.2652
 -0.2611  -0.2561  -0.2386  -0.2327  -0.1541

 Beta MOs
 -- Occupied --
-19.0894 -19.0793 -19.0684 -14.3467 -14.3315 -10.3017 -10.2251 -10.2247
-10.2173 -10.1936 -10.1835 -10.1823 -10.1818 -10.1799 -10.1798 -10.1789
-10.1594  -1.0549  -1.0002  -0.9888  -0.9419  -0.9086  -0.8636  -0.8016
 -0.7572  -0.7482  -0.7054  -0.6697  -0.6334  -0.6262  -0.5824  -0.5722
 -0.5600  -0.5270  -0.4997  -0.4868  -0.4674  -0.4609  -0.4485  -0.4375
 -0.4359  -0.4276  -0.4187  -0.4143  -0.4013  -0.3994  -0.3904  -0.3854
 -0.3616  -0.3591  -0.3520  -0.3447  -0.3075  -0.2803  -0.2603  -0.2585
 -0.2521  -0.2501  -0.2331  -0.2231

          Ground-State Mulliken Net Atomic Charges

     Atom                 Charge (a.u.)    Spin (a.u.)
  --------------------------------------------------------
      1 C                     0.654029       0.082224
      2 C                    -0.862647       0.069545
      3 C                    -1.537731       0.043717
      4 O                    -0.380463       0.212376
      5 C                    -1.280030       0.084885
      6 C                    -0.057091      -0.002884
      7 C                     0.980490       0.064195
      8 C                     1.011035       0.005376
      9 C                     0.349783       0.073917
     10 C                    -0.283027      -0.028260
     11 C                    -1.536166       0.140995
     12 O                    -0.260384       0.256972
     13 H                     0.123728      -0.007681
     14 H                     0.141833      -0.000701
     15 H                     0.353222      -0.004452
     16 H                     0.372872      -0.000762
     17 H                     0.179322      -0.003817
     18 N                    -0.375501       0.006707
     19 C                     0.163538       0.000499
     20 N                     0.153933       0.003157
     21 C                     0.185869      -0.001187
     22 O                    -0.499010       0.007147
     23 H                     0.449383      -0.003150
     24 H                     0.357688       0.000356
     25 H                     0.155446       0.000082
     26 H                     0.258304       0.000005
     27 H                     0.181575       0.000740
  --------------------------------------------------------
  Sum of atomic charges =    -1.000000

                    Cartesian Multipole Moments
 -----------------------------------------------------------------
    Charge (ESU x 10^10)
                -4.8032
    Dipole Moment (Debye)
         X       6.7810      Y       7.6377      Z       1.5079
       Tot      10.3242
    Quadrupole Moments (Debye-Ang)
        XX    -107.3512     XY      -4.6103     YY    -137.1377
        XZ      -4.4598     YZ     -11.2900     ZZ    -110.0815

 Total job time:  737.77s(wall), 4950.14s(cpu)
        *  Thank you very much for using Q-Chem.  Have a nice day.  *
