 Gaussian 16, Revision A.03,
 Gaussian 16:  ES64L-G16RevA.03 25-Dec-2016

 ----------------------------------------------------------------
 #P UB3LYP/6-311++G(d,p) SCRF=(PCM,Solvent=n,n-DiMethylFormamide)
 ----------------------------------------------------------------

 ------------------
 Radical PCM in DMF
 ------------------
 Symbolic Z-matrix:
 Charge = -1 Multiplicity = 2

                         Standard orientation:
 ---------------------------------------------------------------------
 Center     Atomic      Atomic             Coordinates (Angstroms)
 Number     Number       Type             X           Y           Z
 ---------------------------------------------------------------------
      1          6           0       -4.194843   -1.841809    0.005930
      2          7           0       -2.799202   -1.508876   -0.008944
      3          6           0       -2.316373   -0.226939   -0.003606
      4          6           0       -3.181247    0.875319   -0.000847
      5          6           0       -2.672635    2.184090    0.001227
      6          6           0       -1.313568    2.416058    0.000932
      7          6           0       -0.404911    1.335644   -0.000367
      8          6           0        1.027482    1.651787    0.000670
      9          8           0        1.445172    2.836744    0.000018
     10          6           0        1.947392    0.516400    0.000169
     11          6           0        3.340508    0.747107    0.000297
     12          6           0        4.238313   -0.301663    0.000431
     13          6           0        3.764284   -1.632253    0.000511
     14          6           0        2.405790   -1.880009    0.000443
     15          6           0        1.469267   -0.822208    0.000088
     16          6           0        0.040736   -1.133349   -0.000735
     17          8           0       -0.336566   -2.350740    0.001261
     18          6           0       -0.885554   -0.011767   -0.002042
     19          1           0       -4.731159   -1.453882   -0.874219
     20          1           0       -4.712909   -1.455653    0.897997
     21          1           0       -4.294202   -2.929330    0.005327
     22          1           0       -2.065721   -2.223266   -0.001256
     23          1           0       -4.252974    0.718008   -0.001275
     24          1           0       -3.367312    3.019795    0.003001
     25          1           0       -0.901888    3.417136    0.002247
     26          1           0        3.672909    1.778858    0.000420
     27          1           0        5.306715   -0.106006    0.000509
     28          1           0        4.468595   -2.459118    0.000584
     29          1           0        2.015674   -2.890901    0.000438
 ---------------------------------------------------------------------

 SCF Done:  E(UB3LYP) =  -783.790181974     A.U. after   19 cycles

 The electronic state is 2-A.
 Alpha  occ. eigenvalues --  -19.07733 -19.07197 -14.30979 -10.22566 -10.21975
 Alpha  occ. eigenvalues --  -10.21346 -10.19317 -10.17175 -10.17122 -10.17092
 Alpha  occ. eigenvalues --  -10.17084 -10.16950 -10.16913 -10.16842 -10.16839
 Alpha  occ. eigenvalues --  -10.16834 -10.15800 -10.15297  -1.00307  -0.99858
 Alpha  occ. eigenvalues --   -0.92810  -0.85697  -0.83784  -0.78087  -0.74936
 Alpha  occ. eigenvalues --   -0.74364  -0.73571  -0.68116  -0.66302  -0.62906
 Alpha  occ. eigenvalues --   -0.61664  -0.57850  -0.56023  -0.53032  -0.52245
 Alpha  occ. eigenvalues --   -0.49782  -0.47283  -0.46819  -0.45564  -0.44333
 Alpha  occ. eigenvalues --   -0.43925  -0.43641  -0.42265  -0.41752  -0.41338
 Alpha  occ. eigenvalues --   -0.40505  -0.39513  -0.38370  -0.37899  -0.36658
 Alpha  occ. eigenvalues --   -0.36631  -0.35386  -0.34319  -0.33976  -0.33394
 Alpha  occ. eigenvalues --   -0.29422  -0.26618  -0.25555  -0.24616  -0.24573
 Alpha  occ. eigenvalues --   -0.23523  -0.20063  -0.13785
 Alpha virt. eigenvalues --   -0.04535  -0.01867  -0.00413   0.00285   0.00840
 Alpha virt. eigenvalues --    0.00950   0.01926   0.02085   0.03478   0.03505
 Alpha virt. eigenvalues --    0.03977   0.04363   0.05004   0.05504   0.05632

  Beta  occ. eigenvalues --  -19.07249 -19.06659 -14.30962 -10.22375 -10.21788
  Beta  occ. eigenvalues --  -10.21349 -10.19318 -10.17133 -10.17080 -10.17070
  Beta  occ. eigenvalues --  -10.17008 -10.16885 -10.16846 -10.16828 -10.16819
  Beta  occ. eigenvalues --  -10.16801 -10.15690 -10.15252  -0.99466  -0.98904
  Beta  occ. eigenvalues --   -0.92733  -0.85460  -0.83627  -0.77702  -0.74707
  Beta  occ. eigenvalues --   -0.74238  -0.73360  -0.67976  -0.65612  -0.62739
  Beta  occ. eigenvalues --   -0.61446  -0.57746  -0.55825  -0.52795  -0.52118
  Beta  occ. eigenvalues --   -0.49669  -0.47036  -0.46650  -0.45439  -0.44268
  Beta  occ. eigenvalues --   -0.43780  -0.43531  -0.42223  -0.40899  -0.40619
  Beta  occ. eigenvalues --   -0.40307  -0.39309  -0.38263  -0.36561  -0.36404
  Beta  occ. eigenvalues --   -0.35627  -0.35322  -0.34182  -0.33249  -0.32827
  Beta  occ. eigenvalues --   -0.28913  -0.24877  -0.24681  -0.24131  -0.24092
  Beta  occ. eigenvalues --   -0.23051  -0.19304
  Beta virt. eigenvalues --   -0.08170  -0.03570  -0.00878  -0.00401   0.00286
  Beta virt. eigenvalues --    0.00953   0.01224   0.01939   0.02084   0.03514
  Beta virt. eigenvalues --    0.03518   0.03983   0.04364   0.05133   0.05651

 Mulliken charges and spin densities:
               1          2
     1  C   -0.352152  -0.001179
     2  N   -0.315899   0.009158
     3  C    0.152777   0.008616
     4  C   -0.060198   0.086462
     5  C   -0.486766   0.031964
     6  C   -0.040319   0.061649
     7  C    0.567272   0.052739
     8  C   -0.568642   0.110660
     9  O   -0.462022   0.201467
    10  C    0.084127   0.026489
    11  C    0.016767   0.030377
    12  C   -0.462103   0.029418
    13  C   -0.494271   0.045278
    14  C    0.053173   0.020731
    15  C    0.018567   0.022928
    16  C   -0.262029   0.111741
    17  O   -0.466741   0.178370
    18  C    0.026779  -0.004492
    19  H    0.154179   0.000897
    20  H    0.154844   0.000934
    21  H    0.157978  -0.000122
    22  H    0.407180  -0.002616
    23  H    0.163180  -0.006207
    24  H    0.184396  -0.002541
    25  H    0.149668  -0.003991
    26  H    0.158320  -0.001988
    27  H    0.178845  -0.002557
    28  H    0.180653  -0.003605
    29  H    0.162435  -0.000582
 Sum of Mulliken charges =  -1.00000   1.00000

 Dipole moment (field-independent basis, Debye):
    X=             -3.7005    Y=             -3.6988    Z=              0.0244  Tot=              5.2321
 Quadrupole moment (field-independent basis, Debye-Ang):
   XX=           -104.7641   YY=           -135.5223   ZZ=           -113.7659
   XY=             -6.6174   XZ=             -0.0697   YZ=             -0.0363

 Normal termination of Gaussian 16 at Sun Jan 14 01:18:28 2024.
