 Q-Chem 5.4, Q-Chem, Inc., Pleasanton, CA (2021)
 Q-Chem 5.4.0 for Intel X86 EM64T Linux

User input:
--------------------------------------------------------------
$molecule
-2 1
C                  3.4688230000      2.1764310000      0.1853230000
C                  2.2338560000      1.5019810000      0.7413500000
O                  2.0880390000      1.2017500000      1.9044830000
O                  2.9681000000     -0.7279070000     -0.4308450000
C                  1.9417330000     -1.4939990000     -0.4189610000
C                  2.0582740000     -2.8997550000     -0.5754730000
C                  0.9545080000     -3.7680890000     -0.5541970000
C                 -0.3290670000     -3.2893270000     -0.3803990000
C                 -0.5513460000     -1.8957750000     -0.2252740000
C                 -1.9364250000     -1.4442700000     -0.0709110000
O                 -2.9125330000     -2.2545470000     -0.0550660000
C                 -2.1364140000     -0.0095710000      0.0526390000
C                 -3.4412790000      0.5090740000      0.1839310000
C                 -3.6934480000      1.8639710000      0.2923260000
C                 -2.5960800000      2.7700980000      0.2707420000
C                 -1.3075590000      2.3077580000      0.1485130000
C                 -1.0161520000      0.9076600000      0.0370150000
C                  0.2760540000      0.4052020000     -0.0968530000
O                  1.3119540000      1.3699140000     -0.2307320000
C                  0.5568470000     -0.9750950000     -0.2405110000
H                  4.0876300000      2.5549540000      1.0007100000
H                  3.1957290000      2.9849690000     -0.4988360000
H                  4.0001810000      1.4042310000     -0.3758110000
H                  3.0673610000     -3.2853760000     -0.7057320000
H                  1.1197740000     -4.8400340000     -0.6758620000
H                 -1.1953760000     -3.9389060000     -0.3621040000
H                 -4.2474510000     -0.2182650000      0.1940810000
H                 -4.7105130000      2.2354780000      0.3931400000
H                 -2.7764910000      3.8405530000      0.3561850000
H                 -0.4787320000      3.0068880000      0.1371270000
$end

$rem
BASIS  =  6-311++G(d,p)
GUI  =  2
JOB_TYPE  =  SP
METHOD  =  B3LYP
SCF_CONVERGENCE  = 8
SOLVENT_METHOD = sm12
$end

$smx
solvent dimethylformamide
charges CM5
$end

--------------------------------------------------------------

             Standard Nuclear Orientation (Angstroms)
    I     Atom           X                Y                Z
 ----------------------------------------------------------------
    1      C       3.4688230000     2.1764310000     0.1853230000
    2      C       2.2338560000     1.5019810000     0.7413500000
    3      O       2.0880390000     1.2017500000     1.9044830000
    4      O       2.9681000000    -0.7279070000    -0.4308450000
    5      C       1.9417330000    -1.4939990000    -0.4189610000
    6      C       2.0582740000    -2.8997550000    -0.5754730000
    7      C       0.9545080000    -3.7680890000    -0.5541970000
    8      C      -0.3290670000    -3.2893270000    -0.3803990000
    9      C      -0.5513460000    -1.8957750000    -0.2252740000
   10      C      -1.9364250000    -1.4442700000    -0.0709110000
   11      O      -2.9125330000    -2.2545470000    -0.0550660000
   12      C      -2.1364140000    -0.0095710000     0.0526390000
   13      C      -3.4412790000     0.5090740000     0.1839310000
   14      C      -3.6934480000     1.8639710000     0.2923260000
   15      C      -2.5960800000     2.7700980000     0.2707420000
   16      C      -1.3075590000     2.3077580000     0.1485130000
   17      C      -1.0161520000     0.9076600000     0.0370150000
   18      C       0.2760540000     0.4052020000    -0.0968530000
   19      O       1.3119540000     1.3699140000    -0.2307320000
   20      C       0.5568470000    -0.9750950000    -0.2405110000
   21      H       4.0876300000     2.5549540000     1.0007100000
   22      H       3.1957290000     2.9849690000    -0.4988360000
   23      H       4.0001810000     1.4042310000    -0.3758110000
   24      H       3.0673610000    -3.2853760000    -0.7057320000
   25      H       1.1197740000    -4.8400340000    -0.6758620000
   26      H      -1.1953760000    -3.9389060000    -0.3621040000
   27      H      -4.2474510000    -0.2182650000     0.1940810000
   28      H      -4.7105130000     2.2354780000     0.3931400000
   29      H      -2.7764910000     3.8405530000     0.3561850000
   30      H      -0.4787320000     3.0068880000     0.1371270000
 ----------------------------------------------------------------

   17    -916.8860995358      8.93e-09  Convergence criterion met
 Total energy in the final basis set =     -917.1598050419

                    Orbital Energies (a.u.)
 --------------------------------------------------------------

 Alpha MOs
 -- Occupied --
-19.1558 -19.1010 -19.0498 -19.0396 -10.2961 -10.2107 -10.2083 -10.2051
-10.1809 -10.1773 -10.1769 -10.1745 -10.1734 -10.1699 -10.1680 -10.1660
-10.1625 -10.1585 -10.1459 -10.1421  -1.0962  -1.0141  -0.9722  -0.9591
 -0.8585  -0.8266  -0.7904  -0.7579  -0.7425  -0.7294  -0.7088  -0.6755
 -0.6303  -0.6120  -0.6048  -0.5704  -0.5325  -0.5257  -0.5103  -0.4848
 -0.4743  -0.4689  -0.4577  -0.4541  -0.4464  -0.4380  -0.4260  -0.4080
 -0.4057  -0.3979  -0.3911  -0.3882  -0.3774  -0.3739  -0.3686  -0.3653
 -0.3469  -0.3428  -0.3382  -0.3297  -0.3093  -0.2955  -0.2888  -0.2711
 -0.2546  -0.2404  -0.2250  -0.2070  -0.1921  -0.1438

          Ground-State Mulliken Net Atomic Charges

     Atom                 Charge (a.u.)
  ----------------------------------------
      1 C                     0.395621
      2 C                    -0.259417
      3 O                    -0.241651
      4 O                    -0.265199
      5 C                    -1.143302
      6 C                     0.087001
      7 C                     0.189864
      8 C                    -1.035058
      9 C                    -0.910171
     10 C                    -1.640780
     11 O                    -0.284773
     12 C                    -0.579819
     13 C                     0.861824
     14 C                     1.595114
     15 C                     1.841813
     16 C                     0.756749
     17 C                    -1.140972
     18 C                    -1.712448
     19 O                     0.121650
     20 C                    -1.069983
     21 H                     0.248978
     22 H                     0.230565
     23 H                     0.181748
     24 H                     0.148583
     25 H                     0.321936
     26 H                     0.094158
     27 H                     0.151307
     28 H                     0.394316
     29 H                     0.420870
     30 H                     0.241478
  ----------------------------------------
  Sum of atomic charges =    -2.000000

                    Cartesian Multipole Moments
 -----------------------------------------------------------------
    Charge (ESU x 10^10)
                -9.6064
    Dipole Moment (Debye)
         X       0.5231      Y      10.7691      Z      -0.5176
       Tot      10.7942
    Quadrupole Moments (Debye-Ang)
        XX    -182.6645     XY      -1.9454     YY    -164.8651
        XZ      -1.5118     YZ      -7.2883     ZZ    -138.7175

 Total job time:  938.46s(wall), 7122.84s(cpu)
        *  Thank you very much for using Q-Chem.  Have a nice day.  *
