 Q-Chem 5.4, Q-Chem, Inc., Pleasanton, CA (2021)
 Q-Chem 5.4.0 for Intel X86 EM64T Linux

User input:
--------------------------------------------------------------
$molecule
0 1
C                  4.8777450000     -2.8724200000     -0.3477780000
C                  5.6114970000     -1.9790750000     -1.1187520000
C                  5.0317810000     -0.7801700000     -1.5424010000
C                  3.5574960000     -2.5730120000      0.0055280000
C                  2.9727510000     -1.3661290000     -0.4205050000
C                  3.7200200000     -0.4757700000     -1.1951090000
C                  2.7893980000     -3.5369100000      0.8281610000
C                  1.4070800000     -3.1982150000      1.1843520000
C                  0.8061480000     -1.9853670000      0.7614300000
C                  1.5632290000     -1.0120250000     -0.0619610000
C                  0.6637830000     -4.0982610000      1.9626870000
C                 -0.6681860000     -3.7948610000      2.3185560000
C                 -0.5072600000     -1.7056670000      1.1228300000
C                 -1.2422190000     -2.6039960000      1.8970620000
O                  3.3032990000     -4.6012020000      1.2044300000
O                  1.0676620000      0.0394200000     -0.4384030000
O                  1.1398780000     -5.2748620000      2.4145320000
H                  5.3068720000     -3.8069320000     -0.0087390000
H                  6.6341520000     -2.2133470000     -1.3911660000
H                  5.6058820000     -0.0844690000     -2.1438260000
H                  3.2520160000      0.4476440000     -1.5129370000
H                  2.0732920000     -5.3492650000      2.0900800000
O                 -1.3746840000     -4.6699310000      3.0690640000
H                 -0.9482210000     -0.7747050000      0.7903800000
H                 -2.2656930000     -2.3917320000      2.1818260000
H                 -0.8094750000     -5.4323110000      3.2617280000
$end
$rem
MAX_SCF_CYCLES=200
BASIS  =  6-311++G(d,p)
GUI  =  2
JOB_TYPE  =  SP
METHOD  =  B3LYP
SOLVENT_METHOD = PCM
$end
$pcm
theory = CPCM
$end
$solvent
dielectric 37.219
opticaldielectric 1.43
$end

--------------------------------------------------------------

             Standard Nuclear Orientation (Angstroms)
    I     Atom           X                Y                Z
 ----------------------------------------------------------------
    1      C       4.8777450000    -2.8724200000    -0.3477780000
    2      C       5.6114970000    -1.9790750000    -1.1187520000
    3      C       5.0317810000    -0.7801700000    -1.5424010000
    4      C       3.5574960000    -2.5730120000     0.0055280000
    5      C       2.9727510000    -1.3661290000    -0.4205050000
    6      C       3.7200200000    -0.4757700000    -1.1951090000
    7      C       2.7893980000    -3.5369100000     0.8281610000
    8      C       1.4070800000    -3.1982150000     1.1843520000
    9      C       0.8061480000    -1.9853670000     0.7614300000
   10      C       1.5632290000    -1.0120250000    -0.0619610000
   11      C       0.6637830000    -4.0982610000     1.9626870000
   12      C      -0.6681860000    -3.7948610000     2.3185560000
   13      C      -0.5072600000    -1.7056670000     1.1228300000
   14      C      -1.2422190000    -2.6039960000     1.8970620000
   15      O       3.3032990000    -4.6012020000     1.2044300000
   16      O       1.0676620000     0.0394200000    -0.4384030000
   17      O       1.1398780000    -5.2748620000     2.4145320000
   18      H       5.3068720000    -3.8069320000    -0.0087390000
   19      H       6.6341520000    -2.2133470000    -1.3911660000
   20      H       5.6058820000    -0.0844690000    -2.1438260000
   21      H       3.2520160000     0.4476440000    -1.5129370000
   22      H       2.0732920000    -5.3492650000     2.0900800000
   23      O      -1.3746840000    -4.6699310000     3.0690640000
   24      H      -0.9482210000    -0.7747050000     0.7903800000
   25      H      -2.2656930000    -2.3917320000     2.1818260000
   26      H      -0.8094750000    -5.4323110000     3.2617280000
 ----------------------------------------------------------------

    8    -839.4793887102      9.59e-06  Convergence criterion met
 Total energy in the final basis set =     -839.4793887102

                    Orbital Energies (a.u.)
 --------------------------------------------------------------

 Alpha MOs
 -- Occupied --
-19.1761 -19.1727 -19.1434 -19.1278 -10.2926 -10.2815 -10.2691 -10.2631
-10.2122 -10.2104 -10.2090 -10.2054 -10.1986 -10.1985 -10.1980 -10.1977
-10.1970 -10.1965  -1.1075  -1.0833  -1.0638  -1.0626  -0.8954  -0.8808
 -0.8143  -0.7805  -0.7745  -0.7701  -0.6975  -0.6776  -0.6581  -0.6321
 -0.6007  -0.5838  -0.5653  -0.5484  -0.5312  -0.5153  -0.4986  -0.4802
 -0.4729  -0.4662  -0.4622  -0.4520  -0.4503  -0.4432  -0.4329  -0.4238
 -0.4219  -0.3971  -0.3951  -0.3868  -0.3816  -0.3812  -0.3683  -0.3506
 -0.2978  -0.2897  -0.2795  -0.2784  -0.2709  -0.2424

          Ground-State Mulliken Net Atomic Charges

     Atom                 Charge (a.u.)
  ----------------------------------------
      1 C                     0.194423
      2 C                    -0.438039
      3 C                    -0.457817
      4 C                     0.200973
      5 C                    -0.115209
      6 C                     0.155059
      7 C                    -0.452151
      8 C                     0.599004
      9 C                     0.454992
     10 C                    -0.495645
     11 C                    -0.086158
     12 C                    -0.355709
     13 C                     0.075523
     14 C                    -0.002127
     15 O                    -0.323316
     16 O                    -0.304116
     17 O                    -0.378751
     18 H                     0.203287
     19 H                     0.224203
     20 H                     0.224250
     21 H                     0.195113
     22 H                     0.375164
     23 O                    -0.273902
     24 H                     0.196727
     25 H                     0.253779
     26 H                     0.330445
  ----------------------------------------
  Sum of atomic charges =     0.000000

                    Cartesian Multipole Moments
 -----------------------------------------------------------------
    Charge (ESU x 10^10)
                 0.0000
    Dipole Moment (Debye)
         X       2.6794      Y      -0.7586      Z      -0.6328
       Tot       2.8557
    Quadrupole Moments (Debye-Ang)
        XX     -79.1199     XY      -1.8146     YY    -104.7480
        XZ      -9.1581     YZ       0.5214     ZZ    -101.8052

 Total job time:  44.51s(wall), 321.21s(cpu)
        *  Thank you very much for using Q-Chem.  Have a nice day.  *
