 Gaussian 16, Revision A.03,
 Gaussian 16:  ES64L-G16RevA.03 25-Dec-2016

 ----------------------------------------------------------------------
 #P UB3LYP/6-311++G(d,p) nosym opt freq SCRF=(PCM,Solvent=n,n-DiMethylF
 ormamide)
 ----------------------------------------------------------------------

 -------
 Reduced
 -------
 Symbolic Z-matrix:
 Charge = -2 Multiplicity = 1

 SCF Done:  E(UB3LYP) =  -499.796866402     A.U. after   17 cycles
 SCF Done:  E(UB3LYP) =  -499.798150157     A.U. after   14 cycles
 SCF Done:  E(UB3LYP) =  -499.798317709     A.U. after   13 cycles
 SCF Done:  E(UB3LYP) =  -499.798343782     A.U. after   13 cycles
 SCF Done:  E(UB3LYP) =  -499.798368240     A.U. after   12 cycles
 SCF Done:  E(UB3LYP) =  -499.798374514     A.U. after   11 cycles
 SCF Done:  E(UB3LYP) =  -499.798381285     A.U. after   11 cycles
 SCF Done:  E(UB3LYP) =  -499.798384235     A.U. after   11 cycles
 SCF Done:  E(UB3LYP) =  -499.798384900     A.U. after   10 cycles
 SCF Done:  E(UB3LYP) =  -499.798385256     A.U. after   10 cycles
 SCF Done:  E(UB3LYP) =  -499.798385341     A.U. after    9 cycles
 SCF Done:  E(UB3LYP) =  -499.798385541     A.U. after    9 cycles
 SCF Done:  E(UB3LYP) =  -499.798385668     A.U. after    9 cycles
 Optimization completed.
    -- Stationary point found.
 Normal termination of Gaussian 16 at Sat Feb 10 10:36:33 2024.

 ----------------------------------------------------------------------
 #P Geom=AllCheck Guess=TCheck SCRF=Check GenChk UB3LYP/6-311++G(d,p) F
 req
 ----------------------------------------------------------------------

 Structure from the checkpoint file:  "049-an.chk"
 -------
 Reduced
 -------
 Charge = -2 Multiplicity = 1

                          Input orientation:
 ---------------------------------------------------------------------
 Center     Atomic      Atomic             Coordinates (Angstroms)
 Number     Number       Type             X           Y           Z
 ---------------------------------------------------------------------
      1          6           0        2.995727   -1.097140   -0.142440
      2          6           0        1.651916   -0.417323   -0.026501
      3          6           0        1.576647    0.924992    0.370081
      4          6           0        0.364010    1.649017    0.512873
      5          8           0        0.346107    2.916309    0.898297
      6          6           0       -0.821122    0.903365    0.213612
      7          6           0       -0.763862   -0.451532   -0.182908
      8          6           0       -2.048846   -1.198251   -0.471711
      9          6           0        0.471933   -1.162337   -0.324987
     10          8           0        0.530844   -2.428618   -0.705371
     11          6           0       -2.160955    1.597161    0.334982
     12          1           0        3.209581   -1.419784   -1.169955
     13          1           0        3.803702   -0.428626    0.171417
     14          1           0        3.047463   -2.004863    0.471499
     15          1           0        2.502637    1.457964    0.590361
     16          1           0       -2.751335   -1.160088    0.370942
     17          1           0       -1.820804   -2.243358   -0.683922
     18          1           0       -2.588773   -0.788125   -1.336765
     19          1           0       -2.772695    1.194430    1.155155
     20          1           0       -2.004509    2.659020    0.529314
     21          1           0       -2.767667    1.497785   -0.573971
 ---------------------------------------------------------------------

 SCF Done:  E(UB3LYP) =  -499.798385668     A.U. after    1 cycles

 Alpha  occ. eigenvalues --  -19.00188 -19.00121 -10.15304 -10.15073 -10.13549
 Alpha  occ. eigenvalues --  -10.13054 -10.13006 -10.11870 -10.11802 -10.11654
 Alpha  occ. eigenvalues --  -10.10748  -0.90540  -0.90098  -0.77795  -0.74177
 Alpha  occ. eigenvalues --   -0.68938  -0.67402  -0.62017  -0.59813  -0.51949
 Alpha  occ. eigenvalues --   -0.49546  -0.44513  -0.40604  -0.40140  -0.38478
 Alpha  occ. eigenvalues --   -0.37891  -0.37243  -0.36686  -0.35462  -0.34502
 Alpha  occ. eigenvalues --   -0.33723  -0.33446  -0.31897  -0.29594  -0.29284
 Alpha  occ. eigenvalues --   -0.28739  -0.20706  -0.18721  -0.18419  -0.17947
 Alpha  occ. eigenvalues --   -0.10762
 Alpha virt. eigenvalues --   -0.00090   0.01044   0.01833   0.02977   0.03307
 Alpha virt. eigenvalues --    0.03731   0.03920   0.04816   0.05088   0.06490
 Alpha virt. eigenvalues --    0.06798   0.06961   0.07615   0.07945   0.09051

  Beta  occ. eigenvalues --  -19.00188 -19.00121 -10.15304 -10.15073 -10.13549
  Beta  occ. eigenvalues --  -10.13054 -10.13006 -10.11870 -10.11802 -10.11654
  Beta  occ. eigenvalues --  -10.10748  -0.90540  -0.90098  -0.77795  -0.74177
  Beta  occ. eigenvalues --   -0.68938  -0.67402  -0.62017  -0.59813  -0.51949
  Beta  occ. eigenvalues --   -0.49546  -0.44513  -0.40604  -0.40140  -0.38478
  Beta  occ. eigenvalues --   -0.37891  -0.37243  -0.36686  -0.35462  -0.34502
  Beta  occ. eigenvalues --   -0.33723  -0.33446  -0.31897  -0.29594  -0.29284
  Beta  occ. eigenvalues --   -0.28739  -0.20706  -0.18721  -0.18419  -0.17947
  Beta  occ. eigenvalues --   -0.10762
  Beta virt. eigenvalues --   -0.00090   0.01044   0.01833   0.02977   0.03307
  Beta virt. eigenvalues --    0.03731   0.03920   0.04816   0.05088   0.06490
  Beta virt. eigenvalues --    0.06798   0.06961   0.07615   0.07945   0.09051

 Mulliken charges and spin densities:
               1          2
     1  C   -0.337364  -0.000000
     2  C    0.909047  -0.000000
     3  C   -0.433301   0.000000
     4  C   -0.967822   0.000000
     5  O   -0.771432  -0.000000
     6  C    0.854684  -0.000000
     7  C    0.287790   0.000000
     8  C   -0.610262  -0.000000
     9  C   -0.953995   0.000000
    10  O   -0.758984  -0.000000
    11  C   -0.529691  -0.000000
    12  H    0.131287  -0.000000
    13  H    0.130107  -0.000000
    14  H    0.132854  -0.000000
    15  H    0.085443  -0.000000
    16  H    0.122238  -0.000000
    17  H    0.168750   0.000000
    18  H    0.125640  -0.000000
    19  H    0.128930  -0.000000
    20  H    0.164355   0.000000
    21  H    0.121726  -0.000000
 Sum of Mulliken charges =  -2.00000   0.00000

 Dipole moment (field-independent basis, Debye):
    X=             -4.2852    Y=             -2.6782    Z=             -1.0192  Tot=              5.1551
 Quadrupole moment (field-independent basis, Debye-Ang):
   XX=            -82.1084   YY=           -137.4690   ZZ=            -81.6612
   XY=              0.9990   XZ=             -0.0181   YZ=            -18.5157

  Exact polarizability: 227.919  -8.061 228.575   3.184  30.834 136.011
 Approx polarizability: 236.811  -6.435 246.378   3.710  33.481 146.337

                      1                      2                      3
                      A                      A                      A
 Frequencies --     82.7575                99.3945               121.2137
 Red. masses --      1.1680                 2.0016                 1.4050
 Frc consts  --      0.0047                 0.0117                 0.0122
 IR Inten    --      5.0678                23.0014                 0.3711

                      4                      5                      6
                      A                      A                      A
 Frequencies --    142.0197               158.1603               184.4023
 Red. masses --      1.2738                 2.0286                 3.1031
 Frc consts  --      0.0151                 0.0299                 0.0622
 IR Inten    --      3.1142                 5.7355                 0.5032

                      7                      8                      9
                      A                      A                      A
 Frequencies --    273.2768               284.7146               318.3985
 Red. masses --      2.6754                 3.2822                 2.6443
 Frc consts  --      0.1177                 0.1568                 0.1579
 IR Inten    --     17.3121                 1.1796                 5.5619

                     10                     11                     12
                      A                      A                      A
 Frequencies --    325.0039               367.9047               372.3481
 Red. masses --      3.5408                 9.1596                 6.3869
 Frc consts  --      0.2204                 0.7305                 0.5217
 IR Inten    --      7.1214                21.0377                 0.0492

                     13                     14                     15
                      A                      A                      A
 Frequencies --    447.2635               493.9853               514.5472
 Red. masses --      5.4100                 7.3424                 3.3383
 Frc consts  --      0.6376                 1.0556                 0.5207
 IR Inten    --      0.7873                 4.3161                 1.3557

                     16                     17                     18
                      A                      A                      A
 Frequencies --    571.9493               641.4477               670.8778
 Red. masses --      5.2908                 3.3605                 3.3133
 Frc consts  --      1.0197                 0.8147                 0.8786
 IR Inten    --     24.7479                 2.0820                 0.1074

                     19                     20                     21
                      A                      A                      A
 Frequencies --    707.7203               749.1327               827.3264
 Red. masses --      5.5108                 4.4275                 1.6544
 Frc consts  --      1.6262                 1.4640                 0.6672
 IR Inten    --     82.5237                 8.5305                47.2390

                     22                     23                     24
                      A                      A                      A
 Frequencies --    847.3415               929.6183               991.2066
 Red. masses --      2.5247                 2.3840                 1.6546
 Frc consts  --      1.0680                 1.2138                 0.9578
 IR Inten    --     81.9595                19.3494                38.4605

                     25                     26                     27
                      A                      A                      A
 Frequencies --   1016.6123              1026.0566              1035.0842
 Red. masses --      1.8608                 1.4133                 1.4823
 Frc consts  --      1.1331                 0.8767                 0.9357
 IR Inten    --     52.9282                 0.4261                 1.7793

                     28                     29                     30
                      A                      A                      A
 Frequencies --   1051.8148              1084.9042              1119.1054
 Red. masses --      1.5143                 2.4055                 5.6937
 Frc consts  --      0.9870                 1.6681                 4.2013
 IR Inten    --      3.4239               294.7736                29.2113

                     31                     32                     33
                      A                      A                      A
 Frequencies --   1204.9198              1209.9687              1272.5510
 Red. masses --      1.6169                 6.1471                 4.2268
 Frc consts  --      1.3830                 5.3024                 4.0329
 IR Inten    --    142.4139               218.7887               604.3849

                     34                     35                     36
                      A                      A                      A
 Frequencies --   1319.6822              1366.2172              1379.5427
 Red. masses --      8.1185                 1.6805                 1.6119
 Frc consts  --      8.3304                 1.8481                 1.8074
 IR Inten    --     78.8989               120.7898               287.6081

                     37                     38                     39
                      A                      A                      A
 Frequencies --   1382.6903              1396.4720              1431.9048
 Red. masses --      1.3317                 1.8500                 3.2210
 Frc consts  --      1.5001                 2.1256                 3.8911
 IR Inten    --     73.3132               460.3466               179.9593

                     40                     41                     42
                      A                      A                      A
 Frequencies --   1455.9106              1466.2179              1472.9662
 Red. masses --      1.0508                 1.2683                 1.1240
 Frc consts  --      1.3124                 1.6065                 1.4368
 IR Inten    --      5.6967                67.2378               114.6866

                     43                     44                     45
                      A                      A                      A
 Frequencies --   1479.7156              1483.9567              1495.2040
 Red. masses --      1.0866                 1.0665                 1.0551
 Frc consts  --      1.4018                 1.3837                 1.3897
 IR Inten    --     33.5996                 5.0856                23.1400

                     46                     47                     48
                      A                      A                      A
 Frequencies --   1521.5824              1596.7872              2970.0417
 Red. masses --      4.1142                 6.4360                 1.0504
 Frc consts  --      5.6122                 9.6686                 5.4593
 IR Inten    --      1.0803                11.6712               180.1240

                     49                     50                     51
                      A                      A                      A
 Frequencies --   2974.1359              2981.8766              3003.4997
 Red. masses --      1.0461                 1.0390                 1.0941
 Frc consts  --      5.4519                 5.4430                 5.8153
 IR Inten    --    227.9563               133.6953               129.9868

                     52                     53                     54
                      A                      A                      A
 Frequencies --   3006.7234              3011.1682              3059.1601
 Red. masses --      1.0896                 1.0973                 1.0985
 Frc consts  --      5.8037                 5.8622                 6.0569
 IR Inten    --     54.8293                95.9599                50.6725

                     55                     56                     57
                      A                      A                      A
 Frequencies --   3084.3385              3094.4197              3101.3264
 Red. masses --      1.0871                 1.0931                 1.0923
 Frc consts  --      6.0931                 6.1672                 6.1899
 IR Inten    --    135.7015                27.6126                23.9940

 - Thermochemistry -
 -------------------
 Temperature   298.150 Kelvin.  Pressure   1.00000 Atm.
 Atom     1 has atomic number  6 and mass  12.00000

 Molecular mass:   150.06808 amu.
 Principal axes and moments of inertia in atomic units:
                           1         2         3
     Eigenvalues --  1207.415501682.138592856.31995
           X           -0.56956   0.81987  -0.05848
           Y            0.79632   0.53277  -0.28641
           Z            0.20367   0.20970   0.95632
 This molecule is an asymmetric top.
 Rotational symmetry number  1.
 Warning -- assumption of classical behavior for rotation
           may cause significant error
 Rotational temperatures (Kelvin)      0.07173     0.05149     0.03032
 Rotational constants (GHZ):           1.49471     1.07288     0.63184
 Zero-point vibrational energy     428733.0 (Joules/Mol)
                                  102.46966 (Kcal/Mol)
 Warning -- explicit consideration of  16 degrees of freedom as
           vibrations may cause significant error
 Vibrational temperatures:    119.07   143.01   174.40   204.33   227.56
          (Kelvin)            265.31   393.18   409.64   458.10   467.61
                              529.33   535.73   643.51   710.73   740.32
                              822.91   922.90   965.24  1018.25  1077.83
                             1190.34  1219.14  1337.51  1426.13  1462.68
                             1476.27  1489.26  1513.33  1560.94  1610.14
                             1733.61  1740.88  1830.92  1898.73  1965.68
                             1984.85  1989.38  2009.21  2060.19  2094.73
                             2109.56  2119.27  2128.98  2135.08  2151.27
                             2189.22  2297.42  4273.23  4279.12  4290.26
                             4321.37  4326.00  4332.40  4401.45  4437.68
                             4452.18  4462.12

 Zero-point correction=                           0.163296 (Hartree/Particle)
 Thermal correction to Energy=                    0.174449
 Thermal correction to Enthalpy=                  0.175393
 Thermal correction to Gibbs Free Energy=         0.126859
 Sum of electronic and zero-point Energies=           -499.635090
 Sum of electronic and thermal Energies=              -499.623936
 Sum of electronic and thermal Enthalpies=            -499.622992
 Sum of electronic and thermal Free Energies=         -499.671526

                     E (Thermal)             CV                S
                      KCal/Mol        Cal/Mol-Kelvin    Cal/Mol-Kelvin
 Total                  109.469             41.371            102.149
 Electronic               0.000              0.000              0.000
 Translational            0.889              2.981             40.928
 Rotational               0.889              2.981             30.140
 Vibrational            107.691             35.410             31.081
 Vibration     1          0.600              1.961              3.824
 Vibration     2          0.604              1.950              3.466
 Vibration     3          0.609              1.931              3.081
 Vibration     4          0.615              1.911              2.776
 Vibration     5          0.621              1.893              2.572
 Vibration     6          0.631              1.861              2.283
 Vibration     7          0.676              1.723              1.575
 Vibration     8          0.683              1.702              1.505
 Vibration     9          0.705              1.638              1.318
 Vibration    10          0.709              1.625              1.285
 Vibration    11          0.741              1.538              1.089
 Vibration    12          0.744              1.529              1.070
 Vibration    13          0.806              1.367              0.804
 Vibration    14          0.850              1.263              0.673
 Vibration    15          0.870              1.218              0.623
 Vibration    16          0.928              1.092              0.501

                           ! Non-Optimized Parameters !
 Normal termination of Gaussian 16 at Sat Feb 10 10:54:14 2024.
