 Q-Chem 5.4, Q-Chem, Inc., Pleasanton, CA (2021)
 Q-Chem 5.4.0 for Intel X86 EM64T Linux

User input:
--------------------------------------------------------------
$molecule
-1 2
C                  3.8911310000      1.2849040000     -1.3017110000
N                  2.5084490000      1.0580270000     -0.9925200000
C                  2.0485900000     -0.0162870000     -0.2777520000
C                  2.9240310000     -1.0018720000      0.1968150000
C                  2.4385830000     -2.0996530000      0.9253670000
C                  1.0924360000     -2.2341800000      1.1911890000
C                  0.1740130000     -1.2645100000      0.7338130000
C                 -1.2435450000     -1.4670950000      1.0519070000
O                 -1.6408590000     -2.4643540000      1.7047510000
C                 -2.1738610000     -0.4493100000      0.5682110000
C                 -3.5537880000     -0.5809180000      0.8374290000
C                 -4.4607990000      0.3618160000      0.3963420000
C                 -4.0097620000      1.4810670000     -0.3378350000
C                 -2.6644600000      1.6289830000     -0.6120080000
C                 -1.7188950000      0.6765450000     -0.1706620000
C                 -0.3050720000      0.8751320000     -0.4855880000
O                  0.0518140000      1.9028310000     -1.1495670000
C                  0.6311630000     -0.1320360000     -0.0112070000
H                  4.3262340000      0.4764980000     -1.9099440000
H                  4.5158680000      1.3849960000     -0.4000580000
H                  3.9736380000      2.2130610000     -1.8711780000
H                  1.7704430000      1.7098740000     -1.2733200000
H                  3.9858710000     -0.9181040000     -0.0002220000
H                  3.1409610000     -2.8489160000      1.2806880000
H                  0.6986010000     -3.0729340000      1.7506760000
H                 -3.8685860000     -1.4503740000      1.4030700000
H                 -5.5188110000      0.2448060000      0.6124030000
H                 -4.7213590000      2.2241470000     -0.6860040000
H                 -2.2920300000      2.4778540000     -1.1730850000
$end
$rem
MAX_SCF_CYCLES=200
BASIS  =  6-311++G(d,p)
GUI  =  2
JOB_TYPE  =  SP
METHOD  =  B3LYP
SOLVENT_METHOD = PCM
$end
$pcm
theory = CPCM
$end
$solvent
dielectric 37.219
opticaldielectric 1.43
$end

--------------------------------------------------------------

             Standard Nuclear Orientation (Angstroms)
    I     Atom           X                Y                Z
 ----------------------------------------------------------------
    1      C       3.8911310000     1.2849040000    -1.3017110000
    2      N       2.5084490000     1.0580270000    -0.9925200000
    3      C       2.0485900000    -0.0162870000    -0.2777520000
    4      C       2.9240310000    -1.0018720000     0.1968150000
    5      C       2.4385830000    -2.0996530000     0.9253670000
    6      C       1.0924360000    -2.2341800000     1.1911890000
    7      C       0.1740130000    -1.2645100000     0.7338130000
    8      C      -1.2435450000    -1.4670950000     1.0519070000
    9      O      -1.6408590000    -2.4643540000     1.7047510000
   10      C      -2.1738610000    -0.4493100000     0.5682110000
   11      C      -3.5537880000    -0.5809180000     0.8374290000
   12      C      -4.4607990000     0.3618160000     0.3963420000
   13      C      -4.0097620000     1.4810670000    -0.3378350000
   14      C      -2.6644600000     1.6289830000    -0.6120080000
   15      C      -1.7188950000     0.6765450000    -0.1706620000
   16      C      -0.3050720000     0.8751320000    -0.4855880000
   17      O       0.0518140000     1.9028310000    -1.1495670000
   18      C       0.6311630000    -0.1320360000    -0.0112070000
   19      H       4.3262340000     0.4764980000    -1.9099440000
   20      H       4.5158680000     1.3849960000    -0.4000580000
   21      H       3.9736380000     2.2130610000    -1.8711780000
   22      H       1.7704430000     1.7098740000    -1.2733200000
   23      H       3.9858710000    -0.9181040000    -0.0002220000
   24      H       3.1409610000    -2.8489160000     1.2806880000
   25      H       0.6986010000    -3.0729340000     1.7506760000
   26      H      -3.8685860000    -1.4503740000     1.4030700000
   27      H      -5.5188110000     0.2448060000     0.6124030000
   28      H      -4.7213590000     2.2241470000    -0.6860040000
   29      H      -2.2920300000     2.4778540000    -1.1730850000
 ----------------------------------------------------------------

    8    -783.7945967597      6.46e-06  Convergence criterion met
 Total energy in the final basis set =     -783.7945967597

                    Orbital Energies (a.u.)
 --------------------------------------------------------------

 Alpha MOs
 -- Occupied --
-19.0787 -19.0737 -14.3092 -10.2272 -10.2219 -10.2134 -10.1895 -10.1714
-10.1712 -10.1711 -10.1706 -10.1701 -10.1699 -10.1683 -10.1683 -10.1681
-10.1575 -10.1535  -1.0047  -1.0007  -0.9275  -0.8574  -0.8381  -0.7811
 -0.7496  -0.7432  -0.7358  -0.6798  -0.6635  -0.6289  -0.6167  -0.5782
 -0.5604  -0.5301  -0.5222  -0.4974  -0.4729  -0.4679  -0.4553  -0.4428
 -0.4376  -0.4361  -0.4225  -0.4181  -0.4152  -0.4055  -0.3955  -0.3816
 -0.3808  -0.3664  -0.3653  -0.3537  -0.3432  -0.3404  -0.3341  -0.2943
 -0.2670  -0.2560  -0.2476  -0.2465  -0.2372  -0.2008  -0.1390

 Beta MOs
 -- Occupied --
-19.0742 -19.0687 -14.3090 -10.2253 -10.2199 -10.2135 -10.1895 -10.1711
-10.1707 -10.1705 -10.1700 -10.1694 -10.1691 -10.1683 -10.1681 -10.1678
-10.1563 -10.1530  -0.9967  -0.9917  -0.9267  -0.8550  -0.8365  -0.7773
 -0.7473  -0.7419  -0.7337  -0.6783  -0.6567  -0.6272  -0.6145  -0.5772
 -0.5584  -0.5277  -0.5209  -0.4962  -0.4703  -0.4664  -0.4540  -0.4421
 -0.4357  -0.4350  -0.4220  -0.4108  -0.4069  -0.4037  -0.3935  -0.3808
 -0.3644  -0.3642  -0.3584  -0.3531  -0.3418  -0.3328  -0.3291  -0.2892
 -0.2493  -0.2485  -0.2435  -0.2413  -0.2328  -0.1930

          Ground-State Mulliken Net Atomic Charges

     Atom                 Charge (a.u.)    Spin (a.u.)
  --------------------------------------------------------
      1 C                    -0.373467      -0.001175
      2 N                    -0.323839       0.010651
      3 C                     0.138580       0.008237
      4 C                    -0.081529       0.089755
      5 C                    -0.492303       0.029472
      6 C                    -0.046754       0.067550
      7 C                     0.552453       0.047088
      8 C                    -0.506899       0.122010
      9 O                    -0.484603       0.193248
     10 C                     0.080524       0.022592
     11 C                     0.007971       0.033188
     12 C                    -0.483213       0.028114
     13 C                    -0.500458       0.046309
     14 C                     0.042949       0.021095
     15 C                    -0.008420       0.022937
     16 C                    -0.229666       0.115755
     17 O                    -0.485973       0.171563
     18 C                     0.027284      -0.005616
     19 H                     0.161295       0.000918
     20 H                     0.161854       0.000943
     21 H                     0.167705      -0.000106
     22 H                     0.412774      -0.002561
     23 H                     0.181917      -0.006343
     24 H                     0.201052      -0.002443
     25 H                     0.154097      -0.004322
     26 H                     0.164638      -0.002089
     27 H                     0.195244      -0.002486
     28 H                     0.197402      -0.003646
     29 H                     0.169385      -0.000638
  --------------------------------------------------------
  Sum of atomic charges =    -1.000000

                    Cartesian Multipole Moments
 -----------------------------------------------------------------
    Charge (ESU x 10^10)
                -4.8032
    Dipole Moment (Debye)
         X       4.9680      Y       3.5969      Z      -2.8095
       Tot       6.7463
    Quadrupole Moments (Debye-Ang)
        XX    -104.2214     XY      -7.6670     YY    -129.8917
        XZ       3.3620     YZ      10.7715     ZZ    -120.7211

 Total job time:  112.81s(wall), 444.32s(cpu)
        *  Thank you very much for using Q-Chem.  Have a nice day.  *
