 Gaussian 16, Revision A.03,
 Gaussian 16:  ES64L-G16RevA.03 25-Dec-2016

 --------------------------------------
 #P UB3LYP/6-311++G(d,p) nosym opt freq
 --------------------------------------

 -------
 Radical
 -------
 Symbolic Z-matrix:
 Charge = -1 Multiplicity = 2

 SCF Done:  E(UB3LYP) =  -783.714793504     A.U. after   23 cycles
 SCF Done:  E(UB3LYP) =  -783.714793401     A.U. after   10 cycles
 Optimization completed.
    -- Stationary point found.
 Normal termination of Gaussian 16 at Wed Dec 27 19:58:33 2023.

 ----------------------------------------------------------------------
 #P Geom=AllCheck Guess=TCheck SCRF=Check GenChk UB3LYP/6-311++G(d,p) F
 req
 ----------------------------------------------------------------------

 Structure from the checkpoint file:  "170-rad.chk"
 -------
 Radical
 -------
 Charge = -1 Multiplicity = 2

                          Input orientation:
 ---------------------------------------------------------------------
 Center     Atomic      Atomic             Coordinates (Angstroms)
 Number     Number       Type             X           Y           Z
 ---------------------------------------------------------------------
      1          6           0        3.891131    1.284904   -1.301711
      2          7           0        2.508449    1.058027   -0.992520
      3          6           0        2.048590   -0.016287   -0.277752
      4          6           0        2.924031   -1.001872    0.196815
      5          6           0        2.438583   -2.099653    0.925367
      6          6           0        1.092436   -2.234180    1.191189
      7          6           0        0.174013   -1.264510    0.733813
      8          6           0       -1.243545   -1.467095    1.051907
      9          8           0       -1.640859   -2.464354    1.704751
     10          6           0       -2.173861   -0.449310    0.568211
     11          6           0       -3.553788   -0.580918    0.837429
     12          6           0       -4.460799    0.361816    0.396342
     13          6           0       -4.009762    1.481067   -0.337835
     14          6           0       -2.664460    1.628983   -0.612008
     15          6           0       -1.718895    0.676545   -0.170662
     16          6           0       -0.305072    0.875132   -0.485588
     17          8           0        0.051814    1.902831   -1.149567
     18          6           0        0.631163   -0.132036   -0.011207
     19          1           0        4.326234    0.476498   -1.909944
     20          1           0        4.515868    1.384996   -0.400058
     21          1           0        3.973638    2.213061   -1.871178
     22          1           0        1.770443    1.709874   -1.273320
     23          1           0        3.985871   -0.918104   -0.000222
     24          1           0        3.140961   -2.848916    1.280688
     25          1           0        0.698601   -3.072934    1.750676
     26          1           0       -3.868586   -1.450374    1.403070
     27          1           0       -5.518811    0.244806    0.612403
     28          1           0       -4.721359    2.224147   -0.686004
     29          1           0       -2.292030    2.477854   -1.173085
 ---------------------------------------------------------------------

 SCF Done:  E(UB3LYP) =  -783.714793401     A.U. after    1 cycles

 Alpha  occ. eigenvalues --  -18.95036 -18.94227 -14.19629 -10.10093 -10.09947
 Alpha  occ. eigenvalues --  -10.09562 -10.09195 -10.05677 -10.05630 -10.05167
 Alpha  occ. eigenvalues --  -10.04977 -10.04941 -10.04885 -10.04817 -10.04650
 Alpha  occ. eigenvalues --  -10.04578 -10.04304 -10.03280  -0.87578  -0.86786
 Alpha  occ. eigenvalues --   -0.81546  -0.73600  -0.71864  -0.66081  -0.63095
 Alpha  occ. eigenvalues --   -0.62865  -0.61664  -0.57290  -0.54139  -0.51135
 Alpha  occ. eigenvalues --   -0.49822  -0.46162  -0.44074  -0.41388  -0.40603
 Alpha  occ. eigenvalues --   -0.38382  -0.35753  -0.34928  -0.33888  -0.33859
 Alpha  occ. eigenvalues --   -0.32930  -0.31991  -0.30358  -0.29359  -0.29244
 Alpha  occ. eigenvalues --   -0.28615  -0.27522  -0.27142  -0.25356  -0.25127
 Alpha  occ. eigenvalues --   -0.24608  -0.23502  -0.22430  -0.21820  -0.21269
 Alpha  occ. eigenvalues --   -0.17696  -0.14171  -0.13394  -0.12563  -0.11829
 Alpha  occ. eigenvalues --   -0.10583  -0.08264  -0.01249
 Alpha virt. eigenvalues --    0.07240   0.07624   0.08358   0.09142   0.09969
 Alpha virt. eigenvalues --    0.10272   0.10719   0.11210   0.11990   0.12551
 Alpha virt. eigenvalues --    0.12750   0.13521   0.14398   0.15085   0.15660

  Beta  occ. eigenvalues --  -18.94509 -18.93633 -14.19619 -10.10093 -10.09761
  Beta  occ. eigenvalues --  -10.09565 -10.09068 -10.05626 -10.05578 -10.05107
  Beta  occ. eigenvalues --  -10.04984 -10.04953 -10.04874 -10.04731 -10.04554
  Beta  occ. eigenvalues --  -10.04463 -10.04219 -10.03272  -0.86696  -0.85757
  Beta  occ. eigenvalues --   -0.81463  -0.73370  -0.71709  -0.65682  -0.62969
  Beta  occ. eigenvalues --   -0.62693  -0.61452  -0.57164  -0.53437  -0.50978
  Beta  occ. eigenvalues --   -0.49594  -0.46074  -0.43897  -0.41157  -0.40496
  Beta  occ. eigenvalues --   -0.38289  -0.35578  -0.34693  -0.33848  -0.33724
  Beta  occ. eigenvalues --   -0.32870  -0.31884  -0.30322  -0.29072  -0.28486
  Beta  occ. eigenvalues --   -0.28232  -0.27185  -0.26786  -0.25225  -0.24557
  Beta  occ. eigenvalues --   -0.23441  -0.22678  -0.22289  -0.21079  -0.20680
  Beta  occ. eigenvalues --   -0.17179  -0.12754  -0.12098  -0.11828  -0.11357
  Beta  occ. eigenvalues --   -0.10040  -0.07608
  Beta virt. eigenvalues --    0.04484   0.07237   0.08349   0.08482   0.09134
  Beta virt. eigenvalues --    0.10264   0.10718   0.10904   0.11319   0.11990
  Beta virt. eigenvalues --    0.12543   0.13067   0.13518   0.14388   0.15072

 Mulliken charges and spin densities:
               1          2
     1  C   -0.343477  -0.002376
     2  N   -0.275023   0.005565
     3  C    0.137387   0.010799
     4  C   -0.004985   0.068843
     5  C   -0.443718   0.051019
     6  C   -0.022116   0.029959
     7  C    0.650665   0.079036
     8  C   -0.787283   0.066196
     9  O   -0.358390   0.222964
    10  C    0.162433   0.048031
    11  C    0.001065   0.012174
    12  C   -0.387985   0.041810
    13  C   -0.466252   0.040350
    14  C    0.048417   0.020969
    15  C    0.098265   0.023097
    16  C   -0.359733   0.103679
    17  O   -0.391249   0.195884
    18  C    0.029659   0.002091
    19  H    0.127654   0.001573
    20  H    0.128932   0.001675
    21  H    0.126583  -0.000173
    22  H    0.400571  -0.002907
    23  H    0.107709  -0.005346
    24  H    0.129474  -0.003713
    25  H    0.145608  -0.002338
    26  H    0.151537  -0.001263
    27  H    0.120991  -0.003493
    28  H    0.122509  -0.003405
    29  H    0.150750  -0.000697
 Sum of Mulliken charges =  -1.00000   1.00000

 Dipole moment (field-independent basis, Debye):
    X=              3.8065    Y=              2.5230    Z=             -2.0151  Tot=              4.9916
 Quadrupole moment (field-independent basis, Debye-Ang):
   XX=           -124.1489   YY=           -129.7762   ZZ=           -120.4190
   XY=             -3.2237   XZ=              3.3854   YZ=              9.9720

  Exact polarizability: 353.320 -24.531 214.568 -18.815 -60.016 147.649
 Approx polarizability: 513.587 -27.403 388.838 -30.510-126.359 252.529

                      1                      2                      3
                      A                      A                      A
 Frequencies --     36.9093                56.1419                66.9325
 Red. masses --      3.1995                 7.6088                 5.1233
 Frc consts  --      0.0026                 0.0141                 0.0135
 IR Inten    --      5.5497                 1.9733                 0.0608

                      4                      5                      6
                      A                      A                      A
 Frequencies --    133.0733               165.7335               178.8854
 Red. masses --      4.5309                 3.6999                 3.7395
 Frc consts  --      0.0473                 0.0599                 0.0705
 IR Inten    --      0.0361                 2.8420                 3.0426

                      7                      8                      9
                      A                      A                      A
 Frequencies --    187.9747               230.1008               272.3251
 Red. masses --      2.3560                 1.7710                 4.0986
 Frc consts  --      0.0490                 0.0552                 0.1791
 IR Inten    --      0.0033                 0.0118                 4.8937

                     10                     11                     12
                      A                      A                      A
 Frequencies --    278.3269               326.4622               342.2255
 Red. masses --      4.3788                 4.5773                 8.1294
 Frc consts  --      0.1999                 0.2874                 0.5610
 IR Inten    --      0.1076                 2.7048                 2.7264

                     13                     14                     15
                      A                      A                      A
 Frequencies --    378.4410               418.2249               423.3878
 Red. masses --      7.4703                 6.2390                12.6095
 Frc consts  --      0.6304                 0.6430                 1.3318
 IR Inten    --      4.4099                 0.0201                 9.7228

                     16                     17                     18
                      A                      A                      A
 Frequencies --    438.6061               482.7922               490.4925
 Red. masses --      3.3883                 6.4784                11.5117
 Frc consts  --      0.3840                 0.8897                 1.6318
 IR Inten    --      0.8694                 4.9657                 0.1953

                     19                     20                     21
                      A                      A                      A
 Frequencies --    498.7297               565.5200               597.5543
 Red. masses --      4.1690                 4.2299                 6.2048
 Frc consts  --      0.6110                 0.7970                 1.3054
 IR Inten    --      1.3787                 7.1329                11.2658

                     22                     23                     24
                      A                      A                      A
 Frequencies --    626.4466               646.6309               673.0442
 Red. masses --      5.0474                 4.1584                 5.6715
 Frc consts  --      1.1671                 1.0245                 1.5137
 IR Inten    --      5.4409                 1.9700                 6.9319

                     25                     26                     27
                      A                      A                      A
 Frequencies --    697.2833               701.6676               709.2892
 Red. masses --      1.1232                 5.8536                 2.1713
 Frc consts  --      0.3218                 1.6980                 0.6436
 IR Inten    --     52.1177                 4.9692                81.8062

                     28                     29                     30
                      A                      A                      A
 Frequencies --    737.7770               766.8497               782.8519
 Red. masses --      1.8226                 2.2136                 2.0180
 Frc consts  --      0.5845                 0.7670                 0.7287
 IR Inten    --     14.6392                 8.9296                22.8135

                     31                     32                     33
                      A                      A                      A
 Frequencies --    795.1484               811.6913               844.3048
 Red. masses --      5.9835                 4.2769                 1.5214
 Frc consts  --      2.2290                 1.6602                 0.6390
 IR Inten    --      4.4349                 5.2340                 2.8926

                     34                     35                     36
                      A                      A                      A
 Frequencies --    866.8231               868.1467               931.1692
 Red. masses --      1.5425                 6.0936                 6.6535
 Frc consts  --      0.6829                 2.7059                 3.3990
 IR Inten    --      0.1253                21.6399                 2.7155

                     37                     38                     39
                      A                      A                      A
 Frequencies --    958.1037               980.4309               981.1455
 Red. masses --      1.2729                 1.3430                 1.2770
 Frc consts  --      0.6884                 0.7606                 0.7243
 IR Inten    --      1.0604                 2.2190                 0.5830

                     40                     41                     42
                      A                      A                      A
 Frequencies --    995.7496              1038.0314              1086.9144
 Red. masses --      5.1979                 2.0117                 2.0049
 Frc consts  --      3.0365                 1.2771                 1.3955
 IR Inten    --     28.0191                19.8273                20.7009

                     43                     44                     45
                      A                      A                      A
 Frequencies --   1109.6121              1120.8448              1146.0664
 Red. masses --      2.1025                 1.9895                 1.2741
 Frc consts  --      1.5252                 1.4726                 0.9860
 IR Inten    --     14.7009                17.1118                 0.4089

                     46                     47                     48
                      A                      A                      A
 Frequencies --   1147.6941              1175.1850              1184.6749
 Red. masses --      1.3484                 2.2822                 2.0841
 Frc consts  --      1.0465                 1.8570                 1.7233
 IR Inten    --     15.8737                14.4418                 4.4700

                     49                     50                     51
                      A                      A                      A
 Frequencies --   1187.2012              1205.5406              1236.3911
 Red. masses --      1.4257                 2.0565                 2.9586
 Frc consts  --      1.1839                 1.7610                 2.6647
 IR Inten    --     29.7287                 2.3389                23.3598

                     52                     53                     54
                      A                      A                      A
 Frequencies --   1251.9866              1293.5971              1336.7550
 Red. masses --      1.9604                 3.1157                 2.3675
 Frc consts  --      1.8105                 3.0718                 2.4926
 IR Inten    --     24.5808                70.2571                54.7838

                     55                     56                     57
                      A                      A                      A
 Frequencies --   1361.8203              1371.5410              1404.6493
 Red. masses --      8.6863                 5.9387                 2.8826
 Frc consts  --      9.4913                 6.5820                 3.3509
 IR Inten    --      4.8889                17.0727               270.1083

                     58                     59                     60
                      A                      A                      A
 Frequencies --   1426.7410              1458.3432              1475.6711
 Red. masses --      2.7082                 1.3588                 1.0420
 Frc consts  --      3.2481                 1.7026                 1.3369
 IR Inten    --     77.4474                75.7458                 4.3953

                     61                     62                     63
                      A                      A                      A
 Frequencies --   1477.7827              1481.0253              1508.5765
 Red. masses --      2.5413                 3.3074                 3.5619
 Frc consts  --      3.2698                 4.2743                 4.7761
 IR Inten    --     24.5499                17.8982                 7.6457

                     64                     65                     66
                      A                      A                      A
 Frequencies --   1518.9448              1535.6814              1553.7620
 Red. masses --      1.1264                 5.5682                 3.5040
 Frc consts  --      1.5312                 7.7369                 4.9841
 IR Inten    --     94.3927               579.8098                54.7030

                     67                     68                     69
                      A                      A                      A
 Frequencies --   1586.3229              1613.5731              1621.3724
 Red. masses --      3.1438                 3.7491                 5.2787
 Frc consts  --      4.6610                 5.7511                 8.1760
 IR Inten    --    238.2155               183.0010                46.8578

                     70                     71                     72
                      A                      A                      A
 Frequencies --   1625.8598              2941.2098              2959.4745
 Red. masses --      6.0440                 1.0414                 1.1016
 Frc consts  --      9.4133                 5.3079                 5.6848
 IR Inten    --     11.0482               251.1982                92.0664

                     73                     74                     75
                      A                      A                      A
 Frequencies --   3085.5628              3132.7158              3134.2027
 Red. masses --      1.0914                 1.0846                 1.0868
 Frc consts  --      6.1224                 6.2716                 6.2899
 IR Inten    --     39.3563                20.8697                40.0569

                     76                     77                     78
                      A                      A                      A
 Frequencies --   3152.0934              3178.7810              3182.9325
 Red. masses --      1.0913                 1.0896                 1.0917
 Frc consts  --      6.3885                 6.4872                 6.5162
 IR Inten    --     56.5459                34.3035                16.3465

                     79                     80                     81
                      A                      A                      A
 Frequencies --   3187.4378              3196.1682              3320.3745
 Red. masses --      1.0921                 1.0917                 1.0832
 Frc consts  --      6.5375                 6.5705                 7.0359
 IR Inten    --     25.4772                14.0908               231.8171

 - Thermochemistry -
 -------------------
 Temperature   298.150 Kelvin.  Pressure   1.00000 Atm.
 Atom     1 has atomic number  6 and mass  12.00000

 Molecular mass:   237.07898 amu.
 Principal axes and moments of inertia in atomic units:
                           1         2         3
     Eigenvalues --  2315.525235351.495117655.70141
           X            0.99304  -0.01023   0.11732
           Y           -0.05158   0.85784   0.51133
           Z           -0.10587  -0.51382   0.85134
 This molecule is an asymmetric top.
 Rotational symmetry number  1.
 Warning -- assumption of classical behavior for rotation
           may cause significant error
 Rotational temperatures (Kelvin)      0.03741     0.01618     0.01131
 Rotational constants (GHZ):           0.77941     0.33724     0.23574
 Zero-point vibrational energy     579928.7 (Joules/Mol)
                                  138.60629 (Kcal/Mol)
 Warning -- explicit consideration of  21 degrees of freedom as
           vibrations may cause significant error
 Vibrational temperatures:     53.10    80.78    96.30   191.46   238.45
          (Kelvin)            257.38   270.45   331.06   391.82   400.45
                              469.71   492.39   544.49   601.73   609.16
                              631.06   694.63   705.71   717.56   813.66
                              859.75   901.32   930.36   968.36  1003.24
                             1009.54  1020.51  1061.50  1103.33  1126.35
                             1144.04  1167.84  1214.77  1247.17  1249.07
                             1339.74  1378.50  1410.62  1411.65  1432.66
                             1493.50  1563.83  1596.48  1612.65  1648.93
                             1651.28  1690.83  1704.48  1708.12  1734.50
                             1778.89  1801.33  1861.20  1923.29  1959.36
                             1973.34  2020.98  2052.76  2098.23  2123.16
                             2126.20  2130.87  2170.51  2185.42  2209.50
                             2235.52  2282.36  2321.57  2332.79  2339.25
                             4231.74  4258.02  4439.44  4507.28  4509.42
                             4535.16  4573.56  4579.53  4586.01  4598.57
                             4777.28

 Zero-point correction=                           0.220883 (Hartree/Particle)
 Thermal correction to Energy=                    0.234971
 Thermal correction to Enthalpy=                  0.235916
 Thermal correction to Gibbs Free Energy=         0.178899
 Sum of electronic and zero-point Energies=           -783.493910
 Sum of electronic and thermal Energies=              -783.479822
 Sum of electronic and thermal Enthalpies=            -783.478878
 Sum of electronic and thermal Free Energies=         -783.535894

                     E (Thermal)             CV                S
                      KCal/Mol        Cal/Mol-Kelvin    Cal/Mol-Kelvin
 Total                  147.447             56.386            120.001
 Electronic               0.000              0.000              1.377
 Translational            0.889              2.981             42.291
 Rotational               0.889              2.981             32.917
 Vibrational            145.669             50.424             43.416
 Vibration     1          0.594              1.982              5.418
 Vibration     2          0.596              1.975              4.588
 Vibration     3          0.598              1.970              4.242
 Vibration     4          0.613              1.920              2.901
 Vibration     5          0.624              1.885              2.483
 Vibration     6          0.629              1.868              2.340
 Vibration     7          0.633              1.856              2.248
 Vibration     8          0.652              1.795              1.878
 Vibration     9          0.675              1.724              1.581
 Vibration    10          0.679              1.714              1.544
 Vibration    11          0.710              1.623              1.278
 Vibration    12          0.721              1.591              1.202
 Vibration    13          0.749              1.516              1.045
 Vibration    14          0.781              1.431              0.898
 Vibration    15          0.786              1.419              0.881
 Vibration    16          0.799              1.386              0.831
 Vibration    17          0.839              1.288              0.703
 Vibration    18          0.846              1.271              0.682
 Vibration    19          0.854              1.253              0.661
 Vibration    20          0.921              1.106              0.513
 Vibration    21          0.955              1.037              0.454

                           ! Non-Optimized Parameters !
 Normal termination of Gaussian 16 at Wed Dec 27 21:02:52 2023.
