 Gaussian 16, Revision A.03,
 Gaussian 16:  ES64L-G16RevA.03 25-Dec-2016

 ----------------------------------------------------------------------
 #P UB3LYP/6-311++G(d,p) nosym opt freq SCRF=(PCM,Solvent=n,n-DiMethylF
 ormamide)
 ----------------------------------------------------------------------

 --------
 Oxidized
 --------
 Symbolic Z-matrix:
 Charge =  0 Multiplicity = 1

 SCF Done:  E(UB3LYP) =  -5643.23508012     A.U. after   16 cycles
 SCF Done:  E(UB3LYP) =  -5643.23515057     A.U. after   12 cycles
 SCF Done:  E(UB3LYP) =  -5643.23515756     A.U. after   10 cycles
 SCF Done:  E(UB3LYP) =  -5643.23515763     A.U. after   10 cycles
 SCF Done:  E(UB3LYP) =  -5643.23515826     A.U. after    9 cycles
 Optimization completed.
    -- Stationary point found.
 Normal termination of Gaussian 16 at Sat Feb 10 10:53:31 2024.

 ----------------------------------------------------------------------
 #P Geom=AllCheck Guess=TCheck SCRF=Check GenChk UB3LYP/6-311++G(d,p) F
 req
 ----------------------------------------------------------------------

 Structure from the checkpoint file:  "109.chk"
 --------
 Oxidized
 --------
 Charge =  0 Multiplicity = 1

                          Input orientation:
 ---------------------------------------------------------------------
 Center     Atomic      Atomic             Coordinates (Angstroms)
 Number     Number       Type             X           Y           Z
 ---------------------------------------------------------------------
      1          6           0       -1.833295   -3.668661    1.315806
      2          6           0       -0.395233   -3.934378    1.062883
      3          6           0        0.391763   -2.947254    0.597500
      4          6           0       -0.160926   -1.558833    0.323539
      5          6           0       -1.585885   -1.294835    0.571304
      6          6           0       -2.359631   -2.297954    1.039656
      7          8           0       -2.607150   -4.510300    1.737293
      8          8           0        0.580143   -0.686964   -0.096264
      9          8           0       -3.665818   -2.148068    1.295479
     10          6           0       -2.100349    0.084402    0.288257
     11         35           0        0.190376   -5.692748    1.433810
     12         35           0        2.228331   -3.172055    0.239967
     13          1           0       -1.566191    0.824511    0.890092
     14          1           0       -3.164201    0.154489    0.507486
     15          1           0       -1.937624    0.346873   -0.760502
     16          1           0       -4.002561   -3.003396    1.619447
 ---------------------------------------------------------------------

 SCF Done:  E(UB3LYP) =  -5643.23515826     A.U. after    1 cycles

 Alpha  occ. eigenvalues -- -482.86030-482.85968 -62.51293 -62.51230 -56.33345
 Alpha  occ. eigenvalues --  -56.33287 -56.32959 -56.32899 -56.32886 -56.32840
 Alpha  occ. eigenvalues --  -19.18902 -19.16915 -19.14968 -10.31656 -10.30380
 Alpha  occ. eigenvalues --  -10.28125 -10.28116 -10.27776 -10.21773 -10.18049
 Alpha  occ. eigenvalues --   -8.72262  -8.72197  -6.55450  -6.55401  -6.54155
 Alpha  occ. eigenvalues --   -6.54062  -6.53982  -6.53929  -2.66542  -2.66486
 Alpha  occ. eigenvalues --   -2.66199  -2.66124  -2.66066  -2.66024  -2.65034
 Alpha  occ. eigenvalues --   -2.65031  -2.64957  -2.64956  -1.12308  -1.08607
 Alpha  occ. eigenvalues --   -1.08396  -0.90649  -0.84776  -0.82880  -0.77814
 Alpha  occ. eigenvalues --   -0.72944  -0.69656  -0.64392  -0.61600  -0.58475
 Alpha  occ. eigenvalues --   -0.54649  -0.50175  -0.49063  -0.48271  -0.45956
 Alpha  occ. eigenvalues --   -0.44789  -0.44420  -0.43703  -0.42972  -0.40569
 Alpha  occ. eigenvalues --   -0.40556  -0.39574  -0.37691  -0.33144  -0.33125
 Alpha  occ. eigenvalues --   -0.32234  -0.30916  -0.29377  -0.29326  -0.26466
 Alpha virt. eigenvalues --   -0.14838  -0.05527  -0.03494  -0.01461  -0.01067
 Alpha virt. eigenvalues --   -0.00581   0.00935   0.01096   0.03146   0.03408
 Alpha virt. eigenvalues --    0.03875   0.04395   0.04677   0.05684   0.06008

  Beta  occ. eigenvalues -- -482.86030-482.85968 -62.51293 -62.51230 -56.33345
  Beta  occ. eigenvalues --  -56.33287 -56.32959 -56.32899 -56.32886 -56.32840
  Beta  occ. eigenvalues --  -19.18902 -19.16915 -19.14968 -10.31656 -10.30380
  Beta  occ. eigenvalues --  -10.28125 -10.28116 -10.27776 -10.21773 -10.18049
  Beta  occ. eigenvalues --   -8.72262  -8.72197  -6.55450  -6.55401  -6.54155
  Beta  occ. eigenvalues --   -6.54062  -6.53982  -6.53929  -2.66542  -2.66486
  Beta  occ. eigenvalues --   -2.66199  -2.66124  -2.66066  -2.66024  -2.65034
  Beta  occ. eigenvalues --   -2.65031  -2.64957  -2.64956  -1.12308  -1.08607
  Beta  occ. eigenvalues --   -1.08396  -0.90649  -0.84776  -0.82880  -0.77814
  Beta  occ. eigenvalues --   -0.72944  -0.69656  -0.64392  -0.61600  -0.58475
  Beta  occ. eigenvalues --   -0.54649  -0.50175  -0.49063  -0.48271  -0.45956
  Beta  occ. eigenvalues --   -0.44789  -0.44420  -0.43703  -0.42972  -0.40569
  Beta  occ. eigenvalues --   -0.40556  -0.39574  -0.37691  -0.33144  -0.33125
  Beta  occ. eigenvalues --   -0.32234  -0.30916  -0.29377  -0.29326  -0.26466
  Beta virt. eigenvalues --   -0.14838  -0.05527  -0.03494  -0.01461  -0.01067
  Beta virt. eigenvalues --   -0.00581   0.00935   0.01096   0.03146   0.03408
  Beta virt. eigenvalues --    0.03875   0.04395   0.04677   0.05684   0.06008

 Mulliken charges and spin densities:
               1          2
     1  C   -0.320810   0.000000
     2  C    0.605604  -0.000000
     3  C    0.641107   0.000000
     4  C   -1.757617  -0.000000
     5  C    2.668032  -0.000000
     6  C   -1.873155   0.000000
     7  O   -0.240241  -0.000000
     8  O   -0.203159  -0.000000
     9  O   -0.222409  -0.000000
    10  C   -0.145976  -0.000000
    11  Br  -0.020276  -0.000000
    12  Br  -0.013630  -0.000000
    13  H    0.190040   0.000000
    14  H    0.190710   0.000000
    15  H    0.189950  -0.000000
    16  H    0.311829   0.000000
 Sum of Mulliken charges =  -0.00000  -0.00000

 Dipole moment (field-independent basis, Debye):
    X=             -1.6132    Y=             -0.2656    Z=              0.4364  Tot=              1.6922
 Quadrupole moment (field-independent basis, Debye-Ang):
   XX=            -91.2320   YY=            -96.7246   ZZ=            -93.1317
   XY=             -2.7903   XZ=              0.8339   YZ=              1.9826

  Exact polarizability: 223.569  28.635 224.612 -37.273 -43.375 118.183
 Approx polarizability: 275.507  67.703 274.182 -56.545 -61.678 145.000

                      1                      2                      3
                      A                      A                      A
 Frequencies --     50.2923                58.6801                77.1157
 Red. masses --     13.8425                 5.7730                 1.1726
 Frc consts  --      0.0206                 0.0117                 0.0041
 IR Inten    --      1.1047                 3.7429                 0.2873

                      4                      5                      6
                      A                      A                      A
 Frequencies --    112.9916               131.3246               179.0265
 Red. masses --      4.3543                54.9855                 8.3119
 Frc consts  --      0.0328                 0.5587                 0.1570
 IR Inten    --      0.3737                 0.2297                 2.8166

                      7                      8                      9
                      A                      A                      A
 Frequencies --    179.9805               253.3232               273.3286
 Red. masses --     12.8399                 6.9736                 9.6769
 Frc consts  --      0.2451                 0.2637                 0.4259
 IR Inten    --      0.4115                 0.2057                 3.5536

                     10                     11                     12
                      A                      A                      A
 Frequencies --    300.6300               304.7962               353.0771
 Red. masses --      5.5105                 4.4482                 7.1413
 Frc consts  --      0.2934                 0.2435                 0.5245
 IR Inten    --      0.4216                 8.2306                20.6328

                     13                     14                     15
                      A                      A                      A
 Frequencies --    417.0809               422.5416               496.7952
 Red. masses --      9.7884                11.1877                11.3248
 Frc consts  --      1.0032                 1.1769                 1.6468
 IR Inten    --     41.2430                 5.0135                20.1426

                     16                     17                     18
                      A                      A                      A
 Frequencies --    528.7471               539.4880               564.5751
 Red. masses --      9.4102                 2.6884                 1.4298
 Frc consts  --      1.5501                 0.4610                 0.2685
 IR Inten    --     15.2993                97.3821                64.8061

                     19                     20                     21
                      A                      A                      A
 Frequencies --    724.1754               724.5030               741.4796
 Red. masses --      6.3784                 8.5997                10.8651
 Frc consts  --      1.9708                 2.6596                 3.5195
 IR Inten    --     32.6687                14.7488                21.7239

                     22                     23                     24
                      A                      A                      A
 Frequencies --    768.8514               824.4777               934.8236
 Red. masses --      8.8324                 8.6420                 3.0856
 Frc consts  --      3.0762                 3.4612                 1.5887
 IR Inten    --    104.3564                60.8964               132.1091

                     25                     26                     27
                      A                      A                      A
 Frequencies --   1028.8150              1047.7562              1103.6277
 Red. masses --      3.3885                 1.4635                 3.0388
 Frc consts  --      2.1132                 0.9466                 2.1807
 IR Inten    --     57.5239                 0.0821               154.8887

                     28                     29                     30
                      A                      A                      A
 Frequencies --   1191.4549              1277.6066              1302.7547
 Red. masses --      9.3964                 2.1108                 9.0041
 Frc consts  --      7.8590                 2.0299                 9.0036
 IR Inten    --    751.2191                62.6357               145.6466

                     31                     32                     33
                      A                      A                      A
 Frequencies --   1359.7617              1409.4104              1468.2462
 Red. masses --      2.4419                 1.3057                 1.0419
 Frc consts  --      2.6601                 1.5282                 1.3233
 IR Inten    --    579.6530                58.9447                15.5541

                     34                     35                     36
                      A                      A                      A
 Frequencies --   1472.0951              1591.1217              1685.0461
 Red. masses --      1.0640                11.4193                11.0069
 Frc consts  --      1.3585                17.0333                18.4136
 IR Inten    --     11.7316               278.4048               916.8144

                     37                     38                     39
                      A                      A                      A
 Frequencies --   1700.5764              1720.8640              3039.5038
 Red. masses --     12.0744                 8.4632                 1.0382
 Frc consts  --     20.5735                14.7666                 5.6511
 IR Inten    --    333.4752                61.5359                15.5953

                     40                     41                     42
                      A                      A                      A
 Frequencies --   3087.9238              3142.5524              3647.9928
 Red. masses --      1.1001                 1.0999                 1.0648
 Frc consts  --      6.1806                 6.3996                 8.3488
 IR Inten    --     13.2218                 7.2639               257.6740

 - Thermochemistry -
 -------------------
 Temperature   298.150 Kelvin.  Pressure   1.00000 Atm.
 Atom     1 has atomic number  6 and mass  12.00000

 Molecular mass:   293.85272 amu.
 Principal axes and moments of inertia in atomic units:
                           1         2         3
     Eigenvalues --  3007.989993923.731996920.59452
           X            0.76077   0.61236   0.21506
           Y           -0.64889   0.71106   0.27079
           Z            0.01290  -0.34556   0.93831
 This molecule is an asymmetric top.
 Rotational symmetry number  1.
 Warning -- assumption of classical behavior for rotation
           may cause significant error
 Rotational temperatures (Kelvin)      0.02879     0.02207     0.01252
 Rotational constants (GHZ):           0.59998     0.45996     0.26078
 Zero-point vibrational energy     252646.6 (Joules/Mol)
                                   60.38399 (Kcal/Mol)
 Warning -- explicit consideration of  18 degrees of freedom as
           vibrations may cause significant error
 Vibrational temperatures:     72.36    84.43   110.95   162.57   188.95
          (Kelvin)            257.58   258.95   364.48   393.26   432.54
                              438.53   508.00   600.09   607.94   714.78
                              760.75   776.20   812.30  1041.93  1042.40
                             1066.82  1106.21  1186.24  1345.00  1480.24
                             1507.49  1587.87  1714.24  1838.19  1874.37
                             1956.39  2027.83  2112.48  2118.02  2289.27
                             2424.41  2446.75  2475.94  4373.17  4442.83
                             4521.43  5248.65

 Zero-point correction=                           0.096228 (Hartree/Particle)
 Thermal correction to Energy=                    0.108257
 Thermal correction to Enthalpy=                  0.109201
 Thermal correction to Gibbs Free Energy=         0.055553
 Sum of electronic and zero-point Energies=          -5643.138930
 Sum of electronic and thermal Energies=             -5643.126902
 Sum of electronic and thermal Enthalpies=           -5643.125957
 Sum of electronic and thermal Free Energies=        -5643.179606

                     E (Thermal)             CV                S
                      KCal/Mol        Cal/Mol-Kelvin    Cal/Mol-Kelvin
 Total                   67.932             41.537            112.912
 Electronic               0.000              0.000              0.000
 Translational            0.889              2.981             42.931
 Rotational               0.889              2.981             32.768
 Vibrational             66.155             35.575             37.213
 Vibration     1          0.595              1.977              4.806
 Vibration     2          0.596              1.974              4.501
 Vibration     3          0.599              1.964              3.963
 Vibration     4          0.607              1.939              3.217
 Vibration     5          0.612              1.922              2.927
 Vibration     6          0.629              1.868              2.339
 Vibration     7          0.629              1.867              2.329
 Vibration     8          0.664              1.757              1.707
 Vibration     9          0.676              1.723              1.575
 Vibration    10          0.693              1.672              1.413
 Vibration    11          0.696              1.665              1.390
 Vibration    12          0.729              1.569              1.152
 Vibration    13          0.780              1.433              0.902
 Vibration    14          0.785              1.421              0.883
 Vibration    15          0.852              1.257              0.666
 Vibration    16          0.884              1.186              0.590
 Vibration    17          0.895              1.163              0.566
 Vibration    18          0.920              1.108              0.515

                           ! Non-Optimized Parameters !
 Normal termination of Gaussian 16 at Sat Feb 10 11:10:51 2024.
