 Q-Chem 5.4, Q-Chem, Inc., Pleasanton, CA (2021)
 Q-Chem 5.4.0 for Intel X86 EM64T Linux

User input:
--------------------------------------------------------------
$molecule
-1 2
Cl                -2.5523110000      1.7741640000      0.7018790000
C                 -1.1526650000      0.7633540000      0.4128210000
C                 -1.2109020000     -0.5997470000      0.5476410000
Cl                -2.6897730000     -1.4114020000      1.0172940000
C                 -0.0633570000     -1.4725150000      0.3145240000
O                 -0.1166010000     -2.7096330000      0.4369810000
C                  1.1524600000     -0.7633830000     -0.0752310000
C                  1.2109120000      0.5997840000     -0.2101130000
Cl                 2.6898140000      1.4114440000     -0.6797510000
C                  0.0633850000      1.4725730000      0.0229790000
O                  0.1166080000      2.7096240000     -0.0994310000
Cl                 2.5524300000     -1.7742620000     -0.3643500000
$end

$rem
BASIS  =  6-311++G(d,p)
GUI  =  2
JOB_TYPE  =  SP
METHOD  =  B3LYP
SCF_CONVERGENCE  = 8
SOLVENT_METHOD = sm12
$end

$smx
solvent dimethylformamide
charges CM5
$end

--------------------------------------------------------------

             Standard Nuclear Orientation (Angstroms)
    I     Atom           X                Y                Z
 ----------------------------------------------------------------
    1      Cl     -2.5523110000     1.7741640000     0.7018790000
    2      C      -1.1526650000     0.7633540000     0.4128210000
    3      C      -1.2109020000    -0.5997470000     0.5476410000
    4      Cl     -2.6897730000    -1.4114020000     1.0172940000
    5      C      -0.0633570000    -1.4725150000     0.3145240000
    6      O      -0.1166010000    -2.7096330000     0.4369810000
    7      C       1.1524600000    -0.7633830000    -0.0752310000
    8      C       1.2109120000     0.5997840000    -0.2101130000
    9      Cl      2.6898140000     1.4114440000    -0.6797510000
   10      C       0.0633850000     1.4725730000     0.0229790000
   11      O       0.1166080000     2.7096240000    -0.0994310000
   12      Cl      2.5524300000    -1.7742620000    -0.3643500000
 ----------------------------------------------------------------

   15   -2220.1401891645      8.60e-09  Convergence criterion met
 Total energy in the final basis set =    -2220.2124017582

                    Orbital Energies (a.u.)
 --------------------------------------------------------------

 Alpha MOs
 -- Occupied --
********-101.5572-101.5572-101.5572 -19.0936 -19.0936 -10.2514 -10.2513
-10.2437 -10.2437 -10.2431 -10.2431  -9.4713  -9.4713  -9.4712  -9.4712
 -7.2361  -7.2360  -7.2359  -7.2359  -7.2266  -7.2265  -7.2265  -7.2265
 -7.2253  -7.2253  -7.2253  -7.2253  -1.0283  -1.0249  -0.9067  -0.8959
 -0.8529  -0.8505  -0.8014  -0.7188  -0.6944  -0.5957  -0.5913  -0.5303
 -0.4851  -0.4610  -0.4534  -0.4454  -0.4244  -0.4148  -0.4094  -0.4046
 -0.3878  -0.3485  -0.3403  -0.3320  -0.3305  -0.3233  -0.3091  -0.3027
 -0.2808  -0.2639  -0.2575  -0.2496  -0.1777

 Beta MOs
 -- Occupied --
********-101.5572-101.5571-101.5571 -19.0865 -19.0864 -10.2504 -10.2504
-10.2425 -10.2424 -10.2418 -10.2418  -9.4713  -9.4712  -9.4712  -9.4712
 -7.2361  -7.2361  -7.2360  -7.2360  -7.2263  -7.2263  -7.2263  -7.2263
 -7.2253  -7.2253  -7.2253  -7.2253  -1.0166  -1.0127  -0.9028  -0.8946
 -0.8521  -0.8488  -0.7980  -0.7169  -0.6847  -0.5917  -0.5873  -0.5282
 -0.4819  -0.4587  -0.4447  -0.4397  -0.4169  -0.4094  -0.4079  -0.3839
 -0.3815  -0.3384  -0.3320  -0.3312  -0.3229  -0.3218  -0.3089  -0.3021
 -0.2571  -0.2566  -0.2509  -0.2434

          Ground-State Mulliken Net Atomic Charges

     Atom                 Charge (a.u.)    Spin (a.u.)
  --------------------------------------------------------
      1 Cl                    0.549830       0.006478
      2 C                     0.228736       0.076276
      3 C                     0.240866       0.076097
      4 Cl                    0.547300       0.006478
      5 C                    -1.786282       0.071554
      6 O                    -0.278989       0.263091
      7 C                     0.227368       0.076263
      8 C                     0.239357       0.076319
      9 Cl                    0.547388       0.006500
     10 C                    -1.786360       0.071492
     11 O                    -0.278871       0.262987
     12 Cl                    0.549657       0.006465
  --------------------------------------------------------
  Sum of atomic charges =    -1.000000

                    Cartesian Multipole Moments
 -----------------------------------------------------------------
    Charge (ESU x 10^10)
                -4.8032
    Dipole Moment (Debye)
         X      -0.0015      Y       0.0020      Z      -0.8104
       Tot       0.8104
    Quadrupole Moments (Debye-Ang)
        XX    -111.5771     XY      -0.5860     YY    -133.2912
        XZ       3.8413     YZ       3.2840     ZZ     -98.9715

 Total job time:  123.41s(wall), 847.22s(cpu)
        *  Thank you very much for using Q-Chem.  Have a nice day.  *
