 Gaussian 16, Revision A.03,
 Gaussian 16:  ES64L-G16RevA.03 25-Dec-2016

 ----------------------------------------------------------------------
 #P UB3LYP/6-311++G(d,p) nosym opt freq SCRF=(PCM,Solvent=n,n-DiMethylF
 ormamide)
 ----------------------------------------------------------------------

 -------
 Radical
 -------
 Symbolic Z-matrix:
 Charge = -1 Multiplicity = 2

 SCF Done:  E(UB3LYP) =  -751.686920669     A.U. after   20 cycles
 SCF Done:  E(UB3LYP) =  -751.687492075     A.U. after   14 cycles
 SCF Done:  E(UB3LYP) =  -751.687656943     A.U. after   15 cycles
 SCF Done:  E(UB3LYP) =  -751.687590736     A.U. after   15 cycles
 SCF Done:  E(UB3LYP) =  -751.687693938     A.U. after   14 cycles
 SCF Done:  E(UB3LYP) =  -751.687774558     A.U. after   13 cycles
 SCF Done:  E(UB3LYP) =  -751.687806357     A.U. after   14 cycles
 SCF Done:  E(UB3LYP) =  -751.687830431     A.U. after   13 cycles
 SCF Done:  E(UB3LYP) =  -751.687842617     A.U. after   13 cycles
 SCF Done:  E(UB3LYP) =  -751.687848089     A.U. after   13 cycles
 SCF Done:  E(UB3LYP) =  -751.687849150     A.U. after   12 cycles
 SCF Done:  E(UB3LYP) =  -751.687849500     A.U. after   12 cycles
 SCF Done:  E(UB3LYP) =  -751.687849588     A.U. after   12 cycles
 SCF Done:  E(UB3LYP) =  -751.687849662     A.U. after   10 cycles
 SCF Done:  E(UB3LYP) =  -751.687849676     A.U. after   10 cycles
 Optimization completed.
    -- Stationary point found.
 Normal termination of Gaussian 16 at Sat Feb 10 12:48:54 2024.

 ----------------------------------------------------------------------
 #P Geom=AllCheck Guess=TCheck SCRF=Check GenChk UB3LYP/6-311++G(d,p) F
 req
 ----------------------------------------------------------------------

 Structure from the checkpoint file:  "105-rad.chk"
 -------
 Radical
 -------
 Charge = -1 Multiplicity = 2

                          Input orientation:
 ---------------------------------------------------------------------
 Center     Atomic      Atomic             Coordinates (Angstroms)
 Number     Number       Type             X           Y           Z
 ---------------------------------------------------------------------
      1          6           0       -0.952857   -1.611455    3.641860
      2          6           0        0.323539   -1.968683    3.106704
      3          6           0        0.875996   -1.436943    1.958513
      4          6           0        0.097543   -0.427370    1.227417
      5          6           0       -1.191929   -0.063042    1.752706
      6          6           0       -1.733138   -0.606956    2.901920
      7          8           0       -1.423021   -2.120590    4.716557
      8          8           0        0.524242    0.124205    0.159610
      9          7           0       -2.957781   -0.340467    3.460526
     10          6           0       -3.917078    0.741709    3.178666
     11          6           0       -5.021208    0.614758    4.241803
     12          6           0       -4.553244    0.565114    1.784975
     13          6           0       -3.257505    2.130680    3.305493
     14          6           0        2.261646   -1.872184    1.450355
     15          6           0        2.908879   -2.941842    2.351864
     16          6           0        2.139618   -2.475596    0.029681
     17          6           0        3.216993   -0.654172    1.415319
     18          1           0        0.859294   -2.713066    3.683735
     19          1           0       -1.726741    0.680368    1.176561
     20          1           0       -3.059670   -0.815228    4.350069
     21          1           0       -4.609958    0.738669    5.248191
     22          1           0       -5.505711   -0.364158    4.183664
     23          1           0       -5.783033    1.382429    4.090597
     24          1           0       -5.036595   -0.412629    1.711728
     25          1           0       -3.818051    0.640677    0.983070
     26          1           0       -5.310232    1.336571    1.618500
     27          1           0       -2.849038    2.265593    4.310770
     28          1           0       -3.996426    2.916896    3.127016
     29          1           0       -2.445724    2.262565    2.588756
     30          1           0        3.066306   -2.579343    3.371703
     31          1           0        3.886735   -3.212987    1.942857
     32          1           0        2.307459   -3.854005    2.403103
     33          1           0        1.498811   -3.363269    0.042994
     34          1           0        3.126243   -2.779798   -0.337103
     35          1           0        1.714475   -1.750490   -0.662898
     36          1           0        3.353902   -0.244365    2.421318
     37          1           0        2.820001    0.129902    0.771827
     38          1           0        4.200914   -0.956287    1.039591
 ---------------------------------------------------------------------

 SCF Done:  E(UB3LYP) =  -751.687849676     A.U. after    1 cycles

 Alpha  occ. eigenvalues --  -19.07117 -19.05785 -14.31086 -10.21775 -10.20993
 Alpha  occ. eigenvalues --  -10.20892 -10.19906 -10.17796 -10.16060 -10.15880
 Alpha  occ. eigenvalues --  -10.15445 -10.15392 -10.14823 -10.14774 -10.14304
 Alpha  occ. eigenvalues --  -10.14287 -10.13710  -0.99145  -0.97755  -0.92309
 Alpha  occ. eigenvalues --   -0.82413  -0.80318  -0.77412  -0.71500  -0.68796
 Alpha  occ. eigenvalues --   -0.68712  -0.67710  -0.67289  -0.66459  -0.60880
 Alpha  occ. eigenvalues --   -0.57128  -0.55351  -0.52598  -0.49007  -0.48181
 Alpha  occ. eigenvalues --   -0.45867  -0.44913  -0.44798  -0.43340  -0.42953
 Alpha  occ. eigenvalues --   -0.41758  -0.41366  -0.41012  -0.40162  -0.39308
 Alpha  occ. eigenvalues --   -0.39270  -0.38140  -0.38027  -0.37407  -0.36695
 Alpha  occ. eigenvalues --   -0.36557  -0.35992  -0.34790  -0.34510  -0.34068
 Alpha  occ. eigenvalues --   -0.33101  -0.32471  -0.32328  -0.31520  -0.30024
 Alpha  occ. eigenvalues --   -0.25953  -0.23979  -0.22226  -0.20050  -0.14596
 Alpha virt. eigenvalues --   -0.00585   0.00121   0.00819   0.01286   0.01932
 Alpha virt. eigenvalues --    0.02007   0.02349   0.02685   0.03520   0.03675
 Alpha virt. eigenvalues --    0.03806   0.03998   0.04162   0.04917   0.05052

  Beta  occ. eigenvalues --  -19.06458 -19.05237 -14.30973 -10.21780 -10.20764
  Beta  occ. eigenvalues --  -10.20727 -10.19804 -10.17812 -10.15879 -10.15784
  Beta  occ. eigenvalues --  -10.15440 -10.15386 -10.14823 -10.14752 -10.14288
  Beta  occ. eigenvalues --  -10.14272 -10.13741  -0.98035  -0.96779  -0.92004
  Beta  occ. eigenvalues --   -0.82040  -0.80177  -0.77148  -0.71337  -0.68770
  Beta  occ. eigenvalues --   -0.68697  -0.67599  -0.67243  -0.65537  -0.60633
  Beta  occ. eigenvalues --   -0.56835  -0.55186  -0.52414  -0.48729  -0.48043
  Beta  occ. eigenvalues --   -0.45730  -0.44761  -0.44697  -0.43267  -0.42813
  Beta  occ. eigenvalues --   -0.41644  -0.41212  -0.40239  -0.39947  -0.38849
  Beta  occ. eigenvalues --   -0.38838  -0.38060  -0.37225  -0.37090  -0.36660
  Beta  occ. eigenvalues --   -0.36483  -0.35648  -0.34300  -0.33839  -0.33116
  Beta  occ. eigenvalues --   -0.33029  -0.32296  -0.32060  -0.31451  -0.28874
  Beta  occ. eigenvalues --   -0.23455  -0.23384  -0.21720  -0.19219
  Beta virt. eigenvalues --   -0.07544  -0.00571   0.00123   0.01309   0.01372
  Beta virt. eigenvalues --    0.01984   0.02304   0.02354   0.03066   0.03526
  Beta virt. eigenvalues --    0.03693   0.03875   0.04035   0.04949   0.05071

 Mulliken charges and spin densities:
               1          2
     1  C   -0.956578   0.158748
     2  C   -0.502141  -0.014947
     3  C    1.197225   0.248764
     4  C   -0.527862   0.065758
     5  C   -0.134527  -0.049540
     6  C    0.197876   0.125784
     7  O   -0.515082   0.239327
     8  O   -0.479096   0.196263
     9  N   -0.006007   0.051411
    10  C   -0.077870  -0.002587
    11  C   -0.500849   0.001267
    12  C   -0.437371  -0.000513
    13  C   -0.444416   0.002031
    14  C    0.644781  -0.033002
    15  C   -0.518419  -0.000424
    16  C   -0.674601   0.013202
    17  C   -0.669080   0.013868
    18  H    0.186740  -0.006219
    19  H    0.197656  -0.004459
    20  H    0.341068  -0.004884
    21  H    0.153308   0.000076
    22  H    0.153600   0.000526
    23  H    0.153910  -0.000129
    24  H    0.155769   0.000729
    25  H    0.118884  -0.000817
    26  H    0.159809   0.000501
    27  H    0.158729   0.000285
    28  H    0.157434   0.000691
    29  H    0.131364  -0.000898
    30  H    0.129981  -0.000149
    31  H    0.170389  -0.000114
    32  H    0.130454  -0.000135
    33  H    0.132071   0.000555
    34  H    0.142842   0.001641
    35  H    0.176823  -0.002473
    36  H    0.131441   0.000427
    37  H    0.178427  -0.002312
    38  H    0.143318   0.001745
 Sum of Mulliken charges =  -1.00000   1.00000

 Dipole moment (field-independent basis, Debye):
    X=              0.0723    Y=              5.7262    Z=            -10.4636  Tot=             11.9282
 Quadrupole moment (field-independent basis, Debye-Ang):
   XX=           -107.0166   YY=           -123.2823   ZZ=           -160.7285
   XY=            -11.4274   XZ=              8.1179   YZ=             27.5968

  Exact polarizability: 315.754 -21.239 241.593 -64.345 -38.033 301.902
 Approx polarizability: 315.206  -5.829 257.599 -71.085 -52.421 339.694

                      1                      2                      3
                      A                      A                      A
 Frequencies --     21.4330                48.0554                62.6882
 Red. masses --      3.5911                 3.2251                 3.8120
 Frc consts  --      0.0010                 0.0044                 0.0088
 IR Inten    --      8.0228                 3.1369                 1.0836

                      4                      5                      6
                      A                      A                      A
 Frequencies --     85.5431               102.5459               159.9565
 Red. masses --      3.8110                 3.8612                 4.5792
 Frc consts  --      0.0164                 0.0239                 0.0690
 IR Inten    --      3.1664                 4.4398                 9.2838

                      7                      8                      9
                      A                      A                      A
 Frequencies --    185.9780               200.7299               220.5565
 Red. masses --      1.2651                 2.9220                 2.3661
 Frc consts  --      0.0258                 0.0694                 0.0678
 IR Inten    --      0.2926                 6.6802                 0.7315

                     10                     11                     12
                      A                      A                      A
 Frequencies --    224.2621               227.9579               233.2244
 Red. masses --      2.3117                 1.3324                 1.3266
 Frc consts  --      0.0685                 0.0408                 0.0425
 IR Inten    --      1.5736                 0.6910                 0.7527

                     13                     14                     15
                      A                      A                      A
 Frequencies --    254.5636               274.6589               276.5227
 Red. masses --      1.1707                 1.2294                 1.8616
 Frc consts  --      0.0447                 0.0546                 0.0839
 IR Inten    --      2.1914                 0.5412                 2.7546

                     16                     17                     18
                      A                      A                      A
 Frequencies --    291.7748               301.8090               329.9932
 Red. masses --      3.4388                 2.6174                 1.0419
 Frc consts  --      0.1725                 0.1405                 0.0668
 IR Inten    --      0.0202                 3.1145                 0.0838

                     19                     20                     21
                      A                      A                      A
 Frequencies --    333.3918               347.9199               383.0951
 Red. masses --      3.6661                 2.5759                 2.4121
 Frc consts  --      0.2401                 0.1837                 0.2086
 IR Inten    --     24.8164                 3.4782                 1.2425

                     22                     23                     24
                      A                      A                      A
 Frequencies --    387.6106               408.5260               439.3623
 Red. masses --      2.5531                 2.6246                 2.8648
 Frc consts  --      0.2260                 0.2581                 0.3258
 IR Inten    --      1.0977                 2.2976                18.8994

                     25                     26                     27
                      A                      A                      A
 Frequencies --    445.2512               467.5962               474.3130
 Red. masses --      3.2795                 3.3193                 3.5307
 Frc consts  --      0.3831                 0.4276                 0.4680
 IR Inten    --     18.3276                64.9880                16.5053

                     28                     29                     30
                      A                      A                      A
 Frequencies --    492.0310               503.1865               523.0645
 Red. masses --      2.9907                 2.5140                 1.9134
 Frc consts  --      0.4266                 0.3750                 0.3084
 IR Inten    --      7.9614                49.3397                27.9694

                     31                     32                     33
                      A                      A                      A
 Frequencies --    570.9545               643.6864               649.1961
 Red. masses --      3.3531                 4.7541                 5.1367
 Frc consts  --      0.6440                 1.1606                 1.2755
 IR Inten    --      6.0195                 1.0607                14.3792

                     34                     35                     36
                      A                      A                      A
 Frequencies --    732.7152               753.2011               754.2382
 Red. masses --      6.2584                 3.1343                 4.7543
 Frc consts  --      1.9796                 1.0476                 1.5935
 IR Inten    --      1.0931                 1.9643                15.1958

                     37                     38                     39
                      A                      A                      A
 Frequencies --    776.0576               810.4758               831.3178
 Red. masses --      3.7591                 3.2063                 1.7130
 Frc consts  --      1.3339                 1.2409                 0.6975
 IR Inten    --      7.2804                 9.9616                40.4568

                     40                     41                     42
                      A                      A                      A
 Frequencies --    881.0021               885.0330               912.9993
 Red. masses --      1.4882                 2.9606                 1.7579
 Frc consts  --      0.6806                 1.3663                 0.8633
 IR Inten    --     56.2618                71.8670                 0.5143

                     43                     44                     45
                      A                      A                      A
 Frequencies --    924.9453               925.0009               928.5610
 Red. masses --      1.7650                 1.7464                 1.7447
 Frc consts  --      0.8897                 0.8804                 0.8863
 IR Inten    --      0.9659                 0.9989                 4.6396

                     46                     47                     48
                      A                      A                      A
 Frequencies --    953.5387               954.3434               961.5952
 Red. masses --      2.3991                 1.2019                 1.2014
 Frc consts  --      1.2852                 0.6449                 0.6545
 IR Inten    --      8.5625                 0.3911                 0.1231

                     49                     50                     51
                      A                      A                      A
 Frequencies --   1033.5002              1041.7736              1044.3291
 Red. masses --      1.6182                 1.3820                 1.3920
 Frc consts  --      1.0184                 0.8837                 0.8945
 IR Inten    --     50.9390                 0.1543                 3.0634

                     52                     53                     54
                      A                      A                      A
 Frequencies --   1052.5821              1068.9121              1198.2706
 Red. masses --      1.4656                 2.0580                 2.9503
 Frc consts  --      0.9567                 1.3854                 2.4959
 IR Inten    --     10.8076                45.5561                52.9132

                     55                     56                     57
                      A                      A                      A
 Frequencies --   1211.2000              1216.4678              1230.2849
 Red. masses --      2.7203                 2.1427                 2.5675
 Frc consts  --      2.3512                 1.8681                 2.2896
 IR Inten    --      8.9030                13.4742                49.1273

                     58                     59                     60
                      A                      A                      A
 Frequencies --   1231.5964              1235.0098              1253.1537
 Red. masses --      4.5170                 2.6129                 2.9165
 Frc consts  --      4.0368                 2.3481                 2.6985
 IR Inten    --      4.7990                91.5923               370.9364

                     61                     62                     63
                      A                      A                      A
 Frequencies --   1263.0441              1273.6711              1315.8284
 Red. masses --      2.7181                 1.7993                 2.2032
 Frc consts  --      2.5548                 1.7197                 2.2475
 IR Inten    --     55.2919                 8.6062               192.4363

                     64                     65                     66
                      A                      A                      A
 Frequencies --   1371.1441              1379.8886              1392.3744
 Red. masses --      1.2122                 1.2527                 1.2322
 Frc consts  --      1.3427                 1.4053                 1.4075
 IR Inten    --     13.3714                17.2353                16.7546

                     67                     68                     69
                      A                      A                      A
 Frequencies --   1394.1281              1404.2072              1407.1937
 Red. masses --      1.2463                 3.8278                 1.2491
 Frc consts  --      1.4272                 4.4469                 1.4573
 IR Inten    --      7.2661                55.8238                46.4481

                     70                     71                     72
                      A                      A                      A
 Frequencies --   1419.7203              1453.7302              1468.7998
 Red. masses --      1.2815                 7.8394                 1.0475
 Frc consts  --      1.5218                 9.7611                 1.3315
 IR Inten    --     25.3244               118.8342                 0.1845

                     73                     74                     75
                      A                      A                      A
 Frequencies --   1471.1435              1472.1352              1480.0608
 Red. masses --      1.8510                 1.1236                 1.0445
 Frc consts  --      2.3603                 1.4346                 1.3481
 IR Inten    --    797.2696               119.2279                 0.3483

                     76                     77                     78
                      A                      A                      A
 Frequencies --   1481.0687              1487.4431              1488.0615
 Red. masses --      1.0507                 1.0558                 1.0492
 Frc consts  --      1.3579                 1.3763                 1.3688
 IR Inten    --      4.1409                 2.8859                 0.3339

                     79                     80                     81
                      A                      A                      A
 Frequencies --   1489.1338              1493.5400              1497.2431
 Red. masses --      1.0964                 1.0875                 1.4270
 Frc consts  --      1.4325                 1.4293                 1.8848
 IR Inten    --      6.0847                51.8921               410.2399

                     82                     83                     84
                      A                      A                      A
 Frequencies --   1499.5728              1508.2743              1515.8412
 Red. masses --      1.0613                 1.0711                 1.0981
 Frc consts  --      1.4061                 1.4357                 1.4867
 IR Inten    --     21.7478                14.7107                46.9559

                     85                     86                     87
                      A                      A                      A
 Frequencies --   1533.8616              1544.1089              1623.4873
 Red. masses --      2.5893                 2.4591                 6.3252
 Frc consts  --      3.5893                 3.4544                 9.8225
 IR Inten    --    637.5754               173.7220                99.5785

                     88                     89                     90
                      A                      A                      A
 Frequencies --   3006.7927              3009.9144              3019.2286
 Red. masses --      1.0387                 1.0379                 1.0363
 Frc consts  --      5.5331                 5.5399                 5.5658
 IR Inten    --     82.1898                68.5084                89.1777

                     91                     92                     93
                      A                      A                      A
 Frequencies --   3021.4803              3026.9015              3034.2175
 Red. masses --      1.0355                 1.0364                 1.0375
 Frc consts  --      5.5696                 5.5945                 5.6277
 IR Inten    --     37.9814                54.3778                31.7444

                     94                     95                     96
                      A                      A                      A
 Frequencies --   3061.9121              3063.7945              3078.1984
 Red. masses --      1.1013                 1.1005                 1.1011
 Frc consts  --      6.0832                 6.0864                 6.1470
 IR Inten    --     37.3340                76.6381               116.0884

                     97                     98                     99
                      A                      A                      A
 Frequencies --   3082.3933              3084.1163              3089.0504
 Red. masses --      1.1020                 1.1027                 1.1023
 Frc consts  --      6.1687                 6.1798                 6.1973
 IR Inten    --     68.6591                21.1761                60.3559

                    100                    101                    102
                      A                      A                      A
 Frequencies --   3091.0574              3103.1044              3110.9833
 Red. masses --      1.1022                 1.1010                 1.0997
 Frc consts  --      6.2045                 6.2467                 6.2706
 IR Inten    --     42.1823                77.0549                19.7867

                    103                    104                    105
                      A                      A                      A
 Frequencies --   3114.2713              3122.0383              3124.3735
 Red. masses --      1.0993                 1.0976                 1.0970
 Frc consts  --      6.2816                 6.3031                 6.3094
 IR Inten    --     61.8796                 1.4236                30.7151

                    106                    107                    108
                      A                      A                      A
 Frequencies --   3177.0180              3192.3774              3537.2905
 Red. masses --      1.0875                 1.0880                 1.0755
 Frc consts  --      6.4674                 6.5332                 7.9284
 IR Inten    --     29.7716                28.8507                97.1669

 - Thermochemistry -
 -------------------
 Temperature   298.150 Kelvin.  Pressure   1.00000 Atm.
 Atom     1 has atomic number  6 and mass  12.00000

 Molecular mass:   235.15723 amu.
 Principal axes and moments of inertia in atomic units:
                           1         2         3
     Eigenvalues --  1828.810117397.376708419.07880
           X            0.89241   0.01309   0.45104
           Y           -0.34862  -0.61462   0.70760
           Z           -0.28649   0.78871   0.54393
 This molecule is an asymmetric top.
 Rotational symmetry number  1.
 Warning -- assumption of classical behavior for rotation
           may cause significant error
 Rotational temperatures (Kelvin)      0.04736     0.01171     0.01029
 Rotational constants (GHZ):           0.98684     0.24397     0.21436
 Zero-point vibrational energy     847271.7 (Joules/Mol)
                                  202.50279 (Kcal/Mol)
 Warning -- explicit consideration of  31 degrees of freedom as
           vibrations may cause significant error
 Vibrational temperatures:     30.84    69.14    90.19   123.08   147.54
          (Kelvin)            230.14   267.58   288.81   317.33   322.66
                              327.98   335.56   366.26   395.17   397.85
                              419.80   434.24   474.79   479.68   500.58
                              551.19   557.69   587.78   632.14   640.62
                              672.77   682.43   707.92   723.97   752.57
                              821.48   926.12   934.05  1054.21  1083.69
                             1085.18  1116.57  1166.09  1196.08  1267.57
                             1273.37  1313.60  1330.79  1330.87  1335.99
                             1371.93  1373.09  1383.52  1486.98  1498.88
                             1502.56  1514.43  1537.93  1724.04  1742.65
                             1750.23  1770.11  1771.99  1776.90  1803.01
                             1817.24  1832.53  1893.18  1972.77  1985.35
                             2003.32  2005.84  2020.34  2024.64  2042.66
                             2091.59  2113.28  2116.65  2118.07  2129.48
                             2130.93  2140.10  2140.99  2142.53  2148.87
                             2154.20  2157.55  2170.07  2180.96  2206.88
                             2221.63  2335.84  4326.10  4330.60  4344.00
                             4347.24  4355.04  4365.56  4405.41  4408.12
                             4428.84  4434.88  4437.36  4444.45  4447.34
                             4464.68  4476.01  4480.74  4491.92  4495.28
                             4571.02  4593.12  5089.37

 Zero-point correction=                           0.322709 (Hartree/Particle)
 Thermal correction to Energy=                    0.341272
 Thermal correction to Enthalpy=                  0.342216
 Thermal correction to Gibbs Free Energy=         0.276428
 Sum of electronic and zero-point Energies=           -751.365141
 Sum of electronic and thermal Energies=              -751.346578
 Sum of electronic and thermal Enthalpies=            -751.345634
 Sum of electronic and thermal Free Energies=         -751.411422

                     E (Thermal)             CV                S
                      KCal/Mol        Cal/Mol-Kelvin    Cal/Mol-Kelvin
 Total                  214.151             72.294            138.462
 Electronic               0.000              0.000              1.377
 Translational            0.889              2.981             42.267
 Rotational               0.889              2.981             33.099
 Vibrational            212.374             66.332             61.719
 Vibration     1          0.593              1.985              6.497
 Vibration     2          0.595              1.978              4.896
 Vibration     3          0.597              1.972              4.371
 Vibration     4          0.601              1.959              3.759
 Vibration     5          0.605              1.947              3.405
 Vibration     6          0.622              1.891              2.550
 Vibration     7          0.632              1.859              2.268
 Vibration     8          0.638              1.839              2.126
 Vibration     9          0.647              1.810              1.955
 Vibration    10          0.649              1.804              1.924
 Vibration    11          0.651              1.798              1.895
 Vibration    12          0.654              1.790              1.854
 Vibration    13          0.665              1.755              1.699
 Vibration    14          0.677              1.720              1.567
 Vibration    15          0.678              1.717              1.555
 Vibration    16          0.687              1.689              1.464
 Vibration    17          0.694              1.670              1.407
 Vibration    18          0.713              1.616              1.260
 Vibration    19          0.715              1.609              1.244
 Vibration    20          0.726              1.579              1.176
 Vibration    21          0.752              1.506              1.027
 Vibration    22          0.756              1.497              1.009
 Vibration    23          0.773              1.452              0.932
 Vibration    24          0.799              1.384              0.829
 Vibration    25          0.805              1.371              0.810
 Vibration    26          0.825              1.322              0.744
 Vibration    27          0.831              1.307              0.726
 Vibration    28          0.848              1.268              0.678
 Vibration    29          0.858              1.243              0.650
 Vibration    30          0.878              1.199              0.603
 Vibration    31          0.927              1.094              0.502

 Optimization completed.
    -- Stationary point found.
 Normal termination of Gaussian 16 at Sat Feb 10 13:52:31 2024.
