 Gaussian 16, Revision A.03,
 Gaussian 16:  ES64L-G16RevA.03 25-Dec-2016

 ----------------------------------------------------------------------
 #P UB3LYP/6-311++G(d,p) nosym opt freq SCRF=(PCM,Solvent=n,n-DiMethylF
 ormamide)
 ----------------------------------------------------------------------

 -------
 Reduced
 -------
 Symbolic Z-matrix:
 Charge = -2 Multiplicity = 1

 SCF Done:  E(UB3LYP) =  -8338.41979755     A.U. after   18 cycles
 SCF Done:  E(UB3LYP) =  -8338.42089586     A.U. after   14 cycles
 SCF Done:  E(UB3LYP) =  -8338.42105404     A.U. after   14 cycles
 SCF Done:  E(UB3LYP) =  -8338.42110465     A.U. after   13 cycles
 SCF Done:  E(UB3LYP) =  -8338.42112591     A.U. after   11 cycles
 SCF Done:  E(UB3LYP) =  -8338.42113198     A.U. after   12 cycles
 SCF Done:  E(UB3LYP) =  -8338.42113328     A.U. after   11 cycles
 SCF Done:  E(UB3LYP) =  -8338.42113522     A.U. after   11 cycles
 SCF Done:  E(UB3LYP) =  -8338.42113175     A.U. after   12 cycles
 SCF Done:  E(UB3LYP) =  -8338.42113695     A.U. after   12 cycles
 SCF Done:  E(UB3LYP) =  -8338.42113750     A.U. after   11 cycles
 SCF Done:  E(UB3LYP) =  -8338.42113703     A.U. after   11 cycles
 SCF Done:  E(UB3LYP) =  -8338.42113271     A.U. after   12 cycles
 SCF Done:  E(UB3LYP) =  -8338.42113818     A.U. after   12 cycles
 SCF Done:  E(UB3LYP) =  -8338.42113830     A.U. after   11 cycles
 SCF Done:  E(UB3LYP) =  -8338.42113807     A.U. after   10 cycles
 SCF Done:  E(UB3LYP) =  -8338.42113857     A.U. after   11 cycles
 SCF Done:  E(UB3LYP) =  -8338.42113859     A.U. after   10 cycles
 SCF Done:  E(UB3LYP) =  -8338.42113860     A.U. after    9 cycles
 Optimization completed.
    -- Stationary point found.
 Normal termination of Gaussian 16 at Sat Feb 10 13:30:20 2024.

 ----------------------------------------------------------------------
 #P Geom=AllCheck Guess=TCheck SCRF=Check GenChk UB3LYP/6-311++G(d,p) F
 req
 ----------------------------------------------------------------------

 Structure from the checkpoint file:  "027-an.chk"
 -------
 Reduced
 -------
 Charge = -2 Multiplicity = 1

                          Input orientation:
 ---------------------------------------------------------------------
 Center     Atomic      Atomic             Coordinates (Angstroms)
 Number     Number       Type             X           Y           Z
 ---------------------------------------------------------------------
      1          6           0        0.573191   -1.707777   -1.003303
      2          6           0       -0.519356   -1.067289   -0.350605
      3          6           0       -0.388412    0.094496    0.426780
      4          6           0        0.850996    0.766701    0.651353
      5          6           0        1.923982    0.103151   -0.031407
      6          6           0        1.844481   -1.044240   -0.816213
      7          8           0        0.460627   -2.784507   -1.713005
      8          8           0        0.982374    1.828662    1.368535
      9         35           0       -2.245891   -1.917923   -0.593932
     10         35           0       -1.922313    0.915341    1.280456
     11         35           0        3.666822    0.972711    0.209153
     12          6           0        3.036975   -1.665568   -1.506058
     13          6           0        3.805059   -2.684863   -0.642346
     14          6           0        4.990517   -3.317898   -1.379845
     15          6           0        5.780864   -4.321961   -0.533276
     16          6           0        6.967926   -4.950876   -1.272258
     17          6           0        7.757299   -5.946545   -0.416785
     18          1           0        3.732286   -0.886188   -1.830331
     19          1           0        2.668111   -2.179785   -2.397393
     20          1           0        3.113826   -3.470863   -0.317521
     21          1           0        4.165686   -2.189436    0.266599
     22          1           0        5.668234   -2.523983   -1.721333
     23          1           0        4.626204   -3.818159   -2.286922
     24          1           0        5.106593   -5.118429   -0.191771
     25          1           0        6.146209   -3.822017    0.373525
     26          1           0        7.639279   -4.154879   -1.617402
     27          1           0        6.603230   -5.455150   -2.175603
     28          1           0        8.165058   -5.462332    0.476546
     29          1           0        8.595059   -6.376527   -0.973494
     30          1           0        7.120314   -6.772366   -0.083667
 ---------------------------------------------------------------------

 SCF Done:  E(UB3LYP) =  -8338.42113860     A.U. after    1 cycles

 Alpha  occ. eigenvalues -- -482.80959-482.80856-482.80466 -62.46236 -62.46133
 Alpha  occ. eigenvalues --  -62.45748 -56.28252 -56.28147 -56.27906 -56.27873
 Alpha  occ. eigenvalues --  -56.27805 -56.27771 -56.27751 -56.27423 -56.27393
 Alpha  occ. eigenvalues --  -19.02665 -19.02314 -10.19680 -10.19361 -10.19171
 Alpha  occ. eigenvalues --  -10.18998 -10.18975 -10.15816 -10.15476 -10.15297
 Alpha  occ. eigenvalues --  -10.15243 -10.15235 -10.14993 -10.14699  -8.67198
 Alpha  occ. eigenvalues --   -8.67096  -8.66710  -6.50271  -6.50160  -6.49739
 Alpha  occ. eigenvalues --   -6.49119  -6.49022  -6.49022  -6.48923  -6.48649
 Alpha  occ. eigenvalues --   -6.48561  -2.61378  -2.61268  -2.61065  -2.60990
 Alpha  occ. eigenvalues --   -2.60959  -2.60884  -2.60852  -2.60556  -2.60489
 Alpha  occ. eigenvalues --   -2.60074  -2.60073  -2.59978  -2.59977  -2.59622
 Alpha  occ. eigenvalues --   -2.59621  -0.94780  -0.94009  -0.82862  -0.80627
 Alpha  occ. eigenvalues --   -0.79443  -0.76793  -0.76179  -0.74450  -0.71438
 Alpha  occ. eigenvalues --   -0.67090  -0.65502  -0.62409  -0.57951  -0.56888
 Alpha  occ. eigenvalues --   -0.53894  -0.53227  -0.48102  -0.46747  -0.43386
 Alpha  occ. eigenvalues --   -0.43235  -0.42239  -0.41024  -0.39292  -0.39122
 Alpha  occ. eigenvalues --   -0.38628  -0.37233  -0.37038  -0.36889  -0.35454
 Alpha  occ. eigenvalues --   -0.34638  -0.33746  -0.33476  -0.33223  -0.32160
 Alpha  occ. eigenvalues --   -0.31830  -0.31462  -0.31207  -0.30225  -0.28704
 Alpha  occ. eigenvalues --   -0.28376  -0.27825  -0.26867  -0.25857  -0.23210
 Alpha  occ. eigenvalues --   -0.21084  -0.20891  -0.20280  -0.13262
 Alpha virt. eigenvalues --   -0.02497  -0.00171   0.00274   0.00628   0.00997
 Alpha virt. eigenvalues --    0.01367   0.01885   0.01964   0.02600   0.03243
 Alpha virt. eigenvalues --    0.03314   0.04148   0.04512   0.04752   0.04985

  Beta  occ. eigenvalues -- -482.80959-482.80856-482.80466 -62.46236 -62.46133
  Beta  occ. eigenvalues --  -62.45748 -56.28252 -56.28147 -56.27906 -56.27873
  Beta  occ. eigenvalues --  -56.27805 -56.27771 -56.27751 -56.27423 -56.27393
  Beta  occ. eigenvalues --  -19.02665 -19.02314 -10.19680 -10.19361 -10.19171
  Beta  occ. eigenvalues --  -10.18998 -10.18975 -10.15816 -10.15476 -10.15297
  Beta  occ. eigenvalues --  -10.15243 -10.15235 -10.14993 -10.14699  -8.67198
  Beta  occ. eigenvalues --   -8.67096  -8.66710  -6.50271  -6.50160  -6.49739
  Beta  occ. eigenvalues --   -6.49119  -6.49022  -6.49022  -6.48923  -6.48649
  Beta  occ. eigenvalues --   -6.48561  -2.61378  -2.61268  -2.61065  -2.60990
  Beta  occ. eigenvalues --   -2.60959  -2.60884  -2.60852  -2.60556  -2.60489
  Beta  occ. eigenvalues --   -2.60074  -2.60073  -2.59978  -2.59977  -2.59622
  Beta  occ. eigenvalues --   -2.59621  -0.94780  -0.94009  -0.82862  -0.80627
  Beta  occ. eigenvalues --   -0.79443  -0.76793  -0.76179  -0.74450  -0.71438
  Beta  occ. eigenvalues --   -0.67090  -0.65502  -0.62409  -0.57951  -0.56888
  Beta  occ. eigenvalues --   -0.53894  -0.53227  -0.48102  -0.46747  -0.43386
  Beta  occ. eigenvalues --   -0.43235  -0.42239  -0.41024  -0.39292  -0.39122
  Beta  occ. eigenvalues --   -0.38628  -0.37233  -0.37038  -0.36889  -0.35454
  Beta  occ. eigenvalues --   -0.34638  -0.33746  -0.33476  -0.33223  -0.32160
  Beta  occ. eigenvalues --   -0.31830  -0.31462  -0.31207  -0.30225  -0.28704
  Beta  occ. eigenvalues --   -0.28376  -0.27825  -0.26867  -0.25857  -0.23210
  Beta  occ. eigenvalues --   -0.21084  -0.20891  -0.20280  -0.13262
  Beta virt. eigenvalues --   -0.02497  -0.00171   0.00274   0.00628   0.00997
  Beta virt. eigenvalues --    0.01367   0.01885   0.01964   0.02600   0.03243
  Beta virt. eigenvalues --    0.03314   0.04148   0.04512   0.04752   0.04985

 Mulliken charges and spin densities:
               1          2
     1  C   -1.092543  -0.000000
     2  C   -0.232605   0.000000
     3  C    0.474062   0.000000
     4  C   -0.747095  -0.000000
     5  C    0.324463   0.000000
     6  C    1.943633   0.000000
     7  O   -0.608696   0.000000
     8  O   -0.570747  -0.000000
     9  Br  -0.195364  -0.000000
    10  Br  -0.187604  -0.000000
    11  Br  -0.172060  -0.000000
    12  C   -0.953654  -0.000000
    13  C   -0.482107   0.000000
    14  C   -0.169500   0.000000
    15  C   -0.268987  -0.000000
    16  C   -0.190129   0.000000
    17  C   -0.678385   0.000000
    18  H    0.160266  -0.000000
    19  H    0.199575   0.000000
    20  H    0.184293  -0.000000
    21  H    0.111372  -0.000000
    22  H    0.114607   0.000000
    23  H    0.112367   0.000000
    24  H    0.117330   0.000000
    25  H    0.122755   0.000000
    26  H    0.130871  -0.000000
    27  H    0.131697   0.000000
    28  H    0.140274  -0.000000
    29  H    0.141748  -0.000000
    30  H    0.140164  -0.000000
 Sum of Mulliken charges =  -2.00000  -0.00000

 Dipole moment (field-independent basis, Debye):
    X=             -4.4011    Y=              3.0564    Z=              0.0880  Tot=              5.3590
 Quadrupole moment (field-independent basis, Debye-Ang):
   XX=           -176.1178   YY=           -194.7225   ZZ=           -168.9131
   XY=             -7.2889   XZ=             -2.7356   YZ=            -26.9342

  Exact polarizability: 413.249  12.105 331.277 -18.521  64.878 268.927
 Approx polarizability: 420.356  24.264 361.415 -17.612  75.845 299.153

                      1                      2                      3
                      A                      A                      A
 Frequencies --     20.9873                23.2398                45.6977
 Red. masses --      6.4612                 9.2325                 3.2025
 Frc consts  --      0.0017                 0.0029                 0.0039
 IR Inten    --      0.8573                 1.0977                 1.8748

                      4                      5                      6
                      A                      A                      A
 Frequencies --     49.5429                72.6620                76.2113
 Red. masses --      2.3263                 8.3269                 3.8721
 Frc consts  --      0.0034                 0.0259                 0.0133
 IR Inten    --      1.0915                11.9568                 4.4413

                      7                      8                      9
                      A                      A                      A
 Frequencies --     93.2552               127.8580               129.9731
 Red. masses --      5.4100                 8.0256                50.3886
 Frc consts  --      0.0277                 0.0773                 0.5015
 IR Inten    --      4.4376                 4.3165                 2.1768

                     10                     11                     12
                      A                      A                      A
 Frequencies --    132.3011               148.3703               153.7649
 Red. masses --      1.6795                 2.8805                 5.6027
 Frc consts  --      0.0173                 0.0374                 0.0780
 IR Inten    --      0.0902                 2.1882                 6.7660

                     13                     14                     15
                      A                      A                      A
 Frequencies --    182.0194               197.6906               228.7544
 Red. masses --     10.3759                45.2880                 4.4277
 Frc consts  --      0.2025                 1.0428                 0.1365
 IR Inten    --      2.0869                 0.3227                 0.0684

                     16                     17                     18
                      A                      A                      A
 Frequencies --    239.3218               245.4609               279.7205
 Red. masses --      5.6323                 1.1470                 9.5543
 Frc consts  --      0.1901                 0.0407                 0.4404
 IR Inten    --      1.4136                 0.0255                 5.8538

                     19                     20                     21
                      A                      A                      A
 Frequencies --    299.3054               300.0759               320.0084
 Red. masses --     12.4955                11.9932                 5.9671
 Frc consts  --      0.6595                 0.6363                 0.3600
 IR Inten    --      0.0685                 0.2642                 0.7026

                     22                     23                     24
                      A                      A                      A
 Frequencies --    361.8637               412.2215               425.3423
 Red. masses --      3.0809                 4.4536                 3.4048
 Frc consts  --      0.2377                 0.4459                 0.3629
 IR Inten    --      6.3061                 6.8751                 1.8541

                     25                     26                     27
                      A                      A                      A
 Frequencies --    487.8881               507.3389               562.6094
 Red. masses --      9.0408                 6.7640                 8.9061
 Frc consts  --      1.2679                 1.0258                 1.6609
 IR Inten    --      0.5611                34.1160                31.1261

                     28                     29                     30
                      A                      A                      A
 Frequencies --    658.2093               673.8753               697.9996
 Red. masses --      7.8700                 3.5050                11.9127
 Frc consts  --      2.0089                 0.9378                 3.4196
 IR Inten    --     62.6666                 0.8139                12.3910

                     31                     32                     33
                      A                      A                      A
 Frequencies --    727.8910               734.9531               741.3559
 Red. masses --      1.1000                 9.0908                 1.1983
 Frc consts  --      0.3434                 2.8932                 0.3880
 IR Inten    --     12.1236                 6.9583                 1.0092

                     34                     35                     36
                      A                      A                      A
 Frequencies --    790.6388               799.4670               862.2120
 Red. masses --      2.0658                 2.4787                 4.9698
 Frc consts  --      0.7608                 0.9334                 2.1768
 IR Inten    --    104.8813               187.6607               144.4545

                     37                     38                     39
                      A                      A                      A
 Frequencies --    890.8019               893.5167               989.1226
 Red. masses --      1.4553                 1.9760                 1.5427
 Frc consts  --      0.6804                 0.9295                 0.8892
 IR Inten    --     56.2840                 7.0462                15.4162

                     40                     41                     42
                      A                      A                      A
 Frequencies --    995.9786              1021.0792              1036.3575
 Red. masses --      3.2663                 3.2111                 3.7589
 Frc consts  --      1.9090                 1.9725                 2.3787
 IR Inten    --     12.0285                 3.8368                14.7055

                     43                     44                     45
                      A                      A                      A
 Frequencies --   1049.0785              1063.5330              1092.2754
 Red. masses --      2.7313                 2.2564                 1.7558
 Frc consts  --      1.7710                 1.5037                 1.2342
 IR Inten    --      1.3882                 0.3541                71.8300

                     46                     47                     48
                      A                      A                      A
 Frequencies --   1112.7258              1128.7961              1190.0586
 Red. masses --     10.4519                 2.4881                 3.2105
 Frc consts  --      7.6247                 1.8679                 2.6789
 IR Inten    --    513.9416                 0.7731                12.9677

                     49                     50                     51
                      A                      A                      A
 Frequencies --   1222.5124              1248.2053              1278.1150
 Red. masses --      1.6820                 1.2813                 1.3924
 Frc consts  --      1.4811                 1.1762                 1.3402
 IR Inten    --      2.5661                 0.2689                 5.3588

                     52                     53                     54
                      A                      A                      A
 Frequencies --   1309.3950              1313.3416              1325.2002
 Red. masses --      1.3505                 1.2820                 1.0612
 Frc consts  --      1.3642                 1.3028                 1.0980
 IR Inten    --      5.3003                 3.6967                 0.5670

                     55                     56                     57
                      A                      A                      A
 Frequencies --   1328.8565              1341.9256              1354.4793
 Red. masses --      1.1191                 5.4857                 1.5430
 Frc consts  --      1.1643                 5.8203                 1.6678
 IR Inten    --      1.4518                54.8294                39.4657

                     58                     59                     60
                      A                      A                      A
 Frequencies --   1376.1798              1387.2210              1392.0478
 Red. masses --      1.6487                 3.5847                 1.6189
 Frc consts  --      1.8396                 4.0644                 1.8483
 IR Inten    --     63.3467                18.9964                 1.6460

                     61                     62                     63
                      A                      A                      A
 Frequencies --   1399.2279              1402.9106              1421.9032
 Red. masses --      7.5221                 1.2499                10.2689
 Frc consts  --      8.6769                 1.4494                12.2324
 IR Inten    --   1734.2374                 3.8439               288.8434

                     64                     65                     66
                      A                      A                      A
 Frequencies --   1462.9898              1470.8215              1475.7976
 Red. masses --      1.1252                 1.0703                 1.0753
 Frc consts  --      1.4189                 1.3642                 1.3798
 IR Inten    --     46.4009                 0.6897                 4.0481

                     67                     68                     69
                      A                      A                      A
 Frequencies --   1485.3149              1487.9462              1496.1824
 Red. masses --      1.0783                 1.0402                 1.0887
 Frc consts  --      1.4016                 1.3569                 1.4359
 IR Inten    --      2.5888                10.2297                 1.7388

                     70                     71                     72
                      A                      A                      A
 Frequencies --   1505.3109              1569.2668              2986.5215
 Red. masses --      1.0966                10.5576                 1.0575
 Frc consts  --      1.4641                15.3182                 5.5571
 IR Inten    --     17.2015                15.0114                 9.8896

                     73                     74                     75
                      A                      A                      A
 Frequencies --   2990.1675              3001.4952              3003.9029
 Red. masses --      1.0580                 1.0598                 1.0981
 Frc consts  --      5.5736                 5.6253                 5.8381
 IR Inten    --     43.8280               117.8549                 1.2173

                     76                     77                     78
                      A                      A                      A
 Frequencies --   3009.9405              3012.5911              3017.2322
 Red. masses --      1.0588                 1.0359                 1.1015
 Frc consts  --      5.6515                 5.5391                 5.9083
 IR Inten    --     47.1170                68.1773                 7.0723

                     79                     80                     81
                      A                      A                      A
 Frequencies --   3031.1318              3035.2762              3045.9946
 Red. masses --      1.0599                 1.1033                 1.1033
 Frc consts  --      5.7374                 5.9888                 6.0312
 IR Inten    --    121.4581                51.3424               124.1307

                     82                     83                     84
                      A                      A                      A
 Frequencies --   3071.3169              3075.5771              3075.7352
 Red. masses --      1.1026                 1.1012                 1.1043
 Frc consts  --      6.1280                 6.1369                 6.1553
 IR Inten    --    113.1316                75.7791                70.9179

 - Thermochemistry -
 -------------------
 Temperature   298.150 Kelvin.  Pressure   1.00000 Atm.
 Atom     1 has atomic number  6 and mass  12.00000

 Molecular mass:   425.84656 amu.
 Principal axes and moments of inertia in atomic units:
                           1         2         3
     Eigenvalues --  5864.20445********************
           X            0.91235   0.40937   0.00608
           Y           -0.38221   0.85696  -0.34574
           Z           -0.14674   0.31311   0.93831
 This molecule is an asymmetric top.
 Rotational symmetry number  1.
 Warning -- assumption of classical behavior for rotation
           may cause significant error
 Rotational temperatures (Kelvin)      0.01477     0.00516     0.00400
 Rotational constants (GHZ):           0.30776     0.10755     0.08345
 Zero-point vibrational energy     578307.4 (Joules/Mol)
                                  138.21878 (Kcal/Mol)
 Warning -- explicit consideration of  27 degrees of freedom as
           vibrations may cause significant error
 Vibrational temperatures:     30.20    33.44    65.75    71.28   104.54
          (Kelvin)            109.65   134.17   183.96   187.00   190.35
                              213.47   221.23   261.89   284.43   329.13
                              344.33   353.16   402.46   430.63   431.74
                              460.42   520.64   593.09   611.97   701.96
                              729.95   809.47   947.02   969.56  1004.27
                             1047.27  1057.43  1066.65  1137.55  1150.25
                             1240.53  1281.67  1285.57  1423.13  1432.99
                             1469.11  1491.09  1509.39  1530.19  1571.54
                             1600.96  1624.09  1712.23  1758.92  1795.89
                             1838.92  1883.93  1889.61  1906.67  1911.93
                             1930.73  1948.79  1980.02  1995.90  2002.85
                             2013.18  2018.48  2045.80  2104.92  2116.18
                             2123.34  2137.04  2140.82  2152.67  2165.81
                             2257.82  4296.94  4302.18  4318.48  4321.95
                             4330.63  4334.45  4341.12  4361.12  4367.09
                             4382.51  4418.94  4425.07  4425.30

 Zero-point correction=                           0.220266 (Hartree/Particle)
 Thermal correction to Energy=                    0.239594
 Thermal correction to Enthalpy=                  0.240538
 Thermal correction to Gibbs Free Energy=         0.167943
 Sum of electronic and zero-point Energies=          -8338.200873
 Sum of electronic and thermal Energies=             -8338.181545
 Sum of electronic and thermal Enthalpies=           -8338.180601
 Sum of electronic and thermal Free Energies=        -8338.253195

                     E (Thermal)             CV                S
                      KCal/Mol        Cal/Mol-Kelvin    Cal/Mol-Kelvin
 Total                  150.347             66.662            152.788
 Electronic               0.000              0.000              0.000
 Translational            0.889              2.981             44.037
 Rotational               0.889              2.981             36.008
 Vibrational            148.570             60.700             72.743
 Vibration     1          0.593              1.986              6.539
 Vibration     2          0.593              1.985              6.336
 Vibration     3          0.595              1.979              4.995
 Vibration     4          0.595              1.978              4.836
 Vibration     5          0.599              1.967              4.080
 Vibration     6          0.599              1.965              3.986
 Vibration     7          0.602              1.954              3.591
 Vibration     8          0.611              1.925              2.978
 Vibration     9          0.612              1.923              2.946
 Vibration    10          0.612              1.921              2.912
 Vibration    11          0.618              1.904              2.693
 Vibration    12          0.619              1.898              2.625
 Vibration    13          0.630              1.864              2.308
 Vibration    14          0.637              1.843              2.154
 Vibration    15          0.651              1.797              1.889
 Vibration    16          0.657              1.780              1.808
 Vibration    17          0.660              1.770              1.763
 Vibration    18          0.680              1.711              1.535
 Vibration    19          0.692              1.675              1.421
 Vibration    20          0.693              1.674              1.416
 Vibration    21          0.706              1.635              1.310
 Vibration    22          0.736              1.551              1.114
 Vibration    23          0.776              1.444              0.919
 Vibration    24          0.787              1.415              0.874
 Vibration    25          0.844              1.277              0.689
 Vibration    26          0.863              1.234              0.640
 Vibration    27          0.918              1.112              0.519

 Optimization completed.
    -- Stationary point found.
 Normal termination of Gaussian 16 at Sat Feb 10 14:38:46 2024.
