 Q-Chem 5.4, Q-Chem, Inc., Pleasanton, CA (2021)
 Q-Chem 5.4.0 for Intel X86 EM64T Linux

User input:
--------------------------------------------------------------
$molecule
-1 2
C                  5.8522400000     -5.5618090000      0.8701150000
C                  6.3495060000     -5.5484900000     -0.4210040000
C                  5.9090050000     -4.5692090000     -1.3335070000
C                  4.9059520000     -4.6073810000      1.2940020000
C                  4.4630730000     -3.6222520000      0.3755200000
C                  4.9802390000     -3.6241980000     -0.9352940000
C                  4.3957640000     -4.6468210000      2.6729030000
C                  3.4233470000     -3.6346110000      3.0376710000
C                  2.9967140000     -2.6633310000      2.1376960000
C                  3.4773560000     -2.6075070000      0.7729220000
O                  4.7966590000     -5.5269820000      3.4855460000
O                  3.0752320000     -1.7316360000     -0.0444630000
H                  7.0785290000     -6.2913860000     -0.7320830000
C                  1.9822880000     -1.6086340000      2.5192580000
H                  6.2987270000     -4.5575410000     -2.3474790000
C                  2.9062230000     -3.6852630000      4.4572280000
C                  0.5398220000     -1.9800420000      2.1221890000
C                 -0.4810580000     -0.8895570000      2.4646390000
C                 -1.9191410000     -1.2416930000      2.0668810000
C                 -2.9339090000     -0.1450840000      2.4076220000
H                  6.1727170000     -6.3025130000      1.5938590000
H                  4.6217510000     -2.8591450000     -1.6146400000
H                  2.2450640000     -0.6824900000      1.9985380000
H                  2.0192630000     -1.4092820000      3.5953460000
H                  3.2779360000     -4.5906610000      4.9376560000
H                  1.8114850000     -3.6844220000      4.4981730000
H                  3.2496640000     -2.8247120000      5.0462870000
H                  0.2538940000     -2.9169400000      2.6172160000
H                  0.5232380000     -2.1736080000      1.0449360000
H                 -0.1884720000      0.0440700000      1.9659260000
H                 -0.4477500000     -0.6816840000      3.5436480000
H                 -2.2121730000     -2.1756830000      2.5627390000
H                 -1.9523520000     -1.4474510000      0.9901090000
H                 -2.9469110000      0.0603680000      3.4835240000
H                 -3.9496190000     -0.4267080000      2.1108810000
H                 -2.6866130000      0.7922300000      1.8980000000
$end

$rem
BASIS  =  6-311++G(d,p)
GUI  =  2
JOB_TYPE  =  SP
METHOD  =  B3LYP
SCF_CONVERGENCE  = 8
SOLVENT_METHOD = sm12
$end

$smx
solvent dimethylformamide
charges CM5
$end

--------------------------------------------------------------

             Standard Nuclear Orientation (Angstroms)
    I     Atom           X                Y                Z
 ----------------------------------------------------------------
    1      C       5.8522400000    -5.5618090000     0.8701150000
    2      C       6.3495060000    -5.5484900000    -0.4210040000
    3      C       5.9090050000    -4.5692090000    -1.3335070000
    4      C       4.9059520000    -4.6073810000     1.2940020000
    5      C       4.4630730000    -3.6222520000     0.3755200000
    6      C       4.9802390000    -3.6241980000    -0.9352940000
    7      C       4.3957640000    -4.6468210000     2.6729030000
    8      C       3.4233470000    -3.6346110000     3.0376710000
    9      C       2.9967140000    -2.6633310000     2.1376960000
   10      C       3.4773560000    -2.6075070000     0.7729220000
   11      O       4.7966590000    -5.5269820000     3.4855460000
   12      O       3.0752320000    -1.7316360000    -0.0444630000
   13      H       7.0785290000    -6.2913860000    -0.7320830000
   14      C       1.9822880000    -1.6086340000     2.5192580000
   15      H       6.2987270000    -4.5575410000    -2.3474790000
   16      C       2.9062230000    -3.6852630000     4.4572280000
   17      C       0.5398220000    -1.9800420000     2.1221890000
   18      C      -0.4810580000    -0.8895570000     2.4646390000
   19      C      -1.9191410000    -1.2416930000     2.0668810000
   20      C      -2.9339090000    -0.1450840000     2.4076220000
   21      H       6.1727170000    -6.3025130000     1.5938590000
   22      H       4.6217510000    -2.8591450000    -1.6146400000
   23      H       2.2450640000    -0.6824900000     1.9985380000
   24      H       2.0192630000    -1.4092820000     3.5953460000
   25      H       3.2779360000    -4.5906610000     4.9376560000
   26      H       1.8114850000    -3.6844220000     4.4981730000
   27      H       3.2496640000    -2.8247120000     5.0462870000
   28      H       0.2538940000    -2.9169400000     2.6172160000
   29      H       0.5232380000    -2.1736080000     1.0449360000
   30      H      -0.1884720000     0.0440700000     1.9659260000
   31      H      -0.4477500000    -0.6816840000     3.5436480000
   32      H      -2.2121730000    -2.1756830000     2.5627390000
   33      H      -1.9523520000    -1.4474510000     0.9901090000
   34      H      -2.9469110000     0.0603680000     3.4835240000
   35      H      -3.9496190000    -0.4267080000     2.1108810000
   36      H      -2.6866130000     0.7922300000     1.8980000000
 ----------------------------------------------------------------

   16    -771.2795659053      4.50e-09  Convergence criterion met
 Total energy in the final basis set =     -771.3660741958

                    Orbital Energies (a.u.)
 --------------------------------------------------------------

 Alpha MOs
 -- Occupied --
-19.0729 -19.0722 -10.2192 -10.2180 -10.1815 -10.1810 -10.1771 -10.1771
-10.1766 -10.1761 -10.1724 -10.1687 -10.1665 -10.1651 -10.1648 -10.1645
-10.1620 -10.1593  -0.9971  -0.9946  -0.8623  -0.8254  -0.8009  -0.7669
 -0.7553  -0.7498  -0.7100  -0.6758  -0.6575  -0.6209  -0.6016  -0.5838
 -0.5789  -0.5555  -0.5194  -0.4952  -0.4778  -0.4681  -0.4572  -0.4395
 -0.4324  -0.4306  -0.4257  -0.4149  -0.4091  -0.4078  -0.4012  -0.3916
 -0.3869  -0.3787  -0.3724  -0.3688  -0.3594  -0.3534  -0.3470  -0.3428
 -0.3340  -0.3310  -0.3254  -0.3219  -0.2694  -0.2621  -0.2460  -0.2428
 -0.2321  -0.1509

 Beta MOs
 -- Occupied --
-19.0664 -19.0657 -10.2178 -10.2166 -10.1812 -10.1806 -10.1771 -10.1771
-10.1760 -10.1754 -10.1710 -10.1674 -10.1665 -10.1650 -10.1648 -10.1645
-10.1621 -10.1593  -0.9859  -0.9831  -0.8604  -0.8223  -0.7996  -0.7652
 -0.7537  -0.7483  -0.7075  -0.6744  -0.6512  -0.6199  -0.6003  -0.5818
 -0.5782  -0.5531  -0.5175  -0.4930  -0.4774  -0.4658  -0.4563  -0.4373
 -0.4320  -0.4260  -0.4246  -0.4124  -0.4063  -0.4033  -0.3944  -0.3904
 -0.3845  -0.3778  -0.3679  -0.3615  -0.3525  -0.3430  -0.3416  -0.3397
 -0.3329  -0.3300  -0.3249  -0.3196  -0.2555  -0.2484  -0.2370  -0.2329
 -0.2261

          Ground-State Mulliken Net Atomic Charges

     Atom                 Charge (a.u.)    Spin (a.u.)
  --------------------------------------------------------
      1 C                    -0.080406       0.030516
      2 C                     0.883425       0.027406
      3 C                     0.910825       0.028168
      4 C                    -1.277571       0.018406
      5 C                    -1.052893       0.026185
      6 C                    -0.072623       0.033311
      7 C                    -1.955358       0.067783
      8 C                    -0.139481       0.093710
      9 C                     0.780956       0.092875
     10 C                    -2.164099       0.073686
     11 O                    -0.324860       0.244066
     12 O                    -0.274386       0.243833
     13 H                     0.358744      -0.002277
     14 C                     0.059645       0.012705
     15 H                     0.356761      -0.002168
     16 C                     0.552288      -0.000291
     17 C                    -1.075149       0.002819
     18 C                     0.648985       0.004306
     19 C                     0.293506      -0.001218
     20 C                     0.064608       0.000156
     21 H                     0.146749      -0.002328
     22 H                     0.146301      -0.002631
     23 H                     0.142000       0.003242
     24 H                     0.268631       0.000334
     25 H                     0.191703      -0.001830
     26 H                     0.244369       0.004566
     27 H                     0.202644       0.006067
     28 H                     0.050858      -0.000610
     29 H                     0.094710      -0.000938
     30 H                     0.125386       0.000365
     31 H                     0.138526      -0.000310
     32 H                     0.125534       0.000140
     33 H                     0.104176      -0.000084
     34 H                     0.142961      -0.000007
     35 H                     0.244272       0.000052
     36 H                     0.138263      -0.000007
  --------------------------------------------------------
  Sum of atomic charges =    -1.000000

                    Cartesian Multipole Moments
 -----------------------------------------------------------------
    Charge (ESU x 10^10)
                -4.8032
    Dipole Moment (Debye)
         X     -19.4387      Y      17.8310      Z      -7.7109
       Tot      27.4821
    Quadrupole Moments (Debye-Ang)
        XX    -199.9189     XY      79.9375     YY    -198.2659
        XZ     -36.9946     YZ      42.0731     ZZ    -141.2118

 Total job time:  1161.47s(wall), 8996.03s(cpu)
        *  Thank you very much for using Q-Chem.  Have a nice day.  *
