 Gaussian 16, Revision A.03,
 Gaussian 16:  ES64L-G16RevA.03 25-Dec-2016

 ----------------------------------------------------------------------
 #P UB3LYP/6-311++G(d,p) nosym opt freq SCRF=(PCM,Solvent=n,n-DiMethylF
 ormamide)
 ----------------------------------------------------------------------

 -------
 Reduced
 -------
 Symbolic Z-matrix:
 Charge = -2 Multiplicity = 1

 SCF Done:  E(UB3LYP) =  -992.408279429     A.U. after   16 cycles
 SCF Done:  E(UB3LYP) =  -992.408753303     A.U. after   15 cycles
 SCF Done:  E(UB3LYP) =  -992.409361021     A.U. after   15 cycles
 SCF Done:  E(UB3LYP) =  -992.410131887     A.U. after   13 cycles
 SCF Done:  E(UB3LYP) =  -992.410076383     A.U. after   13 cycles
 SCF Done:  E(UB3LYP) =  -992.410198868     A.U. after   12 cycles
 SCF Done:  E(UB3LYP) =  -992.410282540     A.U. after   12 cycles
 SCF Done:  E(UB3LYP) =  -992.410289846     A.U. after   11 cycles
 SCF Done:  E(UB3LYP) =  -992.410296747     A.U. after   10 cycles
 SCF Done:  E(UB3LYP) =  -992.410297576     A.U. after   11 cycles
 SCF Done:  E(UB3LYP) =  -992.410299105     A.U. after    9 cycles
 SCF Done:  E(UB3LYP) =  -992.410299355     A.U. after    9 cycles
 SCF Done:  E(UB3LYP) =  -992.410299690     A.U. after    8 cycles
 SCF Done:  E(UB3LYP) =  -992.410300021     A.U. after    9 cycles
 SCF Done:  E(UB3LYP) =  -992.410300515     A.U. after    9 cycles
 SCF Done:  E(UB3LYP) =  -992.410300953     A.U. after    9 cycles
 SCF Done:  E(UB3LYP) =  -992.410301213     A.U. after    9 cycles
 SCF Done:  E(UB3LYP) =  -992.410301269     A.U. after    8 cycles
 SCF Done:  E(UB3LYP) =  -992.410301284     A.U. after    8 cycles
 Optimization completed.
    -- Stationary point found.
 Normal termination of Gaussian 16 at Sat Feb 10 20:36:01 2024.

 ----------------------------------------------------------------------
 #P Geom=AllCheck Guess=TCheck SCRF=Check GenChk UB3LYP/6-311++G(d,p) F
 req
 ----------------------------------------------------------------------

 Structure from the checkpoint file:  "180-an.chk"
 -------
 Reduced
 -------
 Charge = -2 Multiplicity = 1

                          Input orientation:
 ---------------------------------------------------------------------
 Center     Atomic      Atomic             Coordinates (Angstroms)
 Number     Number       Type             X           Y           Z
 ---------------------------------------------------------------------
      1          6           0       -1.542387    1.957352   -4.768656
      2          6           0       -1.488483    0.607641   -5.016922
      3          6           0       -1.226350   -0.303788   -3.957032
      4          6           0       -1.339492    2.482427   -3.453633
      5          6           0       -1.075187    1.560966   -2.377089
      6          6           0       -1.028096    0.174907   -2.681190
      7          6           0       -1.393227    3.860620   -3.191394
      8          6           0       -0.859467    2.004058   -1.014623
      9          6           0       -1.193507    4.352749   -1.884133
     10          6           0       -0.925629    3.435230   -0.788429
     11          6           0       -1.271536    5.803616   -1.650491
     12          6           0       -1.085886    6.268016   -0.348975
     13          6           0       -0.824196    5.376519    0.716187
     14          6           0       -0.743333    4.027252    0.503145
     15          8           0       -1.650421    4.721625   -4.235960
     16          8           0       -0.622442    1.151761   -0.079911
     17          1           0       -1.741680    2.653658   -5.574603
     18          1           0       -1.645361    0.233846   -6.023990
     19          1           0       -1.183135   -1.369427   -4.157330
     20          1           0       -0.827224   -0.505219   -1.861707
     21          1           0       -0.686557    5.754775    1.724202
     22          8           0       -1.514873    6.615519   -2.655296
     23          8           0       -0.559559    3.224001    1.656295
     24          6           0        0.637653    2.643439    1.863760
     25          6           0        0.557014    1.640911    2.982027
     26          8           0        1.648895    2.929523    1.257609
     27          1           0       -1.146439    7.335797   -0.164583
     28          1           0       -1.640143    5.638970   -3.782034
     29          1           0        0.000983    0.774191    2.618458
     30          1           0        0.014688    2.056481    3.833540
     31          1           0        1.556241    1.335481    3.287093
 ---------------------------------------------------------------------

 SCF Done:  E(UB3LYP) =  -992.410301284     A.U. after    1 cycles

 Alpha  occ. eigenvalues --  -19.15322 -19.10278 -19.09209 -19.04863 -19.02681
 Alpha  occ. eigenvalues --  -10.29647 -10.19898 -10.19868 -10.19190 -10.18884
 Alpha  occ. eigenvalues --  -10.16621 -10.15730 -10.15519 -10.15372 -10.15321
 Alpha  occ. eigenvalues --  -10.15280 -10.15258 -10.15207 -10.14820 -10.14512
 Alpha  occ. eigenvalues --  -10.13043  -1.09615  -1.01291  -1.00974  -0.95282
 Alpha  occ. eigenvalues --   -0.94623  -0.83878  -0.81845  -0.77047  -0.74782
 Alpha  occ. eigenvalues --   -0.73390  -0.71596  -0.70014  -0.65730  -0.61590
 Alpha  occ. eigenvalues --   -0.60607  -0.59523  -0.55584  -0.53322  -0.51665
 Alpha  occ. eigenvalues --   -0.49164  -0.48601  -0.47629  -0.46856  -0.45105
 Alpha  occ. eigenvalues --   -0.44807  -0.43951  -0.42778  -0.41694  -0.40513
 Alpha  occ. eigenvalues --   -0.40448  -0.39746  -0.39542  -0.37950  -0.37770
 Alpha  occ. eigenvalues --   -0.36915  -0.36191  -0.36037  -0.35701  -0.34285
 Alpha  occ. eigenvalues --   -0.33724  -0.32677  -0.32116  -0.31378  -0.30033
 Alpha  occ. eigenvalues --   -0.28570  -0.27416  -0.25206  -0.23564  -0.22502
 Alpha  occ. eigenvalues --   -0.22383  -0.20099  -0.18574  -0.12302
 Alpha virt. eigenvalues --   -0.02805  -0.00316   0.00007   0.00634   0.00887
 Alpha virt. eigenvalues --    0.01226   0.02137   0.02564   0.02829   0.03594
 Alpha virt. eigenvalues --    0.04038   0.04457   0.04766   0.05352   0.06032

  Beta  occ. eigenvalues --  -19.15322 -19.10278 -19.09209 -19.04863 -19.02681
  Beta  occ. eigenvalues --  -10.29647 -10.19898 -10.19868 -10.19190 -10.18884
  Beta  occ. eigenvalues --  -10.16621 -10.15730 -10.15519 -10.15372 -10.15321
  Beta  occ. eigenvalues --  -10.15280 -10.15258 -10.15207 -10.14820 -10.14512
  Beta  occ. eigenvalues --  -10.13043  -1.09615  -1.01291  -1.00974  -0.95282
  Beta  occ. eigenvalues --   -0.94623  -0.83878  -0.81845  -0.77047  -0.74782
  Beta  occ. eigenvalues --   -0.73390  -0.71596  -0.70014  -0.65730  -0.61590
  Beta  occ. eigenvalues --   -0.60607  -0.59523  -0.55584  -0.53322  -0.51665
  Beta  occ. eigenvalues --   -0.49164  -0.48601  -0.47629  -0.46856  -0.45105
  Beta  occ. eigenvalues --   -0.44807  -0.43951  -0.42778  -0.41694  -0.40513
  Beta  occ. eigenvalues --   -0.40448  -0.39746  -0.39542  -0.37950  -0.37770
  Beta  occ. eigenvalues --   -0.36915  -0.36191  -0.36037  -0.35701  -0.34285
  Beta  occ. eigenvalues --   -0.33724  -0.32677  -0.32116  -0.31378  -0.30033
  Beta  occ. eigenvalues --   -0.28570  -0.27416  -0.25206  -0.23564  -0.22502
  Beta  occ. eigenvalues --   -0.22383  -0.20099  -0.18574  -0.12302
  Beta virt. eigenvalues --   -0.02805  -0.00316   0.00007   0.00634   0.00887
  Beta virt. eigenvalues --    0.01226   0.02137   0.02564   0.02829   0.03594
  Beta virt. eigenvalues --    0.04038   0.04457   0.04766   0.05352   0.06032

 Mulliken charges and spin densities:
               1          2
     1  C   -0.237630  -0.000000
     2  C   -0.498526   0.000000
     3  C   -0.461560  -0.000000
     4  C    0.195185   0.000000
     5  C   -0.096194  -0.000000
     6  C   -0.088579   0.000000
     7  C   -0.069570   0.000000
     8  C   -0.207439   0.000000
     9  C    0.767326  -0.000000
    10  C    0.589483  -0.000000
    11  C   -0.552399   0.000000
    12  C   -0.260266   0.000000
    13  C    0.064007   0.000000
    14  C   -0.471703  -0.000000
    15  O   -0.529471   0.000000
    16  O   -0.593123  -0.000000
    17  H    0.151735  -0.000000
    18  H    0.163605   0.000000
    19  H    0.164719   0.000000
    20  H    0.146741  -0.000000
    21  H    0.170944  -0.000000
    22  O   -0.657316   0.000000
    23  O   -0.023932   0.000000
    24  C    0.055874   0.000000
    25  C   -0.479762  -0.000000
    26  O   -0.331936  -0.000000
    27  H    0.153437   0.000000
    28  H    0.416105  -0.000000
    29  H    0.192155   0.000000
    30  H    0.169311   0.000000
    31  H    0.158780  -0.000000
 Sum of Mulliken charges =  -2.00000   0.00000

 Dipole moment (field-independent basis, Debye):
    X=              7.9518    Y=            -35.5630    Z=             16.9760  Tot=             40.2013
 Quadrupole moment (field-independent basis, Debye-Ang):
   XX=           -152.7118   YY=           -307.8038   ZZ=           -181.3813
   XY=             36.0633   XZ=            -25.0787   YZ=             74.4209

  Exact polarizability: 198.099 -13.837 490.561  48.251  70.549 451.094
 Approx polarizability: 224.591 -17.524 552.606  49.859  59.106 519.878

                      1                      2                      3
                      A                      A                      A
 Frequencies --     50.8473                58.4503                75.7596
 Red. masses --      6.8992                 6.0769                 1.6303
 Frc consts  --      0.0105                 0.0122                 0.0055
 IR Inten    --      8.0166                 3.4326                 9.4386

                      4                      5                      6
                      A                      A                      A
 Frequencies --     77.3256                86.5915               115.2697
 Red. masses --      1.8954                 5.9633                 4.5386
 Frc consts  --      0.0067                 0.0263                 0.0355
 IR Inten    --      3.8488                 1.2583                 2.2961

                      7                      8                      9
                      A                      A                      A
 Frequencies --    133.4049               152.0940               182.7216
 Red. masses --      5.6301                 7.9362                 7.5956
 Frc consts  --      0.0590                 0.1082                 0.1494
 IR Inten    --      2.3111                 1.1770                 2.6627

                     10                     11                     12
                      A                      A                      A
 Frequencies --    220.8579               266.7202               294.8132
 Red. masses --      6.1263                 6.4667                 4.1158
 Frc consts  --      0.1761                 0.2710                 0.2108
 IR Inten    --     17.1617                 0.3819                 6.3473

                     13                     14                     15
                      A                      A                      A
 Frequencies --    319.2726               353.5648               375.2503
 Red. masses --      8.1253                 8.4992                 6.5452
 Frc consts  --      0.4880                 0.6260                 0.5430
 IR Inten    --      4.4023                53.0402                 3.7076

                     16                     17                     18
                      A                      A                      A
 Frequencies --    385.1277               389.9271               406.5053
 Red. masses --      6.9316                 9.8910                 6.3166
 Frc consts  --      0.6057                 0.8860                 0.6150
 IR Inten    --      0.2468                 7.9066                28.2615

                     19                     20                     21
                      A                      A                      A
 Frequencies --    439.4169               444.1511               492.5834
 Red. masses --      3.3571                 6.6732                 6.6555
 Frc consts  --      0.3819                 0.7756                 0.9515
 IR Inten    --      5.0822                12.5193                15.8912

                     22                     23                     24
                      A                      A                      A
 Frequencies --    499.5002               513.4622               534.4167
 Red. masses --      5.0537                 6.6361                 7.2129
 Frc consts  --      0.7429                 1.0308                 1.2137
 IR Inten    --      5.5491                 7.4644                39.8215

                     25                     26                     27
                      A                      A                      A
 Frequencies --    575.6732               587.9613               598.9489
 Red. masses --      3.1620                 3.8739                 5.4565
 Frc consts  --      0.6174                 0.7890                 1.1533
 IR Inten    --     30.0503                48.5373                40.6885

                     28                     29                     30
                      A                      A                      A
 Frequencies --    609.2036               645.2143               670.9922
 Red. masses --      4.3242                 5.9052                 5.6551
 Frc consts  --      0.9455                 1.4484                 1.5001
 IR Inten    --      5.2369                 6.2323                16.4231

                     31                     32                     33
                      A                      A                      A
 Frequencies --    705.5482               712.6518               732.5561
 Red. masses --      5.2161                 2.7526                 3.7162
 Frc consts  --      1.5299                 0.8236                 1.1750
 IR Inten    --     14.7933                 7.9221                 4.7900

                     34                     35                     36
                      A                      A                      A
 Frequencies --    759.7323               770.5921               793.9838
 Red. masses --      2.1030                 3.8404                 4.4940
 Frc consts  --      0.7152                 1.3436                 1.6692
 IR Inten    --     99.9394                46.7953                10.3967

                     37                     38                     39
                      A                      A                      A
 Frequencies --    800.3536               840.0733               847.8476
 Red. masses --      2.2748                 5.4160                 1.5705
 Frc consts  --      0.8585                 2.2520                 0.6652
 IR Inten    --     43.7868                72.4626                 1.5371

                     40                     41                     42
                      A                      A                      A
 Frequencies --    874.4586               893.7748               929.0198
 Red. masses --      1.8494                 4.1392                 5.4998
 Frc consts  --      0.8332                 1.9481                 2.7967
 IR Inten    --     12.4099               143.4021                16.0300

                     43                     44                     45
                      A                      A                      A
 Frequencies --    953.5092               968.5582               972.8612
 Red. masses --      5.7231                 1.1575                 1.2149
 Frc consts  --      3.0657                 0.6398                 0.6775
 IR Inten    --    156.7311                93.3773                39.8157

                     46                     47                     48
                      A                      A                      A
 Frequencies --    980.1884              1018.1823              1022.5002
 Red. masses --      1.2560                 2.1490                 1.9351
 Frc consts  --      0.7110                 1.3126                 1.1920
 IR Inten    --      3.0634                98.7793               162.2363

                     49                     50                     51
                      A                      A                      A
 Frequencies --   1047.9073              1060.1975              1087.2420
 Red. masses --      1.8072                 2.4501                 3.4440
 Frc consts  --      1.1693                 1.6226                 2.3986
 IR Inten    --     35.3882               188.1951               168.8763

                     52                     53                     54
                      A                      A                      A
 Frequencies --   1125.4408              1152.9125              1161.0420
 Red. masses --      1.6647                 1.7702                 1.8240
 Frc consts  --      1.2423                 1.3863                 1.4487
 IR Inten    --    204.5257                65.7841                49.8821

                     55                     56                     57
                      A                      A                      A
 Frequencies --   1200.5004              1218.7373              1242.5497
 Red. masses --      2.2100                 3.0213                 3.8866
 Frc consts  --      1.8766                 2.6440                 3.5355
 IR Inten    --    200.4193               439.9502               722.0717

                     58                     59                     60
                      A                      A                      A
 Frequencies --   1249.0447              1277.8568              1294.9070
 Red. masses --      2.1157                 5.4340                 4.5122
 Frc consts  --      1.9447                 5.2280                 4.4578
 IR Inten    --     98.2731               193.8342               125.4810

                     61                     62                     63
                      A                      A                      A
 Frequencies --   1336.8408              1350.4984              1373.9355
 Red. masses --      4.0818                 6.2698                 3.2381
 Frc consts  --      4.2980                 6.7374                 3.6014
 IR Inten    --     66.6359               425.1559                92.0197

                     64                     65                     66
                      A                      A                      A
 Frequencies --   1379.3187              1401.2701              1433.4527
 Red. masses --      1.3818                 3.7915                 3.2951
 Frc consts  --      1.5489                 4.3864                 3.9892
 IR Inten    --    274.1254              1397.4694               104.3733

                     67                     68                     69
                      A                      A                      A
 Frequencies --   1445.2120              1461.7030              1465.0931
 Red. masses --      3.6581                 1.0674                 1.0604
 Frc consts  --      4.5017                 1.3437                 1.3411
 IR Inten    --    923.7137                31.2395                31.5270

                     70                     71                     72
                      A                      A                      A
 Frequencies --   1473.9650              1502.9676              1526.8593
 Red. masses --      3.0143                 2.6136                 6.2486
 Frc consts  --      3.8584                 3.4785                 8.5828
 IR Inten    --     69.1450                91.6073               317.0615

                     73                     74                     75
                      A                      A                      A
 Frequencies --   1577.4860              1604.9187              1622.0626
 Red. masses --      7.0320                 6.3784                 4.6770
 Frc consts  --     10.3100                 9.6799                 7.2502
 IR Inten    --     23.9799               101.3666                60.0964

                     76                     77                     78
                      A                      A                      A
 Frequencies --   1645.8678              1739.7476              2640.8809
 Red. masses --      1.9883                11.1076                 1.0798
 Frc consts  --      3.1734                19.8082                 4.4370
 IR Inten    --     50.3970               523.7460              1547.9012

                     79                     80                     81
                      A                      A                      A
 Frequencies --   3052.7299              3119.1554              3146.0962
 Red. masses --      1.0352                 1.0999                 1.0853
 Frc consts  --      5.6841                 6.3052                 6.3294
 IR Inten    --      9.4792                 8.1148                24.1859

                     82                     83                     84
                      A                      A                      A
 Frequencies --   3148.0329              3150.3011              3161.5671
 Red. masses --      1.1041                 1.0863                 1.0898
 Frc consts  --      6.4466                 6.3517                 6.4182
 IR Inten    --     19.2934                58.6673                33.2683

                     85                     86                     87
                      A                      A                      A
 Frequencies --   3167.4589              3182.3446              3185.9411
 Red. masses --      1.0933                 1.0913                 1.0936
 Frc consts  --      6.4629                 6.5114                 6.5399
 IR Inten    --     57.8778                30.9104                58.9115

 - Thermochemistry -
 -------------------
 Temperature   298.150 Kelvin.  Pressure   1.00000 Atm.
 Atom     1 has atomic number  6 and mass  12.00000

 Molecular mass:   282.05282 amu.
 Principal axes and moments of inertia in atomic units:
                           1         2         3
     Eigenvalues --  4096.911706277.004339950.86352
           X            0.26288  -0.17216   0.94935
           Y            0.20619   0.97124   0.11904
           Z            0.94254  -0.16445  -0.29081
 This molecule is an asymmetric top.
 Rotational symmetry number  1.
 Warning -- assumption of classical behavior for rotation
           may cause significant error
 Rotational temperatures (Kelvin)      0.02114     0.01380     0.00870
 Rotational constants (GHZ):           0.44051     0.28752     0.18137
 Zero-point vibrational energy     577476.1 (Joules/Mol)
                                  138.02010 (Kcal/Mol)
 Warning -- explicit consideration of  28 degrees of freedom as
           vibrations may cause significant error
 Vibrational temperatures:     73.16    84.10   109.00   111.25   124.59
          (Kelvin)            165.85   191.94   218.83   262.90   317.77
                              383.75   424.17   459.36   508.70   539.90
                              554.11   561.02   584.87   632.22   639.03
                              708.72   718.67   738.76   768.91   828.27
                              845.95   861.75   876.51   928.32   965.41
                             1015.13  1025.35  1053.98  1093.09  1108.71
                             1142.37  1151.53  1208.68  1219.86  1258.15
                             1285.94  1336.65  1371.89  1393.54  1399.73
                             1410.27  1464.94  1471.15  1507.70  1525.39
                             1564.30  1619.26  1658.78  1670.48  1727.25
                             1753.49  1787.75  1797.10  1838.55  1863.08
                             1923.42  1943.07  1976.79  1984.53  2016.12
                             2062.42  2079.34  2103.06  2107.94  2120.71
                             2162.44  2196.81  2269.65  2309.12  2333.79
                             2368.04  2503.11  3799.64  4392.20  4487.77
                             4526.53  4529.32  4532.58  4548.79  4557.27
                             4578.68  4583.86

 Zero-point correction=                           0.219949 (Hartree/Particle)
 Thermal correction to Energy=                    0.236655
 Thermal correction to Enthalpy=                  0.237599
 Thermal correction to Gibbs Free Energy=         0.175407
 Sum of electronic and zero-point Energies=           -992.190352
 Sum of electronic and thermal Energies=              -992.173647
 Sum of electronic and thermal Enthalpies=            -992.172702
 Sum of electronic and thermal Free Energies=         -992.234894

                     E (Thermal)             CV                S
                      KCal/Mol        Cal/Mol-Kelvin    Cal/Mol-Kelvin
 Total                  148.503             65.789            130.894
 Electronic               0.000              0.000              0.000
 Translational            0.889              2.981             42.809
 Rotational               0.889              2.981             33.903
 Vibrational            146.726             59.827             54.183
 Vibration     1          0.595              1.977              4.784
 Vibration     2          0.596              1.974              4.509
 Vibration     3          0.599              1.965              3.998
 Vibration     4          0.599              1.964              3.958
 Vibration     5          0.601              1.959              3.736
 Vibration     6          0.608              1.937              3.178
 Vibration     7          0.613              1.920              2.896
 Vibration     8          0.619              1.900              2.646
 Vibration     9          0.630              1.863              2.300
 Vibration    10          0.648              1.809              1.952
 Vibration    11          0.672              1.734              1.617
 Vibration    12          0.689              1.683              1.446
 Vibration    13          0.705              1.637              1.314
 Vibration    14          0.730              1.568              1.150
 Vibration    15          0.746              1.523              1.058
 Vibration    16          0.754              1.502              1.019
 Vibration    17          0.758              1.492              1.000
 Vibration    18          0.771              1.456              0.939
 Vibration    19          0.799              1.384              0.828
 Vibration    20          0.804              1.374              0.814
 Vibration    21          0.848              1.266              0.677
 Vibration    22          0.855              1.251              0.659
 Vibration    23          0.869              1.220              0.625
 Vibration    24          0.889              1.174              0.577
 Vibration    25          0.932              1.084              0.493
 Vibration    26          0.945              1.057              0.471
 Vibration    27          0.957              1.034              0.451
 Vibration    28          0.968              1.012              0.434

 Optimization completed.
    -- Stationary point found.
 Normal termination of Gaussian 16 at Sat Feb 10 22:00:59 2024.
