 Gaussian 16, Revision A.03,
 Gaussian 16:  ES64L-G16RevA.03 25-Dec-2016

 ----------------------------------------------------------------
 #P UB3LYP/6-311++G(d,p) SCRF=(PCM,Solvent=n,n-DiMethylFormamide)
 ----------------------------------------------------------------

 -------
 Reduced
 -------
 Symbolic Z-matrix:
 Charge = -2 Multiplicity = 1

                         Standard orientation:
 ---------------------------------------------------------------------
 Center     Atomic      Atomic             Coordinates (Angstroms)
 Number     Number       Type             X           Y           Z
 ---------------------------------------------------------------------
      1          6           0       -3.772299    0.174113    0.023971
      2          8           0       -2.450019    0.654231    0.005632
      3          6           0       -1.412244   -0.247862   -0.000426
      4          6           0       -1.664154   -1.616387   -0.007215
      5          6           0       -0.591079   -2.537632   -0.022388
      6          6           0        0.704747   -2.079938   -0.014249
      7          6           0        1.000601   -0.695612    0.006095
      8          6           0        2.416257   -0.319857    0.015937
      9          8           0        3.362399   -1.192717    0.024649
     10          6           0        2.650059    1.083059    0.002260
     11          6           0        1.628375    2.024452   -0.012410
     12          6           0        0.225668    1.722233   -0.011550
     13          8           0       -0.643838    2.656636   -0.012604
     14          6           0       -0.076813    0.278974   -0.003551
     15          1           0       -4.416428    1.055304    0.076799
     16          1           0       -4.030102   -0.395733   -0.882062
     17          1           0       -3.983257   -0.463735    0.896315
     18          1           0       -2.680263   -1.988818   -0.017886
     19          1           0       -0.807167   -3.604540   -0.035118
     20          1           0        1.554714   -2.753718   -0.021051
     21          1           0        3.691463    1.405592    0.002813
     22          1           0        1.867998    3.087197   -0.020056
 ---------------------------------------------------------------------

 SCF Done:  E(UB3LYP) =  -650.053875180     A.U. after   19 cycles

 The electronic state is 1-A.
 Alpha  occ. eigenvalues --  -19.13254 -19.01025 -19.00665 -10.21213 -10.20801
 Alpha  occ. eigenvalues --  -10.16985 -10.16296 -10.14679 -10.14163 -10.14073
 Alpha  occ. eigenvalues --  -10.13486 -10.13393 -10.11535 -10.11275  -1.04932
 Alpha  occ. eigenvalues --   -0.93035  -0.92665  -0.82035  -0.75727  -0.73376
 Alpha  occ. eigenvalues --   -0.70309  -0.67393  -0.63169  -0.58037  -0.57424
 Alpha  occ. eigenvalues --   -0.53317  -0.48685  -0.46917  -0.45669  -0.45364
 Alpha  occ. eigenvalues --   -0.43847  -0.41737  -0.40081  -0.38341  -0.37144
 Alpha  occ. eigenvalues --   -0.37114  -0.34983  -0.34777  -0.33104  -0.32133
 Alpha  occ. eigenvalues --   -0.31436  -0.31292  -0.30699  -0.29117  -0.22005
 Alpha  occ. eigenvalues --   -0.21455  -0.20362  -0.19095  -0.18201  -0.10294
 Alpha virt. eigenvalues --    0.00069   0.00588   0.01103   0.01276   0.01470
 Alpha virt. eigenvalues --    0.02946   0.03094   0.03827   0.04204   0.05222
 Alpha virt. eigenvalues --    0.06325   0.06486   0.07099   0.07307   0.08458

  Beta  occ. eigenvalues --  -19.13254 -19.01025 -19.00665 -10.21213 -10.20801
  Beta  occ. eigenvalues --  -10.16985 -10.16296 -10.14679 -10.14163 -10.14073
  Beta  occ. eigenvalues --  -10.13486 -10.13393 -10.11535 -10.11275  -1.04932
  Beta  occ. eigenvalues --   -0.93035  -0.92665  -0.82035  -0.75727  -0.73376
  Beta  occ. eigenvalues --   -0.70309  -0.67393  -0.63169  -0.58037  -0.57424
  Beta  occ. eigenvalues --   -0.53317  -0.48685  -0.46917  -0.45669  -0.45364
  Beta  occ. eigenvalues --   -0.43847  -0.41737  -0.40081  -0.38341  -0.37144
  Beta  occ. eigenvalues --   -0.37114  -0.34983  -0.34777  -0.33104  -0.32133
  Beta  occ. eigenvalues --   -0.31436  -0.31292  -0.30699  -0.29117  -0.22005
  Beta  occ. eigenvalues --   -0.21455  -0.20362  -0.19095  -0.18201  -0.10294
  Beta virt. eigenvalues --    0.00069   0.00588   0.01103   0.01276   0.01470
  Beta virt. eigenvalues --    0.02946   0.03094   0.03827   0.04204   0.05222
  Beta virt. eigenvalues --    0.06325   0.06486   0.07099   0.07307   0.08458

 Mulliken charges and spin densities:
               1          2
     1  C   -0.279688   0.000000
     2  O   -0.163888  -0.000000
     3  C    0.172117  -0.000000
     4  C   -0.144456  -0.000000
     5  C   -0.458180  -0.000000
     6  C   -0.110720  -0.000000
     7  C    0.112442   0.000000
     8  C   -0.443486   0.000000
     9  O   -0.717709  -0.000000
    10  C   -0.139785   0.000000
    11  C   -0.089643  -0.000000
    12  C   -0.316305   0.000000
    13  O   -0.702635   0.000000
    14  C    0.102814  -0.000000
    15  H    0.182616   0.000000
    16  H    0.150183  -0.000000
    17  H    0.145847  -0.000000
    18  H    0.157844   0.000000
    19  H    0.165643  -0.000000
    20  H    0.135121   0.000000
    21  H    0.121793   0.000000
    22  H    0.120075   0.000000
 Sum of Mulliken charges =  -2.00000   0.00000

 Dipole moment (field-independent basis, Debye):
    X=            -12.8799    Y=             -5.7776    Z=             -0.0178  Tot=             14.1164
 Quadrupole moment (field-independent basis, Debye-Ang):
   XX=           -131.5063   YY=           -127.5192   ZZ=            -92.9161
   XY=             21.2515   XZ=             -0.4455   YZ=              0.3229

 Normal termination of Gaussian 16 at Sun Jan 21 08:52:49 2024.
