 Q-Chem 5.4, Q-Chem, Inc., Pleasanton, CA (2021)
 Q-Chem 5.4.0 for Intel X86 EM64T Linux

User input:
--------------------------------------------------------------
$molecule
0 1
C                 -1.4185360000      2.2673840000     -3.9853330000
C                 -1.3982100000      0.8854210000     -4.1054570000
C                 -1.1382650000      0.0872800000     -2.9847600000
C                 -1.1793440000      2.8704250000     -2.7430140000
C                 -0.9193200000      2.0718520000     -1.6217100000
C                 -0.9005100000      0.6764940000     -1.7514860000
C                 -1.2084570000      4.3489310000     -2.6348980000
C                 -0.6599250000      2.6822640000     -0.2955790000
C                 -0.9556620000      4.9629990000     -1.3308450000
C                 -0.6849040000      4.1405670000     -0.1765720000
C                 -0.9808380000      6.3827130000     -1.2127970000
C                 -0.7268910000      6.9402170000      0.0733280000
C                 -0.4745810000      6.1623090000      1.1657030000
C                 -0.4376340000      4.7401100000      1.0920860000
O                 -1.4492000000      5.0151680000     -3.6588390000
O                 -0.4285100000      1.9307130000      0.6697690000
H                 -1.6175320000      2.9056560000     -4.8366980000
H                 -1.5838040000      0.4231080000     -5.0686170000
H                 -1.1227740000     -0.9927380000     -3.0805550000
H                 -0.6967490000      0.0810760000     -0.8707080000
H                 -0.2948780000      6.6495010000      2.1143630000
H                 -0.7353620000      8.0145580000      0.1971130000
N                 -1.2526140000      7.1940960000     -2.2704210000
N                 -0.1568410000      4.0029990000      2.2005120000
H                 -1.4020000000      6.6927330000     -3.1453010000
H                 -0.1723940000      2.9965380000      2.0396120000
C                  0.0397100000      4.5045790000      3.5574880000
C                  0.8361790000      3.4620520000      4.3473190000
C                 -1.2925610000      4.8365330000      4.2504040000
C                 -1.2324050000      8.6539330000     -2.2804020000
C                  0.1984220000      9.2123430000     -2.3589230000
C                 -2.0878340000      9.1409210000     -3.4534910000
H                  0.6463030000      5.4161070000      3.5066730000
H                  1.0120230000      3.8096030000      5.3679340000
H                  1.8022280000      3.2679020000      3.8761280000
H                  0.2866330000      2.5171860000      4.4041850000
H                 -1.8754370000      5.5574550000      3.6725990000
H                 -1.1158150000      5.2588210000      5.2441400000
H                 -1.8960800000      3.9315660000      4.3635680000
H                 -1.7003190000      9.0144110000     -1.3570680000
H                  0.8182340000      8.8417490000     -1.5392660000
H                  0.1889910000     10.3054220000     -2.3123490000
H                  0.6708190000      8.9121270000     -3.2984520000
H                 -1.6801330000      8.7831420000     -4.4041640000
H                 -2.1047620000     10.2327280000     -3.4856130000
H                 -3.1152210000      8.7809190000     -3.3649480000
$end
$rem
MAX_SCF_CYCLES=200
BASIS  =  6-311++G(d,p)
GUI  =  2
JOB_TYPE  =  SP
METHOD  =  B3LYP
SOLVENT_METHOD = COSMO
$end
$solvent
dielectric 37.219
opticaldielectric 1.43
$end

--------------------------------------------------------------

             Standard Nuclear Orientation (Angstroms)
    I     Atom           X                Y                Z
 ----------------------------------------------------------------
    1      C       1.3937213023    -3.7985438415    -0.0574855624
    2      C       0.6987128274    -4.9988809022    -0.0288706088
    3      C      -0.7002939334    -4.9986197426     0.0289414986
    4      C       0.6995488959    -2.5813628713    -0.0287990826
    5      C      -0.7002064720    -2.5811069238     0.0289834570
    6      C      -1.3948447653    -3.7980194727     0.0576376760
    7      C       1.4606623762    -1.3093407218    -0.0631873009
    8      C      -1.4608225603    -1.3087878191     0.0633239136
    9      C       0.7209308581    -0.0470668888    -0.0315471525
   10      C      -0.7206451788    -0.0468348888     0.0309742339
   11      C       1.4398767965     1.1826499876    -0.0642602220
   12      C       0.6821654011     2.3884862917    -0.0289112008
   13      C      -0.6812956441     2.3886957017     0.0263904034
   14      C      -1.4392693246     1.1830574819     0.0630908367
   15      O       2.7033835082    -1.3615858544    -0.1197446880
   16      O      -2.7035617846    -1.3604591097     0.1199619503
   17      H       2.4749728601    -3.7726569784    -0.1026281825
   18      H       1.2399015901    -5.9382802425    -0.0512140887
   19      H      -1.2418440201    -5.9378117640     0.0512436055
   20      H      -2.4760835738    -3.7717115729     0.1028212857
   21      H      -1.1957072028     3.3398087028     0.0456210046
   22      H       1.1968389558     3.3394361044    -0.0491263962
   23      N       2.7971971452     1.2277518135    -0.1443875494
   24      N      -2.7965363389     1.2283866075     0.1440664811
   25      H       3.2395029658     0.3093525176    -0.1464716596
   26      H      -3.2389744622     0.3100561034     0.1475367263
   27      C      -3.6351034258     2.4230675029     0.1102810478
   28      C      -4.9841485786     2.0847376557     0.7511152794
   29      C      -3.8121626170     2.9656280598    -1.3178471480
   30      C       3.6359195654     2.4223253761    -0.1101706550
   31      C       3.8106494810     2.9660139187     1.3178088283
   32      C       4.9859767531     2.0831754010    -0.7484313952
   33      H      -3.1615489082     3.1976126724     0.7244849440
   34      H      -5.6358784588     2.9614429733     0.7530485404
   35      H      -4.8544295253     1.7471574244     1.7817356780
   36      H      -5.4899050246     1.2914032677     0.1917967011
   37      H      -2.8490669090     3.1788481018    -1.7872248747
   38      H      -4.3996286352     3.8886103388    -1.3097891581
   39      H      -4.3327958379     2.2319029648    -1.9396148535
   40      H       3.1635692968     3.1964948661    -0.7257844949
   41      H       2.8468169601     3.1800903098     1.7852942253
   42      H       4.3985499469     3.8887228654     1.3099970891
   43      H       4.3298457754     2.2325874569     1.9411258803
   44      H       5.4906940249     1.2903537088    -0.1874507261
   45      H       5.6378263758     2.9597881141    -0.7501994591
   46      H       4.8579138299     1.7445430035    -1.7789134851
 ----------------------------------------------------------------

    9   -1035.6536067326      4.16e-06  Convergence criterion met
 Total energy in the final basis set =    -1035.6536067326
    4   -1035.6697347314      9.73e-06  Convergence criterion met
 Total energy in the final basis set =    -1035.6697347314

                    Orbital Energies (a.u.)
 --------------------------------------------------------------

 Alpha MOs
 -- Occupied --
-19.1115 -19.1115 -14.3332 -14.3331 -10.2636 -10.2636 -10.2395 -10.2395
-10.2162 -10.2162 -10.1954 -10.1953 -10.1949 -10.1946 -10.1941 -10.1937
-10.1883 -10.1878 -10.1862 -10.1862 -10.1621 -10.1620 -10.1600 -10.1600
 -1.0462  -1.0440  -0.9558  -0.9498  -0.8799  -0.8590  -0.8043  -0.7996
 -0.7797  -0.7678  -0.7591  -0.7252  -0.6941  -0.6924  -0.6793  -0.6595
 -0.6493  -0.6173  -0.6030  -0.6009  -0.5873  -0.5483  -0.5449  -0.5310
 -0.5100  -0.5009  -0.4882  -0.4825  -0.4729  -0.4591  -0.4551  -0.4520
 -0.4471  -0.4419  -0.4393  -0.4362  -0.4264  -0.4213  -0.4200  -0.4152
 -0.4044  -0.3961  -0.3922  -0.3893  -0.3868  -0.3770  -0.3751  -0.3685
 -0.3647  -0.3639  -0.3569  -0.3537  -0.3487  -0.3442  -0.3281  -0.2842
 -0.2737  -0.2735  -0.2695  -0.2623  -0.2605  -0.1927

          Ground-State Mulliken Net Atomic Charges

     Atom                 Charge (a.u.)
  ----------------------------------------
      1 C                    -0.077931
      2 C                    -0.370015
      3 C                    -0.369817
      4 C                     0.374351
      5 C                     0.374543
      6 C                    -0.077933
      7 C                    -0.280399
      8 C                    -0.279850
      9 C                     0.018022
     10 C                     0.017820
     11 C                    -0.430036
     12 C                     0.015795
     13 C                     0.016278
     14 C                    -0.430342
     15 O                    -0.367853
     16 O                    -0.367925
     17 H                     0.189966
     18 H                     0.219381
     19 H                     0.219420
     20 H                     0.189952
     21 H                     0.252457
     22 H                     0.252404
     23 N                    -0.059809
     24 N                    -0.060045
     25 H                     0.419950
     26 H                     0.420111
     27 C                     0.035893
     28 C                    -0.562350
     29 C                    -0.515451
     30 C                     0.035367
     31 C                    -0.515435
     32 C                    -0.562065
     33 H                     0.159930
     34 H                     0.176426
     35 H                     0.167330
     36 H                     0.156770
     37 H                     0.145378
     38 H                     0.158292
     39 H                     0.173530
     40 H                     0.160095
     41 H                     0.145353
     42 H                     0.158267
     43 H                     0.173623
     44 H                     0.156780
     45 H                     0.176425
     46 H                     0.167347
  ----------------------------------------
  Sum of atomic charges =     0.000000

                    Cartesian Multipole Moments
 -----------------------------------------------------------------
    Charge (ESU x 10^10)
                -0.0000
    Dipole Moment (Debye)
         X       0.0011      Y       6.2251      Z       0.0014
       Tot       6.2251
    Quadrupole Moments (Debye-Ang)
        XX    -135.0060     XY       0.0099     YY    -110.8716
        XZ      -0.0231     YZ      -0.0047     ZZ    -148.0979

 Total job time:  174.94s(wall), 1221.52s(cpu)
        *  Thank you very much for using Q-Chem.  Have a nice day.  *
