 Gaussian 16, Revision A.03,
 Gaussian 16:  ES64L-G16RevA.03 25-Dec-2016

 --------------------------------------
 #P UB3LYP/6-311++G(d,p) nosym opt freq
 --------------------------------------

 --------
 Oxidized
 --------
 Symbolic Z-matrix:
 Charge =  0 Multiplicity = 1

 SCF Done:  E(UB3LYP) =  -1035.65373639     A.U. after   15 cycles
 SCF Done:  E(UB3LYP) =  -1035.65373638     A.U. after    8 cycles
 Optimization completed.
    -- Stationary point found.
 Normal termination of Gaussian 16 at Wed Dec 27 20:17:45 2023.

 ----------------------------------------------------------------------
 #P Geom=AllCheck Guess=TCheck SCRF=Check GenChk UB3LYP/6-311++G(d,p) F
 req
 ----------------------------------------------------------------------

 Structure from the checkpoint file:  "173.chk"
 --------
 Oxidized
 --------
 Charge =  0 Multiplicity = 1

                          Input orientation:
 ---------------------------------------------------------------------
 Center     Atomic      Atomic             Coordinates (Angstroms)
 Number     Number       Type             X           Y           Z
 ---------------------------------------------------------------------
      1          6           0       -1.418536    2.267384   -3.985333
      2          6           0       -1.398210    0.885421   -4.105457
      3          6           0       -1.138265    0.087280   -2.984760
      4          6           0       -1.179344    2.870425   -2.743014
      5          6           0       -0.919320    2.071852   -1.621710
      6          6           0       -0.900510    0.676494   -1.751486
      7          6           0       -1.208457    4.348931   -2.634898
      8          6           0       -0.659925    2.682264   -0.295579
      9          6           0       -0.955662    4.962999   -1.330845
     10          6           0       -0.684904    4.140567   -0.176572
     11          6           0       -0.980838    6.382713   -1.212797
     12          6           0       -0.726891    6.940217    0.073328
     13          6           0       -0.474581    6.162309    1.165703
     14          6           0       -0.437634    4.740110    1.092086
     15          8           0       -1.449200    5.015168   -3.658839
     16          8           0       -0.428510    1.930713    0.669769
     17          1           0       -1.617532    2.905656   -4.836698
     18          1           0       -1.583804    0.423108   -5.068617
     19          1           0       -1.122774   -0.992738   -3.080555
     20          1           0       -0.696749    0.081076   -0.870708
     21          1           0       -0.294878    6.649501    2.114363
     22          1           0       -0.735362    8.014558    0.197113
     23          7           0       -1.252614    7.194096   -2.270421
     24          7           0       -0.156841    4.002999    2.200512
     25          1           0       -1.402000    6.692733   -3.145301
     26          1           0       -0.172394    2.996538    2.039612
     27          6           0        0.039710    4.504579    3.557488
     28          6           0        0.836179    3.462052    4.347319
     29          6           0       -1.292561    4.836533    4.250404
     30          6           0       -1.232405    8.653933   -2.280402
     31          6           0        0.198422    9.212343   -2.358923
     32          6           0       -2.087834    9.140921   -3.453491
     33          1           0        0.646303    5.416107    3.506673
     34          1           0        1.012023    3.809603    5.367934
     35          1           0        1.802228    3.267902    3.876128
     36          1           0        0.286633    2.517186    4.404185
     37          1           0       -1.875437    5.557455    3.672599
     38          1           0       -1.115815    5.258821    5.244140
     39          1           0       -1.896080    3.931566    4.363568
     40          1           0       -1.700319    9.014411   -1.357068
     41          1           0        0.818234    8.841749   -1.539266
     42          1           0        0.188991   10.305422   -2.312349
     43          1           0        0.670819    8.912127   -3.298452
     44          1           0       -1.680133    8.783142   -4.404164
     45          1           0       -2.104762   10.232728   -3.485613
     46          1           0       -3.115221    8.780919   -3.364948
 ---------------------------------------------------------------------

 SCF Done:  E(UB3LYP) =  -1035.65373638     A.U. after    1 cycles

 Alpha  occ. eigenvalues --  -19.10155 -19.10155 -14.32711 -14.32709 -10.25462
 Alpha  occ. eigenvalues --  -10.25461 -10.23351 -10.23350 -10.22339 -10.22337
 Alpha  occ. eigenvalues --  -10.19385 -10.19317 -10.18866 -10.18827 -10.18778
 Alpha  occ. eigenvalues --  -10.18726 -10.18428 -10.18376 -10.17961 -10.17960
 Alpha  occ. eigenvalues --  -10.17120 -10.17120 -10.16943 -10.16943  -1.03479
 Alpha  occ. eigenvalues --   -1.03252  -0.95183  -0.94617  -0.87277  -0.85560
 Alpha  occ. eigenvalues --   -0.80301  -0.79966  -0.78318  -0.76050  -0.75526
 Alpha  occ. eigenvalues --   -0.72331  -0.70101  -0.70084  -0.67551  -0.65630
 Alpha  occ. eigenvalues --   -0.64569  -0.61739  -0.60447  -0.59953  -0.58089
 Alpha  occ. eigenvalues --   -0.54542  -0.54296  -0.52854  -0.50807  -0.49655
 Alpha  occ. eigenvalues --   -0.49029  -0.47758  -0.47138  -0.46154  -0.45784
 Alpha  occ. eigenvalues --   -0.45457  -0.44208  -0.43351  -0.43128  -0.43088
 Alpha  occ. eigenvalues --   -0.42763  -0.42271  -0.41964  -0.41155  -0.39994
 Alpha  occ. eigenvalues --   -0.39945  -0.39822  -0.39369  -0.39000  -0.37863
 Alpha  occ. eigenvalues --   -0.37826  -0.36938  -0.36514  -0.36204  -0.35675
 Alpha  occ. eigenvalues --   -0.35583  -0.35068  -0.34952  -0.32824  -0.27497
 Alpha  occ. eigenvalues --   -0.27104  -0.26226  -0.26067  -0.25595  -0.25145
 Alpha  occ. eigenvalues --   -0.18665
 Alpha virt. eigenvalues --   -0.09860  -0.04879  -0.02539  -0.01616  -0.00834
 Alpha virt. eigenvalues --    0.00031   0.00137   0.00517   0.01138   0.01574
 Alpha virt. eigenvalues --    0.01669   0.01719   0.02405   0.03348   0.03415

  Beta  occ. eigenvalues --  -19.10155 -19.10155 -14.32711 -14.32709 -10.25462
  Beta  occ. eigenvalues --  -10.25461 -10.23351 -10.23350 -10.22339 -10.22337
  Beta  occ. eigenvalues --  -10.19385 -10.19317 -10.18866 -10.18827 -10.18778
  Beta  occ. eigenvalues --  -10.18726 -10.18428 -10.18376 -10.17961 -10.17960
  Beta  occ. eigenvalues --  -10.17120 -10.17120 -10.16943 -10.16943  -1.03479
  Beta  occ. eigenvalues --   -1.03252  -0.95183  -0.94617  -0.87277  -0.85560
  Beta  occ. eigenvalues --   -0.80301  -0.79966  -0.78318  -0.76050  -0.75526
  Beta  occ. eigenvalues --   -0.72331  -0.70101  -0.70084  -0.67551  -0.65630
  Beta  occ. eigenvalues --   -0.64569  -0.61739  -0.60447  -0.59953  -0.58089
  Beta  occ. eigenvalues --   -0.54542  -0.54296  -0.52854  -0.50807  -0.49655
  Beta  occ. eigenvalues --   -0.49029  -0.47758  -0.47138  -0.46154  -0.45784
  Beta  occ. eigenvalues --   -0.45457  -0.44208  -0.43351  -0.43128  -0.43088
  Beta  occ. eigenvalues --   -0.42763  -0.42271  -0.41964  -0.41155  -0.39994
  Beta  occ. eigenvalues --   -0.39945  -0.39822  -0.39369  -0.39000  -0.37863
  Beta  occ. eigenvalues --   -0.37826  -0.36938  -0.36514  -0.36204  -0.35675
  Beta  occ. eigenvalues --   -0.35583  -0.35068  -0.34952  -0.32824  -0.27497
  Beta  occ. eigenvalues --   -0.27104  -0.26226  -0.26067  -0.25595  -0.25145
  Beta  occ. eigenvalues --   -0.18665
  Beta virt. eigenvalues --   -0.09860  -0.04879  -0.02539  -0.01616  -0.00834
  Beta virt. eigenvalues --    0.00031   0.00137   0.00517   0.01138   0.01574
  Beta virt. eigenvalues --    0.01669   0.01719   0.02405   0.03348   0.03415

 Mulliken charges and spin densities:
               1          2
     1  C   -0.066264  -0.000000
     2  C   -0.322075   0.000000
     3  C   -0.321946   0.000000
     4  C    0.412838   0.000000
     5  C    0.412913  -0.000000
     6  C   -0.066254   0.000000
     7  C   -0.353981   0.000000
     8  C   -0.353638  -0.000000
     9  C    0.034850   0.000000
    10  C    0.034855   0.000000
    11  C   -0.447325   0.000000
    12  C    0.050118  -0.000000
    13  C    0.050415  -0.000000
    14  C   -0.447663   0.000000
    15  O   -0.273953  -0.000000
    16  O   -0.273966   0.000000
    17  H    0.173629  -0.000000
    18  H    0.168937   0.000000
    19  H    0.168939   0.000000
    20  H    0.173608   0.000000
    21  H    0.192702   0.000000
    22  H    0.192715  -0.000000
    23  N   -0.044250  -0.000000
    24  N   -0.044455   0.000000
    25  H    0.415841   0.000000
    26  H    0.415998  -0.000000
    27  C    0.036716  -0.000000
    28  C   -0.524494   0.000000
    29  C   -0.473560   0.000000
    30  C    0.036469  -0.000000
    31  C   -0.473470   0.000000
    32  C   -0.524519   0.000000
    33  H    0.123371   0.000000
    34  H    0.153718  -0.000000
    35  H    0.160217  -0.000000
    36  H    0.147557  -0.000000
    37  H    0.134426  -0.000000
    38  H    0.136453  -0.000000
    39  H    0.164362   0.000000
    40  H    0.123444   0.000000
    41  H    0.134383   0.000000
    42  H    0.136439  -0.000000
    43  H    0.164388   0.000000
    44  H    0.147560  -0.000000
    45  H    0.153716  -0.000000
    46  H    0.160237   0.000000
 Sum of Mulliken charges =  -0.00000   0.00000

 Dipole moment (field-independent basis, Debye):
    X=              0.3402    Y=              3.0764    Z=              2.1122  Tot=              3.7472
 Quadrupole moment (field-independent basis, Debye-Ang):
   XX=           -148.1362   YY=            -98.6422   ZZ=           -135.3783
   XY=             -0.0032   XZ=              0.7182   YZ=             14.0665

  Exact polarizability: 161.981   1.030 382.795  37.306  30.440 353.497
 Approx polarizability: 254.409   0.116 611.707  63.190  55.206 559.112

                      1                      2                      3
                      A                      A                      A
 Frequencies --     28.9641                35.7467                37.9344
 Red. masses --      4.2493                 3.1481                 4.0781
 Frc consts  --      0.0021                 0.0024                 0.0035
 IR Inten    --      3.4699                 0.2770                 0.0273

                      4                      5                      6
                      A                      A                      A
 Frequencies --     57.8534                69.5705                82.2596
 Red. masses --      2.9522                 4.5027                 4.4187
 Frc consts  --      0.0058                 0.0128                 0.0176
 IR Inten    --      0.0234                 0.6708                 0.0498

                      7                      8                      9
                      A                      A                      A
 Frequencies --     99.3178               116.4390               132.2351
 Red. masses --      3.2425                 3.6948                 5.7702
 Frc consts  --      0.0188                 0.0295                 0.0594
 IR Inten    --      0.2751                 0.0032                 0.0302

                     10                     11                     12
                      A                      A                      A
 Frequencies --    140.7126               182.6326               220.8345
 Red. masses --      4.5416                 6.7447                 1.3895
 Frc consts  --      0.0530                 0.1325                 0.0399
 IR Inten    --      0.2132                 0.1925                 0.3724

                     13                     14                     15
                      A                      A                      A
 Frequencies --    224.3113               228.1013               235.3088
 Red. masses --      1.0278                 1.4730                 3.6396
 Frc consts  --      0.0305                 0.0452                 0.1187
 IR Inten    --      0.4025                 0.1377                 1.0010

                     16                     17                     18
                      A                      A                      A
 Frequencies --    244.9965               252.0482               264.9561
 Red. masses --      3.3095                 1.1134                 4.0061
 Frc consts  --      0.1170                 0.0417                 0.1657
 IR Inten    --      0.5858                 0.0533                 2.8207

                     19                     20                     21
                      A                      A                      A
 Frequencies --    272.1391               318.7065               344.7453
 Red. masses --      1.6356                 3.4650                 5.0767
 Frc consts  --      0.0714                 0.2074                 0.3555
 IR Inten    --      0.3276                 0.0645                 3.3083

                     22                     23                     24
                      A                      A                      A
 Frequencies --    374.6840               390.3327               394.9476
 Red. masses --      3.5348                 3.5278                 4.1453
 Frc consts  --      0.2924                 0.3167                 0.3810
 IR Inten    --      2.7284                 7.7788                 1.5774

                     25                     26                     27
                      A                      A                      A
 Frequencies --    419.0314               420.1462               434.4867
 Red. masses --      4.1864                 3.0993                 5.8999
 Frc consts  --      0.4331                 0.3223                 0.6562
 IR Inten    --      1.5261                 2.3213                 0.1603

                     28                     29                     30
                      A                      A                      A
 Frequencies --    436.0106               445.9153               470.1200
 Red. masses --      3.5409                11.3393                 4.6600
 Frc consts  --      0.3966                 1.3284                 0.6068
 IR Inten    --      2.9492                10.2073                22.7858

                     31                     32                     33
                      A                      A                      A
 Frequencies --    476.3817               495.7040               506.0618
 Red. masses --      2.7554                 4.7715                 4.3356
 Frc consts  --      0.3684                 0.6908                 0.6542
 IR Inten    --      6.2588                 1.7908                 0.1795

                     34                     35                     36
                      A                      A                      A
 Frequencies --    515.9651               580.8589               620.4966
 Red. masses --      4.7917                 2.7028                 5.8499
 Frc consts  --      0.7516                 0.5373                 1.3270
 IR Inten    --     11.4997                24.2861                 1.6530

                     37                     38                     39
                      A                      A                      A
 Frequencies --    640.7452               669.1715               683.8071
 Red. masses --      6.0214                 3.6750                 5.4452
 Frc consts  --      1.4565                 0.9696                 1.5001
 IR Inten    --      0.5521                 0.1447                15.1965

                     40                     41                     42
                      A                      A                      A
 Frequencies --    694.2606               703.1276               728.8180
 Red. masses --      1.2017                 1.2125                 6.6287
 Frc consts  --      0.3413                 0.3532                 2.0745
 IR Inten    --     51.8531                 1.1311                 1.4374

                     43                     44                     45
                      A                      A                      A
 Frequencies --    741.7483               746.7680               787.7726
 Red. masses --      5.6650                 1.7564                 5.0131
 Frc consts  --      1.8364                 0.5771                 1.8330
 IR Inten    --      0.2132               109.1269                 6.6643

                     46                     47                     48
                      A                      A                      A
 Frequencies --    799.9043               812.3222               830.6183
 Red. masses --      6.3299                 2.0582                 1.9072
 Frc consts  --      2.3863                 0.8002                 0.7753
 IR Inten    --      0.0083                13.9262                17.1261

                     49                     50                     51
                      A                      A                      A
 Frequencies --    836.1081               841.5173               875.1345
 Red. masses --      2.7390                 2.5888                 4.7515
 Frc consts  --      1.1282                 1.0801                 2.1440
 IR Inten    --      0.2381                 6.1432                 2.4320

                     52                     53                     54
                      A                      A                      A
 Frequencies --    901.1333               909.5258               934.7136
 Red. masses --      4.3963                 1.3918                 1.2546
 Frc consts  --      2.1034                 0.6783                 0.6458
 IR Inten    --      7.3178                 0.0002                 0.1831

                     55                     56                     57
                      A                      A                      A
 Frequencies --    935.0793               941.0735               952.8100
 Red. masses --      1.2541                 3.2623                 1.4075
 Frc consts  --      0.6461                 1.7022                 0.7528
 IR Inten    --      2.5451                 1.1203                 4.4683

                     58                     59                     60
                      A                      A                      A
 Frequencies --    956.1249               964.0110               977.1083
 Red. masses --      1.5410                 1.3458                 2.4011
 Frc consts  --      0.8300                 0.7369                 1.3507
 IR Inten    --      4.0352                 3.1774                39.4227

                     61                     62                     63
                      A                      A                      A
 Frequencies --    999.8428              1012.0088              1039.6354
 Red. masses --      1.3766                 1.3109                 2.3558
 Frc consts  --      0.8108                 0.7910                 1.5002
 IR Inten    --      1.6248                 0.0009                 3.3206

                     64                     65                     66
                      A                      A                      A
 Frequencies --   1049.3492              1093.0043              1115.1624
 Red. masses --      2.3864                 2.2884                 2.2930
 Frc consts  --      1.5482                 1.6108                 1.6801
 IR Inten    --     52.7714               116.5681                 4.1547

                     67                     68                     69
                      A                      A                      A
 Frequencies --   1136.4838              1136.9367              1170.5534
 Red. masses --      2.1279                 2.1478                 2.4302
 Frc consts  --      1.6193                 1.6357                 1.9619
 IR Inten    --     18.2313                 2.3684                28.9019

                     70                     71                     72
                      A                      A                      A
 Frequencies --   1175.6904              1184.9774              1189.6870
 Red. masses --      1.2616                 1.7905                 2.0035
 Frc consts  --      1.0275                 1.4813                 1.6708
 IR Inten    --      3.6749                 0.0136                38.7560

                     73                     74                     75
                      A                      A                      A
 Frequencies --   1196.4852              1201.3248              1203.3218
 Red. masses --      2.2801                 2.4448                 1.4754
 Frc consts  --      1.9232                 2.0788                 1.2587
 IR Inten    --     10.4247                35.6584               242.7966

                     76                     77                     78
                      A                      A                      A
 Frequencies --   1260.5303              1274.9945              1299.4098
 Red. masses --      1.8248                 3.9974                 2.2057
 Frc consts  --      1.7084                 3.8286                 2.1942
 IR Inten    --      0.2679               571.0861               264.3070

                     79                     80                     81
                      A                      A                      A
 Frequencies --   1319.9889              1328.9005              1352.9200
 Red. masses --      1.9500                 2.2756                 2.0490
 Frc consts  --      2.0018                 2.3677                 2.2098
 IR Inten    --      0.2709               107.3419                47.3299

                     82                     83                     84
                      A                      A                      A
 Frequencies --   1358.8099              1359.6798              1361.1288
 Red. masses --      6.0476                 1.3439                 1.5398
 Frc consts  --      6.5789                 1.4638                 1.6808
 IR Inten    --      4.2506                25.4018                73.5778

                     85                     86                     87
                      A                      A                      A
 Frequencies --   1386.2206              1390.5605              1400.5027
 Red. masses --      1.4527                 1.9038                 1.2551
 Frc consts  --      1.6447                 2.1690                 1.4505
 IR Inten    --      7.2444                13.9160                13.7604

                     88                     89                     90
                      A                      A                      A
 Frequencies --   1400.6057              1413.1963              1420.5641
 Red. masses --      1.2569                 2.3877                 1.2788
 Frc consts  --      1.4528                 2.8095                 1.5205
 IR Inten    --     10.2830                79.8855                 0.1496

                     91                     92                     93
                      A                      A                      A
 Frequencies --   1421.1272              1435.4975              1483.7459
 Red. masses --      1.2503                 6.5186                 2.5373
 Frc consts  --      1.4877                 7.9143                 3.2911
 IR Inten    --     23.1202                31.4757                12.7724

                     94                     95                     96
                      A                      A                      A
 Frequencies --   1486.1208              1486.2679              1489.5446
 Red. masses --      1.0544                 1.0465                 1.0508
 Frc consts  --      1.3721                 1.3620                 1.3737
 IR Inten    --      7.0559                 0.0152                 1.4270

                     97                     98                     99
                      A                      A                      A
 Frequencies --   1489.7110              1498.1058              1500.0193
 Red. masses --      1.0564                 1.1167                 1.0540
 Frc consts  --      1.3813                 1.4767                 1.3973
 IR Inten    --      2.9574                 0.1148                16.3721

                    100                    101                    102
                      A                      A                      A
 Frequencies --   1506.3220              1508.8949              1510.5287
 Red. masses --      2.5530                 1.1088                 1.0563
 Frc consts  --      3.4129                 1.4874                 1.4200
 IR Inten    --      0.0138                15.7430                 2.4594

                    103                    104                    105
                      A                      A                      A
 Frequencies --   1526.2633              1551.6600              1599.1799
 Red. masses --      2.6288                 3.4245                 2.6156
 Frc consts  --      3.6080                 4.8579                 3.9411
 IR Inten    --      4.9135               482.7418               299.7843

                    106                    107                    108
                      A                      A                      A
 Frequencies --   1603.3561              1617.5350              1635.3933
 Red. masses --      4.2208                 4.7290                 3.4904
 Frc consts  --      6.3930                 7.2900                 5.5001
 IR Inten    --     97.6079               223.5048               311.0695

                    109                    110                    111
                      A                      A                      A
 Frequencies --   1652.0754              1680.8626              3010.0742
 Red. masses --      7.0217                 7.4666                 1.0834
 Frc consts  --     11.2915                12.4290                 5.7834
 IR Inten    --    141.5461                65.2123                15.5576

                    112                    113                    114
                      A                      A                      A
 Frequencies --   3010.4585              3023.6073              3023.6612
 Red. masses --      1.0834                 1.0351                 1.0351
 Frc consts  --      5.7851                 5.5754                 5.5756
 IR Inten    --     43.0166                24.8337                21.2510

                    115                    116                    117
                      A                      A                      A
 Frequencies --   3029.1413              3029.2323              3087.9359
 Red. masses --      1.0367                 1.0367                 1.1018
 Frc consts  --      5.6045                 5.6048                 6.1901
 IR Inten    --     52.1382                 1.8540                 3.7581

                    118                    119                    120
                      A                      A                      A
 Frequencies --   3087.9692              3095.3047              3095.3879
 Red. masses --      1.1018                 1.1005                 1.1004
 Frc consts  --      6.1902                 6.2120                 6.2122
 IR Inten    --      7.7570                55.5532                66.1119

                    121                    122                    123
                      A                      A                      A
 Frequencies --   3098.9544              3099.1418              3106.5304
 Red. masses --      1.1018                 1.1018                 1.1027
 Frc consts  --      6.2342                 6.2347                 6.2701
 IR Inten    --     35.1013                15.9098                36.3150

                    124                    125                    126
                      A                      A                      A
 Frequencies --   3106.5765              3165.0520              3180.6082
 Red. masses --      1.1027                 1.0868                 1.0925
 Frc consts  --      6.2702                 6.4145                 6.5116
 IR Inten    --     28.7814                 4.2416                21.6794

                    127                    128                    129
                      A                      A                      A
 Frequencies --   3194.9033              3203.2147              3205.3083
 Red. masses --      1.0858                 1.0920                 1.0937
 Frc consts  --      6.5303                 6.6018                 6.6206
 IR Inten    --      8.1756                 0.8252                14.5180

                    130                    131                    132
                      A                      A                      A
 Frequencies --   3211.8117              3403.2855              3407.1589
 Red. masses --      1.0937                 1.0796                 1.0794
 Frc consts  --      6.6471                 7.3676                 7.3825
 IR Inten    --     12.6698                50.0337                10.7071

 - Thermochemistry -
 -------------------
 Temperature   298.150 Kelvin.  Pressure   1.00000 Atm.
 Atom     1 has atomic number  6 and mass  12.00000

 Molecular mass:   322.16813 amu.
 Principal axes and moments of inertia in atomic units:
                           1         2         3
     Eigenvalues --  7811.771388278.12653**********
           X            0.14705   0.09056   0.98497
           Y           -0.57105   0.82086   0.00979
           Z            0.80764   0.56391  -0.17242
 This molecule is an asymmetric top.
 Rotational symmetry number  1.
 Warning -- assumption of classical behavior for rotation
           may cause significant error
 Rotational temperatures (Kelvin)      0.01109     0.01046     0.00559
 Rotational constants (GHZ):           0.23103     0.21801     0.11646
 Zero-point vibrational energy    1000223.8 (Joules/Mol)
                                  239.05923 (Kcal/Mol)
 Warning -- explicit consideration of  36 degrees of freedom as
           vibrations may cause significant error
 Vibrational temperatures:     41.67    51.43    54.58    83.24   100.10
          (Kelvin)            118.35   142.90   167.53   190.26   202.45
                              262.77   317.73   322.73   328.19   338.56
                              352.50   362.64   381.21   391.55   458.55
                              496.01   539.09   561.60   568.24   602.89
                              604.50   625.13   627.32   641.57   676.40
                              685.41   713.21   728.11   742.36   835.73
                              892.76   921.89   962.79   983.85   998.89
                             1011.64  1048.61  1067.21  1074.43  1133.43
                             1150.88  1168.75  1195.07  1202.97  1210.76
                             1259.12  1296.53  1308.60  1344.84  1345.37
                             1353.99  1370.88  1375.65  1387.00  1405.84
                             1438.55  1456.05  1495.80  1509.78  1572.59
                             1604.47  1635.15  1635.80  1684.17  1691.56
                             1704.92  1711.69  1721.48  1728.44  1731.31
                             1813.62  1834.43  1869.56  1899.17  1911.99
                             1946.55  1955.02  1956.28  1958.36  1994.46
                             2000.71  2015.01  2015.16  2033.27  2043.87
                             2044.69  2065.36  2134.78  2138.20  2138.41
                             2143.12  2143.36  2155.44  2158.19  2167.26
                             2170.96  2173.31  2195.95  2232.49  2300.86
                             2306.87  2327.27  2352.97  2376.97  2418.39
                             4330.83  4331.38  4350.30  4350.37  4358.26
                             4358.39  4442.85  4442.90  4453.45  4453.57
                             4458.70  4458.97  4469.60  4469.67  4553.80
                             4576.19  4596.75  4608.71  4611.72  4621.08
                             4896.57  4902.14

 Zero-point correction=                           0.380965 (Hartree/Particle)
 Thermal correction to Energy=                    0.403124
 Thermal correction to Enthalpy=                  0.404068
 Thermal correction to Gibbs Free Energy=         0.329446
 Sum of electronic and zero-point Energies=          -1035.272771
 Sum of electronic and thermal Energies=             -1035.250613
 Sum of electronic and thermal Enthalpies=           -1035.249668
 Sum of electronic and thermal Free Energies=        -1035.324290

                     E (Thermal)             CV                S
                      KCal/Mol        Cal/Mol-Kelvin    Cal/Mol-Kelvin
 Total                  252.964             86.809            157.055
 Electronic               0.000              0.000              0.000
 Translational            0.889              2.981             43.205
 Rotational               0.889              2.981             35.259
 Vibrational            251.187             80.847             78.591
 Vibration     1          0.593              1.984              5.899
 Vibration     2          0.594              1.982              5.482
 Vibration     3          0.594              1.982              5.364
 Vibration     4          0.596              1.974              4.529
 Vibration     5          0.598              1.969              4.165
 Vibration     6          0.600              1.961              3.836
 Vibration     7          0.604              1.950              3.468
 Vibration     8          0.608              1.936              3.159
 Vibration     9          0.612              1.921              2.913
 Vibration    10          0.615              1.913              2.794
 Vibration    11          0.630              1.863              2.301
 Vibration    12          0.648              1.809              1.952
 Vibration    13          0.649              1.804              1.924
 Vibration    14          0.651              1.798              1.894
 Vibration    15          0.655              1.787              1.838
 Vibration    16          0.660              1.771              1.766
 Vibration    17          0.664              1.759              1.716
 Vibration    18          0.671              1.737              1.629
 Vibration    19          0.675              1.725              1.583
 Vibration    20          0.705              1.638              1.317
 Vibration    21          0.723              1.586              1.190
 Vibration    22          0.746              1.524              1.061
 Vibration    23          0.758              1.491              0.999
 Vibration    24          0.762              1.481              0.981
 Vibration    25          0.782              1.429              0.895
 Vibration    26          0.783              1.426              0.891
 Vibration    27          0.795              1.395              0.844
 Vibration    28          0.796              1.392              0.839
 Vibration    29          0.805              1.370              0.808
 Vibration    30          0.827              1.316              0.737
 Vibration    31          0.833              1.302              0.720
 Vibration    32          0.851              1.260              0.669
 Vibration    33          0.861              1.237              0.643
 Vibration    34          0.871              1.215              0.619
 Vibration    35          0.938              1.073              0.484
 Vibration    36          0.981              0.989              0.416

                           ! Non-Optimized Parameters !
 Normal termination of Gaussian 16 at Thu Dec 28 01:28:56 2023.
