 Q-Chem 5.4, Q-Chem, Inc., Pleasanton, CA (2021)
 Q-Chem 5.4.0 for Intel X86 EM64T Linux

User input:
--------------------------------------------------------------
$molecule
-1 2
C                  1.5694990000      1.0952750000     -1.5704280000
C                  0.1589020000      0.8882210000     -1.3336050000
C                 -0.3197110000      0.1725150000     -0.2587660000
C                  0.5709240000     -0.4337220000      0.7271180000
C                  1.9855640000     -0.2172640000      0.4743260000
C                  2.4545630000      0.4928060000     -0.5923880000
O                  1.9968240000      1.7536200000     -2.5613180000
O                  0.1643030000     -1.0922380000      1.7164820000
C                 -1.7946830000     -0.0024660000     -0.0749480000
F                 -2.5240120000      0.6088300000     -1.0592410000
F                 -2.1940180000     -1.3032320000     -0.0919640000
F                 -2.2628710000      0.5196720000      1.0911750000
H                 -0.5212160000      1.3292260000     -2.0524960000
H                  2.6634500000     -0.6617870000      1.1975050000
H                  3.5206220000      0.6338660000     -0.7488530000
$end

$rem
BASIS  =  6-311++G(d,p)
GUI  =  2
JOB_TYPE  =  SP
METHOD  =  B3LYP
SCF_CONVERGENCE  = 8
SOLVENT_METHOD = sm12
$end

$smx
solvent dimethylformamide
charges CM5
$end

--------------------------------------------------------------

             Standard Nuclear Orientation (Angstroms)
    I     Atom           X                Y                Z
 ----------------------------------------------------------------
    1      C       1.5694990000     1.0952750000    -1.5704280000
    2      C       0.1589020000     0.8882210000    -1.3336050000
    3      C      -0.3197110000     0.1725150000    -0.2587660000
    4      C       0.5709240000    -0.4337220000     0.7271180000
    5      C       1.9855640000    -0.2172640000     0.4743260000
    6      C       2.4545630000     0.4928060000    -0.5923880000
    7      O       1.9968240000     1.7536200000    -2.5613180000
    8      O       0.1643030000    -1.0922380000     1.7164820000
    9      C      -1.7946830000    -0.0024660000    -0.0749480000
   10      F      -2.5240120000     0.6088300000    -1.0592410000
   11      F      -2.1940180000    -1.3032320000    -0.0919640000
   12      F      -2.2628710000     0.5196720000     1.0911750000
   13      H      -0.5212160000     1.3292260000    -2.0524960000
   14      H       2.6634500000    -0.6617870000     1.1975050000
   15      H       3.5206220000     0.6338660000    -0.7488530000
 ----------------------------------------------------------------

   17    -718.8018543334      7.54e-09  Convergence criterion met
 Total energy in the final basis set =     -718.8755881347

                    Orbital Energies (a.u.)
 --------------------------------------------------------------

 Alpha MOs
 -- Occupied --
-24.7029 -24.6991 -24.6990 -19.0829 -19.0818 -10.4202 -10.2332 -10.2272
-10.1924 -10.1829 -10.1776 -10.1768  -1.3039  -1.2154  -1.2143  -1.0074
 -1.0023  -0.8424  -0.7812  -0.7154  -0.6811  -0.6254  -0.6026  -0.5836
 -0.5767  -0.5310  -0.4834  -0.4741  -0.4649  -0.4616  -0.4474  -0.4294
 -0.4187  -0.4097  -0.4092  -0.4044  -0.4026  -0.3809  -0.3787  -0.3712
 -0.2927  -0.2777  -0.2469  -0.2429  -0.1722

 Beta MOs
 -- Occupied --
-24.7030 -24.6989 -24.6989 -19.0749 -19.0746 -10.4203 -10.2325 -10.2263
-10.1912 -10.1811 -10.1768 -10.1757  -1.3037  -1.2154  -1.2140  -0.9951
 -0.9883  -0.8363  -0.7784  -0.7103  -0.6743  -0.6225  -0.6003  -0.5831
 -0.5755  -0.5279  -0.4814  -0.4700  -0.4645  -0.4613  -0.4452  -0.4262
 -0.4173  -0.4058  -0.4029  -0.3996  -0.3932  -0.3761  -0.3691  -0.3495
 -0.2702  -0.2544  -0.2396  -0.2360

          Ground-State Mulliken Net Atomic Charges

     Atom                 Charge (a.u.)    Spin (a.u.)
  --------------------------------------------------------
      1 C                    -1.184421       0.079957
      2 C                    -0.550863       0.112047
      3 C                     0.499673       0.087425
      4 C                    -0.662167       0.034070
      5 C                    -0.013991       0.089569
      6 C                     0.244206       0.060041
      7 O                    -0.396385       0.285473
      8 O                    -0.355737       0.262599
      9 C                     1.123170       0.008761
     10 F                    -0.157755      -0.001264
     11 F                    -0.086305       0.002139
     12 F                    -0.086181       0.002128
     13 H                     0.175597      -0.010852
     14 H                     0.222702      -0.007491
     15 H                     0.228457      -0.004601
  --------------------------------------------------------
  Sum of atomic charges =    -1.000000

                    Cartesian Multipole Moments
 -----------------------------------------------------------------
    Charge (ESU x 10^10)
                -4.8032
    Dipole Moment (Debye)
         X      -1.6694      Y      -1.3934      Z       1.9325
       Tot       2.9091
    Quadrupole Moments (Debye-Ang)
        XX     -84.5184     XY      -8.4755     YY     -81.3694
        XZ      12.2680     YZ      14.5823     ZZ     -93.2654

 Total job time:  148.33s(wall), 1118.45s(cpu)
        *  Thank you very much for using Q-Chem.  Have a nice day.  *
