 Q-Chem 5.4, Q-Chem, Inc., Pleasanton, CA (2021)
 Q-Chem 5.4.0 for Intel X86 EM64T Linux

User input:
--------------------------------------------------------------
$molecule
-2 1
Cl                 3.1136260000      0.4024530000     -0.2431850000
C                  1.3505850000      0.1604930000      0.0939580000
C                  0.8003310000     -1.1300790000     -0.0323270000
Cl                 1.8693370000     -2.5590770000      0.2385070000
C                 -0.5900800000     -1.4123070000     -0.1841700000
O                 -1.0775780000     -2.5664710000     -0.2469190000
C                 -1.5241230000     -0.1982200000     -0.1206120000
O                 -2.7665560000     -0.3710970000     -0.1320750000
C                 -0.8858450000      1.0616790000      0.0821970000
C                  0.5076000000      1.2562480000      0.1511900000
Cl                 1.1783250000      2.9179980000     -0.1120290000
Cl                -1.9756230000      2.4387790000      0.4994670000
$end
$rem
MAX_SCF_CYCLES=200
BASIS  =  6-311++G(d,p)
GUI  =  2
JOB_TYPE  =  SP
METHOD  =  B3LYP
SOLVENT_METHOD = PCM
$end
$pcm
theory = CPCM
$end
$solvent
dielectric 37.219
opticaldielectric 1.43
$end

--------------------------------------------------------------

             Standard Nuclear Orientation (Angstroms)
    I     Atom           X                Y                Z
 ----------------------------------------------------------------
    1      Cl      3.1136260000     0.4024530000    -0.2431850000
    2      C       1.3505850000     0.1604930000     0.0939580000
    3      C       0.8003310000    -1.1300790000    -0.0323270000
    4      Cl      1.8693370000    -2.5590770000     0.2385070000
    5      C      -0.5900800000    -1.4123070000    -0.1841700000
    6      O      -1.0775780000    -2.5664710000    -0.2469190000
    7      C      -1.5241230000    -0.1982200000    -0.1206120000
    8      O      -2.7665560000    -0.3710970000    -0.1320750000
    9      C      -0.8858450000     1.0616790000     0.0821970000
   10      C       0.5076000000     1.2562480000     0.1511900000
   11      Cl      1.1783250000     2.9179980000    -0.1120290000
   12      Cl     -1.9756230000     2.4387790000     0.4994670000
 ----------------------------------------------------------------

    9   -2220.3356953672      4.88e-06  Convergence criterion met
 Total energy in the final basis set =    -2220.3356953672

                    Orbital Energies (a.u.)
 --------------------------------------------------------------

 Alpha MOs
 -- Occupied --
********-101.5440-101.5341-101.5340 -19.0500 -19.0499 -10.2203 -10.2197
-10.2086 -10.2084 -10.1991 -10.1990  -9.4581  -9.4580  -9.4482  -9.4481
 -7.2225  -7.2225  -7.2131  -7.2131  -7.2128  -7.2126  -7.2124  -7.2123
 -7.2035  -7.2034  -7.2029  -7.2028  -0.9911  -0.9627  -0.8879  -0.8487
 -0.8286  -0.8156  -0.7735  -0.6798  -0.6696  -0.5565  -0.5561  -0.4897
 -0.4621  -0.4269  -0.4167  -0.4046  -0.3975  -0.3827  -0.3760  -0.3638
 -0.3579  -0.3280  -0.3241  -0.3166  -0.3116  -0.3019  -0.2992  -0.2862
 -0.2717  -0.2400  -0.2116  -0.1996  -0.1541

          Ground-State Mulliken Net Atomic Charges

     Atom                 Charge (a.u.)
  ----------------------------------------
      1 Cl                    0.388320
      2 C                    -0.492703
      3 C                     0.377135
      4 Cl                    0.147296
      5 C                    -0.844995
      6 O                    -0.575903
      7 C                    -0.846548
      8 O                    -0.575102
      9 C                     0.381245
     10 C                    -0.492018
     11 Cl                    0.386527
     12 Cl                    0.146747
  ----------------------------------------
  Sum of atomic charges =    -2.000000

                    Cartesian Multipole Moments
 -----------------------------------------------------------------
    Charge (ESU x 10^10)
                -9.6064
    Dipole Moment (Debye)
         X       7.2888      Y       5.5858      Z       0.4730
       Tot       9.1952
    Quadrupole Moments (Debye-Ang)
        XX    -148.0690     XY      -5.8747     YY    -144.7177
        XZ      -1.1941     YZ      -2.8556     ZZ    -103.4048

 Total job time:  32.93s(wall), 109.78s(cpu)
        *  Thank you very much for using Q-Chem.  Have a nice day.  *
