 Gaussian 16, Revision A.03,
 Gaussian 16:  ES64L-G16RevA.03 25-Dec-2016

 --------------------------------------
 #P UB3LYP/6-311++G(d,p) nosym opt freq
 --------------------------------------

 -------
 Reduced
 -------
 Symbolic Z-matrix:
 Charge = -2 Multiplicity = 1

 SCF Done:  E(UB3LYP) =  -2220.06215526     A.U. after   22 cycles
 SCF Done:  E(UB3LYP) =  -2220.06216761     A.U. after   13 cycles
 SCF Done:  E(UB3LYP) =  -2220.06241770     A.U. after   24 cycles
 SCF Done:  E(UB3LYP) =  -2220.06268356     A.U. after   21 cycles
 SCF Done:  E(UB3LYP) =  -2220.06324150     A.U. after   20 cycles
 SCF Done:  E(UB3LYP) =  -2220.06334874     A.U. after   22 cycles
 SCF Done:  E(UB3LYP) =  -2220.06329199     A.U. after   21 cycles
 SCF Done:  E(UB3LYP) =  -2220.06391895     A.U. after   16 cycles
 SCF Done:  E(UB3LYP) =  -2220.06402204     A.U. after   16 cycles
 SCF Done:  E(UB3LYP) =  -2220.06404279     A.U. after   14 cycles
 SCF Done:  E(UB3LYP) =  -2220.06404459     A.U. after   14 cycles
 SCF Done:  E(UB3LYP) =  -2220.06404506     A.U. after   14 cycles
 Optimization completed.
    -- Stationary point found.
 Normal termination of Gaussian 16 at Fri Jan 12 19:42:01 2024.

 ----------------------------------------------------------------------
 #P Geom=AllCheck Guess=TCheck SCRF=Check GenChk UB3LYP/6-311++G(d,p) F
 req
 ----------------------------------------------------------------------

 Structure from the checkpoint file:  "317-an.chk"
 -------
 Reduced
 -------
 Charge = -2 Multiplicity = 1

                          Input orientation:
 ---------------------------------------------------------------------
 Center     Atomic      Atomic             Coordinates (Angstroms)
 Number     Number       Type             X           Y           Z
 ---------------------------------------------------------------------
      1         17           0        3.113626    0.402453   -0.243185
      2          6           0        1.350585    0.160493    0.093958
      3          6           0        0.800331   -1.130079   -0.032327
      4         17           0        1.869337   -2.559077    0.238507
      5          6           0       -0.590080   -1.412307   -0.184170
      6          8           0       -1.077578   -2.566471   -0.246919
      7          6           0       -1.524123   -0.198220   -0.120612
      8          8           0       -2.766556   -0.371097   -0.132075
      9          6           0       -0.885845    1.061679    0.082197
     10          6           0        0.507600    1.256248    0.151190
     11         17           0        1.178325    2.917998   -0.112029
     12         17           0       -1.975623    2.438779    0.499467
 ---------------------------------------------------------------------

 SCF Done:  E(UB3LYP) =  -2220.06404506     A.U. after    1 cycles

 Alpha  occ. eigenvalues -- -101.30185-101.30185-101.28364-101.28363 -18.78254
 Alpha  occ. eigenvalues --  -18.78252  -9.96802  -9.96746  -9.94729  -9.94708
 Alpha  occ. eigenvalues --   -9.94095  -9.94094  -9.21612  -9.21611  -9.19773
 Alpha  occ. eigenvalues --   -9.19772  -6.98028  -6.98028  -6.97135  -6.97134
 Alpha  occ. eigenvalues --   -6.97086  -6.97086  -6.96174  -6.96174  -6.95312
 Alpha  occ. eigenvalues --   -6.95311  -6.95254  -6.95254  -0.72163  -0.69289
 Alpha  occ. eigenvalues --   -0.63852  -0.59963  -0.57846  -0.56888  -0.52176
 Alpha  occ. eigenvalues --   -0.42542  -0.41338  -0.30035  -0.30033  -0.23056
 Alpha  occ. eigenvalues --   -0.21341  -0.17524  -0.16069  -0.15516  -0.13766
 Alpha  occ. eigenvalues --   -0.11632  -0.11491  -0.10748  -0.10519  -0.08207
 Alpha  occ. eigenvalues --   -0.07889  -0.06510  -0.06403  -0.04776  -0.04134
 Alpha  occ. eigenvalues --   -0.03401  -0.02144   0.03209   0.05776   0.06020
 Alpha  occ. eigenvalues --    0.10820
 Alpha virt. eigenvalues --    0.19135   0.21271   0.22743   0.23091   0.23889
 Alpha virt. eigenvalues --    0.26504   0.26512   0.27115   0.27680   0.27799
 Alpha virt. eigenvalues --    0.28564   0.28659   0.29117   0.29288   0.29880

  Beta  occ. eigenvalues -- -101.30185-101.30185-101.28364-101.28363 -18.78254
  Beta  occ. eigenvalues --  -18.78252  -9.96802  -9.96746  -9.94729  -9.94708
  Beta  occ. eigenvalues --   -9.94095  -9.94094  -9.21612  -9.21611  -9.19773
  Beta  occ. eigenvalues --   -9.19772  -6.98028  -6.98028  -6.97135  -6.97134
  Beta  occ. eigenvalues --   -6.97086  -6.97086  -6.96174  -6.96174  -6.95312
  Beta  occ. eigenvalues --   -6.95311  -6.95254  -6.95254  -0.72163  -0.69289
  Beta  occ. eigenvalues --   -0.63852  -0.59963  -0.57846  -0.56888  -0.52176
  Beta  occ. eigenvalues --   -0.42542  -0.41338  -0.30035  -0.30033  -0.23056
  Beta  occ. eigenvalues --   -0.21341  -0.17524  -0.16069  -0.15516  -0.13766
  Beta  occ. eigenvalues --   -0.11632  -0.11491  -0.10748  -0.10519  -0.08207
  Beta  occ. eigenvalues --   -0.07889  -0.06510  -0.06403  -0.04776  -0.04134
  Beta  occ. eigenvalues --   -0.03401  -0.02144   0.03209   0.05776   0.06020
  Beta  occ. eigenvalues --    0.10820
  Beta virt. eigenvalues --    0.19135   0.21271   0.22743   0.23091   0.23889
  Beta virt. eigenvalues --    0.26504   0.26512   0.27115   0.27680   0.27799
  Beta virt. eigenvalues --    0.28564   0.28659   0.29117   0.29288   0.29880

 Mulliken charges and spin densities:
               1          2
     1  Cl   0.421653   0.000000
     2  C   -0.543591  -0.000000
     3  C    0.541567  -0.000000
     4  Cl   0.074010   0.000000
     5  C   -1.085818   0.000000
     6  O   -0.407348  -0.000000
     7  C   -1.086005  -0.000000
     8  O   -0.407340   0.000000
     9  C    0.540907   0.000000
    10  C   -0.543592   0.000000
    11  Cl   0.421556  -0.000000
    12  Cl   0.074002   0.000000
 Sum of Mulliken charges =  -2.00000   0.00000

 Dipole moment (field-independent basis, Debye):
    X=              3.5148    Y=              2.6927    Z=              0.2117  Tot=              4.4327
 Quadrupole moment (field-independent basis, Debye-Ang):
   XX=           -152.8508   YY=           -151.2165   ZZ=           -104.7130
   XY=             -2.8430   XZ=             -0.0395   YZ=             -2.3518

  Exact polarizability: 225.957   4.550 223.862  -6.129   1.884  94.065
 Approx polarizability: 373.411  34.351 354.731  -0.349   9.521 141.377

                      1                      2                      3
                      A                      A                      A
 Frequencies --     57.0829                63.2129               102.5831
 Red. masses --     25.5804                28.5746                18.0754
 Frc consts  --      0.0491                 0.0673                 0.1121
 IR Inten    --      8.2075                 3.3354                 0.6643

                      4                      5                      6
                      A                      A                      A
 Frequencies --    155.7303               188.5689               197.5278
 Red. masses --     14.7160                29.3942                27.4745
 Frc consts  --      0.2103                 0.6158                 0.6316
 IR Inten    --      4.1312                 3.2529                10.0642

                      7                      8                      9
                      A                      A                      A
 Frequencies --    211.0231               243.0559               277.2519
 Red. masses --     31.8916                15.8799                19.2915
 Frc consts  --      0.8367                 0.5527                 0.8737
 IR Inten    --      0.9429                 0.0048                 0.3909

                     10                     11                     12
                      A                      A                      A
 Frequencies --    284.8546               320.6043               351.2968
 Red. masses --     25.6350                21.1899                14.9224
 Frc consts  --      1.2255                 1.2833                 1.0850
 IR Inten    --     14.6181                 3.6636                25.5359

                     13                     14                     15
                      A                      A                      A
 Frequencies --    369.3122               395.6035               453.4138
 Red. masses --     16.8095                16.0253                16.3143
 Frc consts  --      1.3508                 1.4777                 1.9761
 IR Inten    --     17.6496                98.8185                 0.5031

                     16                     17                     18
                      A                      A                      A
 Frequencies --    518.1193               576.7678               608.7535
 Red. masses --     12.1232                12.3230                13.8141
 Frc consts  --      1.9175                 2.4153                 3.0162
 IR Inten    --    199.2608                 9.1501               123.3247

                     19                     20                     21
                      A                      A                      A
 Frequencies --    682.9425               719.1103               781.5334
 Red. masses --     13.0109                12.7380                12.2294
 Frc consts  --      3.5754                 3.8810                 4.4010
 IR Inten    --    160.9725                67.5289                 1.5607

                     22                     23                     24
                      A                      A                      A
 Frequencies --    852.5435               874.4177              1157.0216
 Red. masses --     12.8693                12.3366                12.0461
 Frc consts  --      5.5111                 5.5575                 9.5013
 IR Inten    --     25.9971                67.9093                67.0959

                     25                     26                     27
                      A                      A                      A
 Frequencies --   1194.9116              1274.0974              1397.3991
 Red. masses --     12.2719                12.1508                12.1782
 Frc consts  --     10.3237                11.6214                14.0112
 IR Inten    --     53.8235               111.8123                 0.9331

                     28                     29                     30
                      A                      A                      A
 Frequencies --   1488.1001              1542.2800              1562.0804
 Red. masses --     12.0457                12.8334                13.0126
 Frc consts  --     15.7162                17.9854                18.7077
 IR Inten    --     21.5641               191.9883              1428.5320

 - Thermochemistry -
 -------------------
 Temperature   298.150 Kelvin.  Pressure   1.00000 Atm.
 Atom     1 has atomic number 17 and mass  34.96885

 Molecular mass:   243.86524 amu.
 Principal axes and moments of inertia in atomic units:
                           1         2         3
     Eigenvalues --  2674.362903639.371726218.93470
           X           -0.60924   0.79184   0.04257
           Y            0.79190   0.61034  -0.01940
           Z            0.04135  -0.02189   0.99890
 This molecule is an asymmetric top.
 Rotational symmetry number  1.
 Warning -- assumption of classical behavior for rotation
           may cause significant error
 Rotational temperatures (Kelvin)      0.03239     0.02380     0.01393
 Rotational constants (GHZ):           0.67483     0.49589     0.29020
 Zero-point vibrational energy     113054.3 (Joules/Mol)
                                   27.02062 (Kcal/Mol)
 Warning -- explicit consideration of  18 degrees of freedom as
           vibrations may cause significant error
 Vibrational temperatures:     82.13    90.95   147.59   224.06   271.31
          (Kelvin)            284.20   303.62   349.70   398.90   409.84
                              461.28   505.44   531.36   569.19   652.36
                              745.46   829.84   875.86   982.60  1034.64
                             1124.45  1226.62  1258.09  1664.70  1719.21
                             1833.14  2010.55  2141.04  2219.00  2247.49

 Zero-point correction=                           0.043060 (Hartree/Particle)
 Thermal correction to Energy=                    0.054668
 Thermal correction to Enthalpy=                  0.055612
 Thermal correction to Gibbs Free Energy=         0.003721
 Sum of electronic and zero-point Energies=          -2220.020985
 Sum of electronic and thermal Energies=             -2220.009377
 Sum of electronic and thermal Enthalpies=           -2220.008433
 Sum of electronic and thermal Free Energies=        -2220.060324

                     E (Thermal)             CV                S
                      KCal/Mol        Cal/Mol-Kelvin    Cal/Mol-Kelvin
 Total                   34.305             39.700            109.213
 Electronic               0.000              0.000              0.000
 Translational            0.889              2.981             42.375
 Rotational               0.889              2.981             32.470
 Vibrational             32.527             33.739             34.367
 Vibration     1          0.596              1.975              4.556
 Vibration     2          0.597              1.972              4.354
 Vibration     3          0.605              1.947              3.405
 Vibration     4          0.620              1.896              2.601
 Vibration     5          0.633              1.856              2.242
 Vibration     6          0.637              1.843              2.156
 Vibration     7          0.643              1.824              2.035
 Vibration     8          0.659              1.774              1.780
 Vibration     9          0.678              1.716              1.551
 Vibration    10          0.683              1.702              1.504
 Vibration    11          0.706              1.634              1.307
 Vibration    12          0.728              1.573              1.160
 Vibration    13          0.742              1.535              1.083
 Vibration    14          0.762              1.480              0.979
 Vibration    15          0.812              1.353              0.786
 Vibration    16          0.873              1.210              0.614
 Vibration    17          0.933              1.082              0.491
 Vibration    18          0.968              1.013              0.435

 Optimization completed.
    -- Stationary point found.
 Normal termination of Gaussian 16 at Fri Jan 12 19:46:18 2024.
