 Q-Chem 5.4, Q-Chem, Inc., Pleasanton, CA (2021)
 Q-Chem 5.4.0 for Intel X86 EM64T Linux

User input:
--------------------------------------------------------------
$molecule
0 1
C                 -3.0152980000      3.7702920000      0.4075160000
C                 -4.2718310000      3.1954110000      0.5225650000
C                 -4.4402810000      1.8096460000      0.4780320000
C                 -1.8952400000      2.9526560000      0.2493280000
C                 -2.0458720000      1.5557670000      0.2082560000
C                 -3.3239910000      0.9999730000      0.3233700000
C                 -0.5526240000      3.5927190000      0.1259500000
C                  0.6235830000      2.6870990000     -0.0286330000
C                  0.4706560000      1.2904550000     -0.0695020000
C                 -0.8719240000      0.6530030000      0.0410720000
C                  1.8952440000      3.2525740000     -0.1344790000
C                  3.0009250000      2.4286600000     -0.2802870000
C                  2.8665360000      1.0392960000     -0.3286470000
C                  1.6008680000      0.4807680000     -0.2203490000
O                 -0.4220420000      4.8049780000      0.1511600000
O                 -1.0047060000     -0.5595820000     -0.0037320000
H                 -3.4238710000     -0.0776150000      0.2870170000
H                  1.4662920000     -0.5931590000     -0.2529860000
H                 -2.8956840000      4.8456680000      0.4355640000
H                  2.0087280000      4.3285960000     -0.1057870000
H                  3.7383460000      0.4102140000     -0.4420300000
O                  4.2264400000      3.0602270000     -0.4589300000
C                  5.3279920000      2.6877740000      0.2816870000
C                  6.5099020000      3.5289450000     -0.1118440000
O                  5.3077680000      1.8252930000      1.1136050000
O                 -5.3500330000      4.0697280000      0.5984660000
H                  6.3012600000      4.5801160000      0.1004570000
H                  6.6910250000      3.4419940000     -1.1852820000
H                  7.3856610000      3.2045830000      0.4457130000
C                 -6.3171390000      3.9161480000      1.5689240000
C                 -7.3566460000      4.9918340000      1.4217110000
O                 -6.2950930000      3.0497310000      2.3966980000
H                 -5.4264930000      1.3764970000      0.5699120000
H                 -6.8952040000      5.9718630000      1.5639890000
H                 -8.1403050000      4.8402880000      2.1605960000
H                 -7.7771590000      4.9717290000      0.4140750000
$end
$rem
MAX_SCF_CYCLES=200
BASIS  =  6-311++G(d,p)
GUI  =  2
JOB_TYPE  =  SP
METHOD  =  B3LYP
SOLVENT_METHOD = PCM
$end
$pcm
theory = CPCM
$end
$solvent
dielectric 37.219
opticaldielectric 1.43
$end

--------------------------------------------------------------

             Standard Nuclear Orientation (Angstroms)
    I     Atom           X                Y                Z
 ----------------------------------------------------------------
    1      C      -3.0152980000     3.7702920000     0.4075160000
    2      C      -4.2718310000     3.1954110000     0.5225650000
    3      C      -4.4402810000     1.8096460000     0.4780320000
    4      C      -1.8952400000     2.9526560000     0.2493280000
    5      C      -2.0458720000     1.5557670000     0.2082560000
    6      C      -3.3239910000     0.9999730000     0.3233700000
    7      C      -0.5526240000     3.5927190000     0.1259500000
    8      C       0.6235830000     2.6870990000    -0.0286330000
    9      C       0.4706560000     1.2904550000    -0.0695020000
   10      C      -0.8719240000     0.6530030000     0.0410720000
   11      C       1.8952440000     3.2525740000    -0.1344790000
   12      C       3.0009250000     2.4286600000    -0.2802870000
   13      C       2.8665360000     1.0392960000    -0.3286470000
   14      C       1.6008680000     0.4807680000    -0.2203490000
   15      O      -0.4220420000     4.8049780000     0.1511600000
   16      O      -1.0047060000    -0.5595820000    -0.0037320000
   17      H      -3.4238710000    -0.0776150000     0.2870170000
   18      H       1.4662920000    -0.5931590000    -0.2529860000
   19      H      -2.8956840000     4.8456680000     0.4355640000
   20      H       2.0087280000     4.3285960000    -0.1057870000
   21      H       3.7383460000     0.4102140000    -0.4420300000
   22      O       4.2264400000     3.0602270000    -0.4589300000
   23      C       5.3279920000     2.6877740000     0.2816870000
   24      C       6.5099020000     3.5289450000    -0.1118440000
   25      O       5.3077680000     1.8252930000     1.1136050000
   26      O      -5.3500330000     4.0697280000     0.5984660000
   27      H       6.3012600000     4.5801160000     0.1004570000
   28      H       6.6910250000     3.4419940000    -1.1852820000
   29      H       7.3856610000     3.2045830000     0.4457130000
   30      C      -6.3171390000     3.9161480000     1.5689240000
   31      C      -7.3566460000     4.9918340000     1.4217110000
   32      O      -6.2950930000     3.0497310000     2.3966980000
   33      H      -5.4264930000     1.3764970000     0.5699120000
   34      H      -6.8952040000     5.9718630000     1.5639890000
   35      H      -8.1403050000     4.8402880000     2.1605960000
   36      H      -7.7771590000     4.9717290000     0.4140750000
 ----------------------------------------------------------------

    9   -1144.8655998835      4.73e-06  Convergence criterion met
 Total energy in the final basis set =    -1144.8655998835

                    Orbital Energies (a.u.)
 --------------------------------------------------------------

 Alpha MOs
 -- Occupied --
-19.1960 -19.1960 -19.1390 -19.1390 -19.1376 -19.1337 -10.3295 -10.3295
-10.2897 -10.2864 -10.2679 -10.2678 -10.2162 -10.2162 -10.2116 -10.2116
-10.2048 -10.2048 -10.2039 -10.2039 -10.2037 -10.2037 -10.1832 -10.1832
 -1.1358  -1.1358  -1.0727  -1.0685  -1.0574  -1.0574  -0.9017  -0.8906
 -0.8246  -0.7975  -0.7922  -0.7851  -0.7635  -0.7509  -0.7027  -0.6809
 -0.6740  -0.6333  -0.6312  -0.6056  -0.5920  -0.5541  -0.5433  -0.5241
 -0.5162  -0.5136  -0.5042  -0.5039  -0.5008  -0.4860  -0.4839  -0.4676
 -0.4622  -0.4611  -0.4603  -0.4557  -0.4536  -0.4378  -0.4345  -0.4252
 -0.4238  -0.4224  -0.4080  -0.4074  -0.3989  -0.3947  -0.3912  -0.3827
 -0.3826  -0.3691  -0.3497  -0.3466  -0.3097  -0.3092  -0.2937  -0.2897
 -0.2853  -0.2805  -0.2775  -0.2702

          Ground-State Mulliken Net Atomic Charges

     Atom                 Charge (a.u.)
  ----------------------------------------
      1 C                     0.045582
      2 C                    -0.571067
      3 C                    -0.008151
      4 C                     0.445939
      5 C                     0.331880
      6 C                     0.226184
      7 C                    -0.868434
      8 C                     0.453416
      9 C                     0.335136
     10 C                    -0.672898
     11 C                     0.038948
     12 C                    -0.586976
     13 C                     0.001167
     14 C                     0.227415
     15 O                    -0.265347
     16 O                    -0.279156
     17 H                     0.210432
     18 H                     0.210015
     19 H                     0.225329
     20 H                     0.225540
     21 H                     0.262153
     22 O                    -0.034625
     23 C                     0.184565
     24 C                    -0.577229
     25 O                    -0.296036
     26 O                    -0.034892
     27 H                     0.205307
     28 H                     0.205905
     29 H                     0.187498
     30 C                     0.185362
     31 C                    -0.577420
     32 O                    -0.296303
     33 H                     0.261958
     34 H                     0.205522
     35 H                     0.187526
     36 H                     0.205745
  ----------------------------------------
  Sum of atomic charges =    -0.000011

                    Cartesian Multipole Moments
 -----------------------------------------------------------------
    Charge (ESU x 10^10)
                -0.0001
    Dipole Moment (Debye)
         X      -0.0020      Y       3.3367      Z      -3.1698
       Tot       4.6024
    Quadrupole Moments (Debye-Ang)
        XX     -88.5067     XY      -7.2746     YY    -125.1930
        XZ      -3.7643     YZ      -1.1264     ZZ    -147.2866

 Total job time:  107.68s(wall), 653.44s(cpu)
        *  Thank you very much for using Q-Chem.  Have a nice day.  *
