 Gaussian 16, Revision A.03,
 Gaussian 16:  ES64L-G16RevA.03 25-Dec-2016

 ----------------------------------------------------------------
 #P UB3LYP/6-311++G(d,p) SCRF=(PCM,Solvent=n,n-DiMethylFormamide)
 ----------------------------------------------------------------

 ------------------
 Quinone PCM in DMF
 ------------------
 Symbolic Z-matrix:
 Charge =  0 Multiplicity = 1

                         Standard orientation:
 ---------------------------------------------------------------------
 Center     Atomic      Atomic             Coordinates (Angstroms)
 Number     Number       Type             X           Y           Z
 ---------------------------------------------------------------------
      1          6           0       -0.246808   -0.614615   -0.013256
      2          6           0       -1.526498    0.154922   -0.016393
      3          6           0       -1.429198    1.495545   -0.084913
      4          6           0       -0.143347    2.250733   -0.154997
      5          6           0        1.091761    1.503140   -0.153290
      6          6           0        1.071901    0.139737   -0.098081
      7          8           0       -0.202367   -1.833367    0.055240
      8          8           0       -0.185531    3.479315   -0.209294
      9          7           0        2.139749   -0.684435   -0.118844
     10          6           0        3.540324   -0.271589   -0.166213
     11          6           0        4.055179    0.148993    1.218920
     12          6           0        4.372868   -1.405508   -0.766994
     13          1           0        2.009608    2.074561   -0.198073
     14          1           0        1.915738   -1.669473   -0.040429
     15          1           0        3.597375    0.591612   -0.838937
     16          1           0        5.077703    0.529647    1.146245
     17          1           0        4.054700   -0.704818    1.902640
     18          1           0        3.430908    0.932819    1.652467
     19          1           0        5.422773   -1.112170   -0.831670
     20          1           0        4.024922   -1.661258   -1.770434
     21          1           0        4.316738   -2.302920   -0.141789
     22          6           0       -2.859455   -0.602378    0.058295
     23          6           0       -2.930403   -1.416852    1.373643
     24          6           0       -4.052628    0.370896    0.036848
     25          6           0       -2.995106   -1.551991   -1.157596
     26          1           0       -2.302264    2.135410   -0.092266
     27          1           0       -2.146620   -2.171330    1.424169
     28          1           0       -3.898094   -1.923205    1.437246
     29          1           0       -2.839894   -0.759215    2.243277
     30          1           0       -4.982049   -0.201462    0.089580
     31          1           0       -4.082243    0.963660   -0.881556
     32          1           0       -4.038852    1.056065    0.888925
     33          1           0       -2.213473   -2.310363   -1.166848
     34          1           0       -2.949897   -0.991188   -2.095894
     35          1           0       -3.963676   -2.059102   -1.118156
 ---------------------------------------------------------------------

 SCF Done:  E(UB3LYP) =  -712.233220886     A.U. after   16 cycles

 The electronic state is 1-A.
 Alpha  occ. eigenvalues --  -19.14690 -19.11571 -14.35359 -10.29402 -10.26558
 Alpha  occ. eigenvalues --  -10.24889 -10.22510 -10.21240 -10.20310 -10.20096
 Alpha  occ. eigenvalues --  -10.17455 -10.16896 -10.16598 -10.16193 -10.15982
 Alpha  occ. eigenvalues --  -10.15981  -1.08239  -1.04620  -0.96556  -0.86171
 Alpha  occ. eigenvalues --   -0.82289  -0.79157  -0.75460  -0.70165  -0.69861
 Alpha  occ. eigenvalues --   -0.68986  -0.68702  -0.64687  -0.61231  -0.60367
 Alpha  occ. eigenvalues --   -0.55046  -0.53570  -0.52084  -0.50174  -0.48192
 Alpha  occ. eigenvalues --   -0.47282  -0.46313  -0.45398  -0.44644  -0.44353
 Alpha  occ. eigenvalues --   -0.43707  -0.42780  -0.41521  -0.41153  -0.40868
 Alpha  occ. eigenvalues --   -0.39664  -0.39033  -0.38620  -0.38346  -0.37199
 Alpha  occ. eigenvalues --   -0.36739  -0.35853  -0.35443  -0.34332  -0.33860
 Alpha  occ. eigenvalues --   -0.33346  -0.29328  -0.28761  -0.26818  -0.23281
 Alpha virt. eigenvalues --   -0.12263  -0.01122  -0.00878  -0.00089   0.00514
 Alpha virt. eigenvalues --    0.00868   0.01552   0.01787   0.02032   0.02317
 Alpha virt. eigenvalues --    0.03394   0.03669   0.03748   0.03938   0.04782

  Beta  occ. eigenvalues --  -19.14690 -19.11571 -14.35359 -10.29402 -10.26558
  Beta  occ. eigenvalues --  -10.24889 -10.22510 -10.21240 -10.20310 -10.20096
  Beta  occ. eigenvalues --  -10.17455 -10.16896 -10.16598 -10.16193 -10.15982
  Beta  occ. eigenvalues --  -10.15981  -1.08239  -1.04620  -0.96556  -0.86171
  Beta  occ. eigenvalues --   -0.82289  -0.79157  -0.75460  -0.70165  -0.69861
  Beta  occ. eigenvalues --   -0.68986  -0.68702  -0.64687  -0.61231  -0.60367
  Beta  occ. eigenvalues --   -0.55046  -0.53570  -0.52084  -0.50174  -0.48192
  Beta  occ. eigenvalues --   -0.47282  -0.46313  -0.45398  -0.44644  -0.44353
  Beta  occ. eigenvalues --   -0.43707  -0.42780  -0.41521  -0.41153  -0.40868
  Beta  occ. eigenvalues --   -0.39664  -0.39033  -0.38620  -0.38346  -0.37199
  Beta  occ. eigenvalues --   -0.36739  -0.35853  -0.35443  -0.34332  -0.33860
  Beta  occ. eigenvalues --   -0.33346  -0.29328  -0.28761  -0.26818  -0.23281
  Beta virt. eigenvalues --   -0.12263  -0.01122  -0.00878  -0.00089   0.00514
  Beta virt. eigenvalues --    0.00868   0.01552   0.01787   0.02032   0.02317
  Beta virt. eigenvalues --    0.03394   0.03669   0.03748   0.03938   0.04782

 Mulliken charges and spin densities:
               1          2
     1  C   -1.473716  -0.000000
     2  C    1.228424   0.000000
     3  C   -0.476641  -0.000000
     4  C   -0.487069   0.000000
     5  C    1.036950   0.000000
     6  C   -0.286661  -0.000000
     7  O   -0.220021   0.000000
     8  O   -0.363355   0.000000
     9  N   -0.014187  -0.000000
    10  C   -0.034893  -0.000000
    11  C   -0.479623   0.000000
    12  C   -0.544788  -0.000000
    13  H    0.237195   0.000000
    14  H    0.359282   0.000000
    15  H    0.164879  -0.000000
    16  H    0.153668  -0.000000
    17  H    0.164705  -0.000000
    18  H    0.146842  -0.000000
    19  H    0.172110   0.000000
    20  H    0.160325  -0.000000
    21  H    0.152661   0.000000
    22  C    0.544833  -0.000000
    23  C   -0.674523   0.000000
    24  C   -0.466925  -0.000000
    25  C   -0.683214   0.000000
    26  H    0.234338   0.000000
    27  H    0.181656  -0.000000
    28  H    0.163155  -0.000000
    29  H    0.147439  -0.000000
    30  H    0.182894   0.000000
    31  H    0.141156  -0.000000
    32  H    0.141545  -0.000000
    33  H    0.178981   0.000000
    34  H    0.149084  -0.000000
    35  H    0.163497  -0.000000
 Sum of Mulliken charges =  -0.00000  -0.00000

 Dipole moment (field-independent basis, Debye):
    X=              2.2925    Y=             -4.6292    Z=              0.1610  Tot=              5.1683
 Quadrupole moment (field-independent basis, Debye-Ang):
   XX=            -75.3220   YY=           -123.6514   ZZ=            -99.1409
   XY=             -2.1488   XZ=             -0.7477   YZ=              1.4846

 Normal termination of Gaussian 16 at Wed Jan 24 22:52:34 2024.
