 Gaussian 16, Revision A.03,
 Gaussian 16:  ES64L-G16RevA.03 25-Dec-2016

 ----------------------------------------------------------------------
 #P UB3LYP/6-311++G(d,p) nosym opt freq SCRF=(PCM,Solvent=n,n-DiMethylF
 ormamide)
 ----------------------------------------------------------------------

 --------
 Oxidized
 --------
 Symbolic Z-matrix:
 Charge =  0 Multiplicity = 1

 SCF Done:  E(UB3LYP) =  -1124.22504385     A.U. after   16 cycles
 SCF Done:  E(UB3LYP) =  -1124.22530697     A.U. after   14 cycles
 SCF Done:  E(UB3LYP) =  -1124.22505318     A.U. after   14 cycles
 SCF Done:  E(UB3LYP) =  -1124.22541737     A.U. after   14 cycles
 SCF Done:  E(UB3LYP) =  -1124.22541958     A.U. after   11 cycles
 SCF Done:  E(UB3LYP) =  -1124.22541972     A.U. after   10 cycles
 Optimization completed.
    -- Stationary point found.
 Normal termination of Gaussian 16 at Sun Feb 11 15:38:51 2024.

 ----------------------------------------------------------------------
 #P Geom=AllCheck Guess=TCheck SCRF=Check GenChk UB3LYP/6-311++G(d,p) F
 req
 ----------------------------------------------------------------------

 Structure from the checkpoint file:  "339.chk"
 --------
 Oxidized
 --------
 Charge =  0 Multiplicity = 1

                          Input orientation:
 ---------------------------------------------------------------------
 Center     Atomic      Atomic             Coordinates (Angstroms)
 Number     Number       Type             X           Y           Z
 ---------------------------------------------------------------------
      1          8           0       -0.018002   -2.360765   -0.747432
      2          6           0       -0.019870   -1.243069   -0.256135
      3          6           0        1.270084   -0.570043    0.091207
      4          6           0        2.429229   -1.352319    0.162213
      5          6           0        3.645168   -0.790533    0.535876
      6          6           0        3.725669    0.566002    0.850158
      7          6           0        2.587685    1.367512    0.783896
      8          6           0        1.378840    0.791887    0.408998
      9         16           0       -0.020860    1.889276    0.195621
     10          8           0       -0.013992    2.392434   -1.190620
     11          6           0       -1.423382    0.792978    0.395534
     12          6           0       -2.635343    1.369529    0.758772
     13          6           0       -3.774410    0.568770    0.814645
     14          6           0       -3.691810   -0.787955    0.501720
     15          6           0       -2.472783   -1.350641    0.139657
     16          6           0       -1.312519   -0.569131    0.079247
     17          1           0        2.353418   -2.407347   -0.067107
     18          1           0        4.530411   -1.412315    0.589833
     19          1           0        4.670528    1.002740    1.149671
     20          1           0        2.639974    2.421893    1.024333
     21          1           0       -2.689205    2.424036    0.998294
     22          1           0       -4.721767    1.006228    1.105078
     23          1           0       -4.577905   -1.409167    0.547642
     24          1           0       -2.395491   -2.405788   -0.088624
     25          8           0       -0.025615    2.889573    1.274605
 ---------------------------------------------------------------------

 SCF Done:  E(UB3LYP) =  -1124.22541972     A.U. after    2 cycles

 Alpha  occ. eigenvalues --  -89.07643 -19.14178 -19.14083 -19.13876 -10.29844
 Alpha  occ. eigenvalues --  -10.24217 -10.24217 -10.22709 -10.22709 -10.21516
 Alpha  occ. eigenvalues --  -10.21516 -10.20984 -10.20984 -10.20950 -10.20950
 Alpha  occ. eigenvalues --  -10.20605 -10.20605  -8.14076  -6.10323  -6.10233
 Alpha  occ. eigenvalues --   -6.10214  -1.13405  -1.07682  -1.02593  -0.91042
 Alpha  occ. eigenvalues --   -0.89904  -0.82576  -0.79943  -0.79351  -0.78695
 Alpha  occ. eigenvalues --   -0.72096  -0.68554  -0.66021  -0.63476  -0.61774
 Alpha  occ. eigenvalues --   -0.58266  -0.58206  -0.53246  -0.51206  -0.50304
 Alpha  occ. eigenvalues --   -0.50257  -0.49612  -0.48397  -0.47039  -0.46468
 Alpha  occ. eigenvalues --   -0.46275  -0.46089  -0.44763  -0.41201  -0.41064
 Alpha  occ. eigenvalues --   -0.39732  -0.39369  -0.38974  -0.38946  -0.35722
 Alpha  occ. eigenvalues --   -0.35281  -0.33917  -0.32418  -0.29693  -0.29533
 Alpha  occ. eigenvalues --   -0.29079  -0.28791  -0.28686
 Alpha virt. eigenvalues --   -0.11445  -0.06521  -0.05048  -0.04115  -0.00983
 Alpha virt. eigenvalues --    0.00121   0.00809   0.01338   0.01662   0.02054
 Alpha virt. eigenvalues --    0.02550   0.03349   0.03527   0.03984   0.04777

  Beta  occ. eigenvalues --  -89.07643 -19.14178 -19.14083 -19.13876 -10.29844
  Beta  occ. eigenvalues --  -10.24217 -10.24217 -10.22709 -10.22709 -10.21516
  Beta  occ. eigenvalues --  -10.21516 -10.20984 -10.20984 -10.20950 -10.20950
  Beta  occ. eigenvalues --  -10.20605 -10.20605  -8.14076  -6.10323  -6.10233
  Beta  occ. eigenvalues --   -6.10214  -1.13405  -1.07682  -1.02593  -0.91042
  Beta  occ. eigenvalues --   -0.89904  -0.82576  -0.79943  -0.79351  -0.78695
  Beta  occ. eigenvalues --   -0.72096  -0.68554  -0.66021  -0.63476  -0.61774
  Beta  occ. eigenvalues --   -0.58266  -0.58206  -0.53246  -0.51206  -0.50304
  Beta  occ. eigenvalues --   -0.50257  -0.49612  -0.48397  -0.47039  -0.46468
  Beta  occ. eigenvalues --   -0.46275  -0.46089  -0.44763  -0.41201  -0.41064
  Beta  occ. eigenvalues --   -0.39732  -0.39369  -0.38974  -0.38946  -0.35722
  Beta  occ. eigenvalues --   -0.35281  -0.33917  -0.32418  -0.29693  -0.29533
  Beta  occ. eigenvalues --   -0.29079  -0.28791  -0.28686
  Beta virt. eigenvalues --   -0.11445  -0.06521  -0.05048  -0.04115  -0.00983
  Beta virt. eigenvalues --    0.00121   0.00809   0.01338   0.01662   0.02054
  Beta virt. eigenvalues --    0.02550   0.03349   0.03527   0.03984   0.04777

 Mulliken charges and spin densities:
               1          2
     1  O   -0.248727   0.000000
     2  C   -0.673685  -0.000000
     3  C    2.118608   0.000000
     4  C    0.210261  -0.000000
     5  C   -0.558211   0.000000
     6  C   -0.059319  -0.000000
     7  C   -0.320541  -0.000000
     8  C   -1.956793   0.000000
     9  S    0.579820   0.000000
    10  O   -0.065907   0.000000
    11  C   -1.957213   0.000000
    12  C   -0.320663  -0.000000
    13  C   -0.058988  -0.000000
    14  C   -0.558337  -0.000000
    15  C    0.210216  -0.000000
    16  C    2.119662   0.000000
    17  H    0.210384  -0.000000
    18  H    0.214182   0.000000
    19  H    0.221248  -0.000000
    20  H    0.239117   0.000000
    21  H    0.239142   0.000000
    22  H    0.221251  -0.000000
    23  H    0.214170   0.000000
    24  H    0.210384  -0.000000
    25  O   -0.230059   0.000000
 Sum of Mulliken charges =  -0.00000  -0.00000

 Dipole moment (field-independent basis, Debye):
    X=             -0.0169    Y=             -3.4348    Z=              3.3204  Tot=              4.7774
 Quadrupole moment (field-independent basis, Debye-Ang):
   XX=            -63.4018   YY=           -120.5406   ZZ=           -113.5146
   XY=              0.0515   XZ=              0.1678   YZ=             -0.6641

  Exact polarizability: 328.416  -0.162 268.009   0.863  28.893 146.842
 Approx polarizability: 352.402  -0.215 336.320   0.804  43.800 184.631

                      1                      2                      3
                      A                      A                      A
 Frequencies --     31.4358                97.2910               100.6366
 Red. masses --      7.5067                 4.3675                 5.6786
 Frc consts  --      0.0044                 0.0244                 0.0339
 IR Inten    --     12.7426                 0.0070                 1.1435

                      4                      5                      6
                      A                      A                      A
 Frequencies --    133.9775               162.5816               208.2941
 Red. masses --      7.1482                 7.1777                 5.5394
 Frc consts  --      0.0756                 0.1118                 0.1416
 IR Inten    --      1.0967                 1.5298                 1.2066

                      7                      8                      9
                      A                      A                      A
 Frequencies --    243.7326               286.4185               304.0883
 Red. masses --      7.7976                 6.0047                 7.6307
 Frc consts  --      0.2729                 0.2902                 0.4157
 IR Inten    --      7.2834                 3.1019                 2.0654

                     10                     11                     12
                      A                      A                      A
 Frequencies --    334.1058               334.9024               363.2552
 Red. masses --      7.8182                 7.6689                 6.8474
 Frc consts  --      0.5142                 0.5068                 0.5323
 IR Inten    --     20.4387                 4.3587                 7.1979

                     13                     14                     15
                      A                      A                      A
 Frequencies --    397.0292               412.4845               450.0182
 Red. masses --      9.0487                 3.8866                 3.6041
 Frc consts  --      0.8404                 0.3896                 0.4300
 IR Inten    --     31.1065                 1.8573                 6.0949

                     16                     17                     18
                      A                      A                      A
 Frequencies --    494.2431               508.5470               545.1784
 Red. masses --      4.2689                10.3710                 5.1382
 Frc consts  --      0.6144                 1.5803                 0.8998
 IR Inten    --      2.6651                66.6303                65.3347

                     19                     20                     21
                      A                      A                      A
 Frequencies --    586.1475               594.3007               643.7301
 Red. masses --     10.7907                 6.6398                 7.0635
 Frc consts  --      2.1843                 1.3817                 1.7245
 IR Inten    --    136.8560                12.1414                 3.2484

                     22                     23                     24
                      A                      A                      A
 Frequencies --    671.0605               690.8057               716.7732
 Red. masses --      6.3234                 4.0605                 4.4766
 Frc consts  --      1.6777                 1.1417                 1.3551
 IR Inten    --      2.5187                62.7247                40.8419

                     25                     26                     27
                      A                      A                      A
 Frequencies --    749.0017               762.9049               770.2292
 Red. masses --      5.3554                 1.7845                 6.5187
 Frc consts  --      1.7702                 0.6119                 2.2785
 IR Inten    --    144.1601               101.5351                 2.5552

                     28                     29                     30
                      A                      A                      A
 Frequencies --    776.8256               819.4313               899.0258
 Red. masses --      1.2984                 2.4320                 1.3295
 Frc consts  --      0.4616                 0.9621                 0.6331
 IR Inten    --      1.5160                27.1269                 0.0058

                     31                     32                     33
                      A                      A                      A
 Frequencies --    908.5596               935.8897               992.1843
 Red. masses --      1.4628                 6.7879                 1.3712
 Frc consts  --      0.7114                 3.5030                 0.7953
 IR Inten    --      1.5471                94.9356                 1.4232

                     34                     35                     36
                      A                      A                      A
 Frequencies --    994.7550              1022.2126              1023.1030
 Red. masses --      1.3936                 1.3362                 1.3414
 Frc consts  --      0.8125                 0.8226                 0.8273
 IR Inten    --      3.5820                 2.1897                 0.6844

                     37                     38                     39
                      A                      A                      A
 Frequencies --   1034.8443              1054.3403              1057.4050
 Red. masses --     10.2166                 2.5482                 2.9070
 Frc consts  --      6.4462                 1.6690                 1.9150
 IR Inten    --    175.7766                13.8072                 3.4892

                     40                     41                     42
                      A                      A                      A
 Frequencies --   1080.3624              1105.9956              1145.0452
 Red. masses --      2.7824                 5.8306                 1.8446
 Frc consts  --      1.9134                 4.2021                 1.4250
 IR Inten    --      6.0732               200.0990               140.9248

                     43                     44                     45
                      A                      A                      A
 Frequencies --   1148.3892              1181.7393              1187.4960
 Red. masses --      1.8599                 1.7767                 1.1199
 Frc consts  --      1.4451                 1.4619                 0.9304
 IR Inten    --     41.1010                31.1332                 0.0974

                     46                     47                     48
                      A                      A                      A
 Frequencies --   1190.6439              1217.3007              1252.0971
 Red. masses --      1.3687                17.1639                 1.7924
 Frc consts  --      1.1432                14.9852                 1.6556
 IR Inten    --      5.6032               380.9966               162.2241

                     49                     50                     51
                      A                      A                      A
 Frequencies --   1288.4091              1307.7316              1336.7340
 Red. masses --      1.5689                 2.8115                 7.5517
 Frc consts  --      1.5345                 2.8328                 7.9503
 IR Inten    --      2.7858               417.4693                11.7697

                     52                     53                     54
                      A                      A                      A
 Frequencies --   1347.3265              1469.1657              1470.4084
 Red. masses --      7.9280                 2.0923                 2.1003
 Frc consts  --      8.4793                 2.6609                 2.6755
 IR Inten    --      3.1698                33.2011                 4.3709

                     55                     56                     57
                      A                      A                      A
 Frequencies --   1490.2657              1500.2318              1600.1339
 Red. masses --      2.4726                 2.4040                 5.6806
 Frc consts  --      3.2354                 3.1879                 8.5695
 IR Inten    --      1.1255                 2.3280                 4.1172

                     58                     59                     60
                      A                      A                      A
 Frequencies --   1603.8399              1620.0144              1627.8971
 Red. masses --      5.7219                 5.6323                 6.4292
 Frc consts  --      8.6719                 8.7091                10.0383
 IR Inten    --     91.8401                53.3280                26.2697

                     61                     62                     63
                      A                      A                      A
 Frequencies --   1702.4534              3186.3423              3186.3850
 Red. masses --     12.2966                 1.0877                 1.0877
 Frc consts  --     20.9985                 6.5062                 6.5065
 IR Inten    --    463.9648                 0.1777                 4.9278

                     64                     65                     66
                      A                      A                      A
 Frequencies --   3196.6833              3196.8235              3205.2331
 Red. masses --      1.0906                 1.0908                 1.0939
 Frc consts  --      6.5664                 6.5678                 6.6214
 IR Inten    --      5.8235                 0.3827                 4.0654

                     67                     68                     69
                      A                      A                      A
 Frequencies --   3205.5147              3209.8637              3210.3054
 Red. masses --      1.0941                 1.0960                 1.0961
 Frc consts  --      6.6235                 6.6531                 6.6556
 IR Inten    --      0.1624                23.2085                 1.0616

 - Thermochemistry -
 -------------------
 Temperature   298.150 Kelvin.  Pressure   1.00000 Atm.
 Atom     1 has atomic number  8 and mass  15.99491

 Molecular mass:   244.01942 amu.
 Principal axes and moments of inertia in atomic units:
                           1         2         3
     Eigenvalues --  2379.084364457.642676259.49510
           X            0.99999  -0.00027  -0.00470
           Y           -0.00037   0.99085  -0.13497
           Z            0.00470   0.13497   0.99084
 This molecule is an asymmetric top.
 Rotational symmetry number  1.
 Warning -- assumption of classical behavior for rotation
           may cause significant error
 Rotational temperatures (Kelvin)      0.03641     0.01943     0.01384
 Rotational constants (GHZ):           0.75859     0.40486     0.28832
 Zero-point vibrational energy     470028.2 (Joules/Mol)
                                  112.33944 (Kcal/Mol)
 Warning -- explicit consideration of  20 degrees of freedom as
           vibrations may cause significant error
 Vibrational temperatures:     45.23   139.98   144.79   192.76   233.92
          (Kelvin)            299.69   350.68   412.09   437.52   480.70
                              481.85   522.64   571.24   593.47   647.48
                              711.11   731.69   784.39   843.34   855.07
                              926.18   965.51   993.92  1031.28  1077.65
                             1097.65  1108.19  1117.68  1178.98  1293.50
                             1307.21  1346.54  1427.53  1431.23  1470.74
                             1472.02  1488.91  1516.96  1521.37  1554.40
                             1591.28  1647.46  1652.28  1700.26  1708.54
                             1713.07  1751.42  1801.49  1853.73  1881.53
                             1923.26  1938.50  2113.80  2115.59  2144.16
                             2158.50  2302.24  2307.57  2330.84  2342.18
                             2449.45  4584.44  4584.50  4599.31  4599.52
                             4611.62  4612.02  4618.28  4618.91

 Zero-point correction=                           0.179024 (Hartree/Particle)
 Thermal correction to Energy=                    0.191896
 Thermal correction to Enthalpy=                  0.192840
 Thermal correction to Gibbs Free Energy=         0.139194
 Sum of electronic and zero-point Energies=          -1124.046395
 Sum of electronic and thermal Energies=             -1124.033524
 Sum of electronic and thermal Enthalpies=           -1124.032579
 Sum of electronic and thermal Free Energies=        -1124.086225

                     E (Thermal)             CV                S
                      KCal/Mol        Cal/Mol-Kelvin    Cal/Mol-Kelvin
 Total                  120.417             51.418            112.907
 Electronic               0.000              0.000              0.000
 Translational            0.889              2.981             42.377
 Rotational               0.889              2.981             32.562
 Vibrational            118.639             45.456             37.968
 Vibration     1          0.594              1.983              5.737
 Vibration     2          0.603              1.951              3.508
 Vibration     3          0.604              1.949              3.442
 Vibration     4          0.613              1.919              2.888
 Vibration     5          0.623              1.888              2.520
 Vibration     6          0.642              1.828              2.059
 Vibration     7          0.659              1.773              1.775
 Vibration     8          0.684              1.699              1.495
 Vibration     9          0.695              1.666              1.394
 Vibration    10          0.716              1.607              1.240
 Vibration    11          0.716              1.606              1.236
 Vibration    12          0.737              1.548              1.108
 Vibration    13          0.764              1.477              0.974
 Vibration    14          0.776              1.443              0.918
 Vibration    15          0.809              1.361              0.796
 Vibration    16          0.850              1.263              0.673
 Vibration    17          0.864              1.231              0.637
 Vibration    18          0.900              1.150              0.554
 Vibration    19          0.943              1.061              0.474
 Vibration    20          0.952              1.044              0.460

 Optimization completed.
    -- Stationary point found.
 Normal termination of Gaussian 16 at Sun Feb 11 16:45:24 2024.
