 Q-Chem 5.4, Q-Chem, Inc., Pleasanton, CA (2021)
 Q-Chem 5.4.0 for Intel X86 EM64T Linux

User input:
--------------------------------------------------------------
$molecule
-2 1
C                 -2.0775870000      2.9962350000      0.4624520000
C                 -2.8193860000      2.3165150000      1.4088860000
C                 -2.3543390000      1.0796740000      1.9184610000
C                 -0.8473540000      2.4839530000     -0.0202050000
C                 -0.3723670000      1.2265510000      0.4987930000
C                 -1.1525500000      0.5605780000      1.4616310000
C                 -0.0863110000      3.1972250000     -1.0054340000
C                  1.1405220000      2.5819100000     -1.4170610000
C                  1.6299420000      1.3700960000     -0.9456630000
C                  0.8937140000      0.6310770000      0.0491940000
O                 -0.4094290000      4.3284310000     -1.5454470000
O                  1.3101430000     -0.4792760000      0.5117500000
H                 -2.4144890000      3.9452820000      0.0580360000
H                 -3.7606030000      2.7309450000      1.7637020000
H                 -2.9360820000      0.5426880000      2.6636220000
H                 -0.7686240000     -0.3838350000      1.8338810000
C                  2.9277280000      0.7985850000     -1.4577880000
O                  1.8172370000      3.3162910000     -2.3613410000
H                  3.1086040000      1.1531060000     -2.4791140000
H                  2.8299800000     -0.2928240000     -1.4817310000
H                  1.2002660000      4.0810780000     -2.4620390000
C                  4.1512890000      1.1490100000     -0.5867970000
C                  5.4568160000      0.5332980000     -1.1057380000
C                  6.6936960000      0.8795700000     -0.2664370000
H                  3.9576970000      0.7997750000      0.4331790000
H                  4.2547030000      2.2400550000     -0.5393990000
H                  5.6246120000      0.8618080000     -2.1413660000
H                  5.3455620000     -0.5588670000     -1.1479740000
H                  6.5305980000      0.5495980000      0.7680340000
H                  6.8041170000      1.9713960000     -0.2215160000
C                  7.9958180000      0.2631460000     -0.7945810000
C                  9.2387670000      0.6153350000      0.0329970000
C                 10.5377810000     -0.0004010000     -0.5026990000
C                 11.7829080000      0.3556040000      0.3200110000
C                 13.0798620000     -0.2606090000     -0.2195870000
C                 14.3251970000      0.0987950000      0.6015470000
C                 15.6189900000     -0.5156510000      0.0591510000
H                  8.1521470000      0.5874270000     -1.8324150000
H                  7.8870980000     -0.8291220000     -0.8334120000
H                  9.0858150000      0.2894270000      1.0704510000
H                  9.3473460000      1.7074520000      0.0729290000
H                 10.6885960000      0.3228190000     -1.5414170000
H                 10.4309720000     -1.0927700000     -0.5399330000
H                 11.6340210000      0.0316010000      1.3586670000
H                 11.8906240000      1.4478620000      0.3568050000
H                 13.2301000000      0.0614530000     -1.2584060000
H                 12.9761200000     -1.3530400000     -0.2548650000
H                 14.1773280000     -0.2239870000      1.6400960000
H                 14.4294540000      1.1907840000      0.6382420000
H                 15.5685980000     -1.6105090000      0.0462680000
H                 16.4858910000     -0.2382010000      0.6685270000
H                 15.8227660000     -0.1823510000     -0.9649690000
$end
$rem
MAX_SCF_CYCLES=200
BASIS  =  6-311++G(d,p)
GUI  =  2
JOB_TYPE  =  SP
THRESH = 14
SCF_CONVERGENCE  = 6
METHOD  =  B3LYP
SOLVENT_METHOD = COSMO
$end
$solvent
dielectric 37.219
opticaldielectric 1.43
$end

--------------------------------------------------------------

             Standard Nuclear Orientation (Angstroms)
    I     Atom           X                Y                Z
 ----------------------------------------------------------------
    1      C       6.8253262109    -0.0736951196     0.9887047220
    2      C       7.4610253974     1.1502960133     1.0645638147
    3      C       6.8138347135     2.3151779190     0.5850792824
    4      C       5.5258906656    -0.1989080032     0.4367510473
    5      C       4.8657679693     0.9858076625    -0.0497858794
    6      C       5.5416746080     2.2162036307     0.0426183503
    7      C       4.8760458796    -1.4758225405     0.3605237902
    8      C       3.5645875784    -1.4790215489    -0.2167416917
    9      C       2.8968634444    -0.3613278004    -0.7016605993
   10      C       3.5182777152     0.9376047142    -0.6342823591
   11      O       5.3663133581    -2.6051581563     0.7603802183
   12      O       2.9383668019     1.9871608579    -1.0613539967
   13      H       7.3021089352    -0.9792625624     1.3497743927
   14      H       8.4585556726     1.2202935399     1.4930142274
   15      H       7.3117866153     3.2798758431     0.6437786597
   16      H       5.0188653840     3.0905493695    -0.3316478583
   17      C       1.5212050023    -0.4744028486    -1.3082273514
   18      O       3.0017068150    -2.7321132070    -0.2597522170
   19      H       1.3882300462    -1.4750893945    -1.7353715459
   20      H       1.4475952545     0.2608189607    -2.1177531633
   21      H       3.7292692851    -3.2637212200     0.1448935910
   22      C       0.3752972919    -0.2036479603    -0.3121792435
   23      C      -1.0149532224    -0.2923653949    -0.9541562684
   24      C      -2.1749587435    -0.0431213283     0.0187091833
   25      H       0.5216430825     0.7937384655     0.1163032128
   26      H       0.4434722030    -0.9221682907     0.5138963791
   27      H      -1.1391915598    -1.2844157869    -1.4113220230
   28      H      -1.0755104034     0.4314510052    -1.7784185848
   29      H      -2.0555993196     0.9486124931     0.4745930319
   30      H      -2.1136065318    -0.7646746702     0.8444763349
   31      C      -3.5620425255    -0.1376914268    -0.6305145175
   32      C      -4.7272306523     0.0984079985     0.3392474869
   33      C      -6.1112076999    -0.0017991543    -0.3150494309
   34      C      -7.2779983414     0.2279514334     0.6543559624
   35      C      -8.6600512232     0.1254438770    -0.0032124172
   36      C      -9.8265327567     0.3517165067     0.9675672036
   37      C     -11.2052142627     0.2462931722     0.3089619651
   38      H      -3.6756332506    -1.1273130078    -1.0935940013
   39      H      -3.6250870091     0.5884117953    -1.4522059272
   40      H      -4.6172324638     1.0885219007     0.8013037607
   41      H      -4.6640601501    -0.6267792279     1.1615713160
   42      H      -6.2195253564    -0.9907864146    -0.7801546882
   43      H      -6.1761406421     0.7253399171    -1.1354865396
   44      H      -7.1717075802     1.2172329401     1.1190880827
   45      H      -7.2139826790    -0.4995225281     1.4745191803
   46      H      -8.7679801900    -0.8627706321    -0.4692850782
   47      H      -8.7280050575     0.8537366997    -0.8219823913
   48      H      -9.7210584154     1.3399871342     1.4332213846
   49      H      -9.7591432408    -0.3752988192     1.7870569170
   50      H     -11.3260343576     0.9871329254    -0.4897734919
   51      H     -12.0126272008     0.4126635786     1.0302387433
   52      H     -11.3641391642    -0.7442787817    -0.1325642543
 ----------------------------------------------------------------

  153   -1043.0983040767      8.59e-07  Convergence criterion met
 Total energy in the final basis set =    -1043.0983040767
    8   -1043.3483923136      2.98e-07  Convergence criterion met
 Total energy in the final basis set =    -1043.3483923136

                    Orbital Energies (a.u.)
 --------------------------------------------------------------

 Alpha MOs
 -- Occupied --
-19.1138 -19.0304 -19.0213 -10.1771 -10.1745 -10.1635 -10.1571 -10.1546
-10.1543 -10.1540 -10.1534 -10.1526 -10.1512 -10.1508 -10.1486 -10.1478
-10.1447 -10.1443 -10.1438 -10.1432 -10.1395 -10.1365 -10.1324 -10.1239
 -1.0288  -0.9457  -0.9383  -0.8250  -0.8056  -0.7925  -0.7774  -0.7611
 -0.7394  -0.7219  -0.7154  -0.6896  -0.6595  -0.6338  -0.6158  -0.5901
 -0.5808  -0.5709  -0.5668  -0.5632  -0.5523  -0.5355  -0.5035  -0.4785
 -0.4718  -0.4652  -0.4515  -0.4425  -0.4299  -0.4270  -0.4233  -0.4177
 -0.4145  -0.4024  -0.4002  -0.3979  -0.3891  -0.3857  -0.3768  -0.3695
 -0.3668  -0.3619  -0.3575  -0.3521  -0.3483  -0.3433  -0.3358  -0.3327
 -0.3276  -0.3213  -0.3202  -0.3164  -0.3152  -0.3137  -0.3121  -0.3105
 -0.3067  -0.3024  -0.3002  -0.2880  -0.2310  -0.2274  -0.2190  -0.1995
 -0.1933  -0.1089

          Ground-State Mulliken Net Atomic Charges

     Atom                 Charge (a.u.)
  ----------------------------------------
      1 C                    -0.093273
      2 C                    -0.404645
      3 C                    -0.525034
      4 C                     0.452241
      5 C                    -0.129692
      6 C                     0.006002
      7 C                    -0.890260
      8 C                    -0.667142
      9 C                     1.990214
     10 C                    -0.701619
     11 O                    -0.770265
     12 O                    -0.676022
     13 H                     0.155917
     14 H                     0.176625
     15 H                     0.170303
     16 H                     0.154434
     17 C                    -0.339524
     18 O                    -0.355200
     19 H                     0.204941
     20 H                     0.175261
     21 H                     0.293083
     22 C                    -0.887914
     23 C                    -0.352159
     24 C                    -0.058788
     25 H                     0.182103
     26 H                     0.161911
     27 H                     0.110650
     28 H                     0.117471
     29 H                     0.128946
     30 H                     0.128660
     31 C                     0.022241
     32 C                     0.032082
     33 C                    -0.053980
     34 C                    -0.298963
     35 C                    -0.494196
     36 C                    -0.295413
     37 C                    -0.716377
     38 H                     0.135384
     39 H                     0.136339
     40 H                     0.134533
     41 H                     0.133603
     42 H                     0.133271
     43 H                     0.132954
     44 H                     0.132218
     45 H                     0.131703
     46 H                     0.129061
     47 H                     0.129347
     48 H                     0.136552
     49 H                     0.136124
     50 H                     0.145759
     51 H                     0.154696
     52 H                     0.145834
  ----------------------------------------
  Sum of atomic charges =    -2.000000

                    Cartesian Multipole Moments
 -----------------------------------------------------------------
    Charge (ESU x 10^10)
                -9.6064
    Dipole Moment (Debye)
         X     -40.8011      Y       2.2097      Z       1.1873
       Tot      40.8782
    Quadrupole Moments (Debye-Ang)
        XX    -357.5236     XY      20.6468     YY    -199.6589
        XZ      -5.7544     YZ      10.7753     ZZ    -168.4841

 Total job time:  2995.62s(wall), 23487.66s(cpu)
        *  Thank you very much for using Q-Chem.  Have a nice day.  *
