 Q-Chem 5.4, Q-Chem, Inc., Pleasanton, CA (2021)
 Q-Chem 5.4.0 for Intel X86 EM64T Linux

User input:
--------------------------------------------------------------
$molecule
0 1
C                  5.7684430000     -5.7169190000      0.4459840000
C                  5.9060580000     -5.8611270000     -0.9307010000
C                  5.2295100000     -4.9992180000     -1.7979610000
C                  4.9516710000     -4.7078450000      0.9619180000
C                  4.2738090000     -3.8432260000      0.0928330000
C                  4.4156190000     -3.9924210000     -1.2890420000
C                  4.8007930000     -4.5539360000      2.4352140000
C                  3.9143230000     -3.4702610000      2.9616730000
C                  3.2744870000     -2.6162770000      2.1231670000
C                  3.4047780000     -2.7624810000      0.6377100000
O                  5.3876670000     -5.2956840000      3.2090780000
O                  2.8064760000     -2.0057620000     -0.1126370000
H                  6.5396620000     -6.6443670000     -1.3311750000
C                  2.3692160000     -1.4993840000      2.5786710000
H                  5.3390700000     -5.1147320000     -2.8703250000
C                  3.8213740000     -3.4246580000      4.4610170000
C                  0.8947240000     -1.9378900000      2.7067790000
C                 -0.0280760000     -0.7889530000      3.1265720000
C                 -1.4972460000     -1.2065800000      3.2564720000
H                  6.2831040000     -6.3734930000      1.1365630000
H                  3.8828850000     -3.3132350000     -1.9430010000
H                  2.4270960000     -0.6921350000      1.8456210000
H                  2.7159730000     -1.0984240000      3.5336810000
H                  3.5392540000     -4.4067780000      4.8483590000
H                  3.1031420000     -2.6877520000      4.8124260000
H                  4.8005760000     -3.2015620000      4.8955050000
H                  0.8194950000     -2.7553860000      3.4337450000
H                  0.5604980000     -2.3425690000      1.7457860000
H                  0.0548010000      0.0242670000      2.3948180000
H                  0.3171360000     -0.3754630000      4.0833230000
H                 -1.5790170000     -2.0233160000      3.9854020000
H                 -1.8409920000     -1.6182740000      2.2990000000
C                 -2.4248970000     -0.0604910000      3.6759940000
C                 -3.8949510000     -0.4759580000      3.8026250000
C                 -4.8236030000      0.6695760000      4.2212490000
C                 -6.2937320000      0.2547160000      4.3468890000
C                 -7.2236720000      1.3993070000      4.7653360000
C                 -8.6901050000      0.9749490000      4.8877460000
H                 -2.3414820000      0.7565780000      2.9477980000
H                 -2.0814720000      0.3508740000      4.6341240000
H                 -3.9783810000     -1.2934090000      4.5306070000
H                 -4.2378280000     -0.8874110000      2.8444480000
H                 -4.7397800000      1.4870940000      3.4934080000
H                 -4.4809960000      1.0809530000      5.1796930000
H                 -6.3786920000     -0.5628700000      5.0748010000
H                 -6.6373010000     -0.1564790000      3.3885920000
H                 -7.1396570000      2.2160910000      4.0380390000
H                 -6.8814090000      1.8099050000      5.7231760000
H                 -9.0719840000      0.5924410000      3.9358110000
H                 -9.3257220000      1.8129970000      5.1872170000
H                 -8.8118360000      0.1830080000      5.6336430000
$end
$rem
MAX_SCF_CYCLES=200
BASIS  =  6-311++G(d,p)
GUI  =  2
JOB_TYPE  =  SP
METHOD  =  B3LYP
SCF_CONVERGENCE  =  8
scf_guess = GWH
SCF_ALGORITHM = RCA_DIIS
THRESH = 14
SOLVENT_METHOD = PCM
$end
$pcm
theory = CPCM
$end
$solvent
dielectric 37.219
opticaldielectric 1.43
$end

--------------------------------------------------------------

             Standard Nuclear Orientation (Angstroms)
    I     Atom           X                Y                Z
 ----------------------------------------------------------------
    1      C       5.7684430000    -5.7169190000     0.4459840000
    2      C       5.9060580000    -5.8611270000    -0.9307010000
    3      C       5.2295100000    -4.9992180000    -1.7979610000
    4      C       4.9516710000    -4.7078450000     0.9619180000
    5      C       4.2738090000    -3.8432260000     0.0928330000
    6      C       4.4156190000    -3.9924210000    -1.2890420000
    7      C       4.8007930000    -4.5539360000     2.4352140000
    8      C       3.9143230000    -3.4702610000     2.9616730000
    9      C       3.2744870000    -2.6162770000     2.1231670000
   10      C       3.4047780000    -2.7624810000     0.6377100000
   11      O       5.3876670000    -5.2956840000     3.2090780000
   12      O       2.8064760000    -2.0057620000    -0.1126370000
   13      H       6.5396620000    -6.6443670000    -1.3311750000
   14      C       2.3692160000    -1.4993840000     2.5786710000
   15      H       5.3390700000    -5.1147320000    -2.8703250000
   16      C       3.8213740000    -3.4246580000     4.4610170000
   17      C       0.8947240000    -1.9378900000     2.7067790000
   18      C      -0.0280760000    -0.7889530000     3.1265720000
   19      C      -1.4972460000    -1.2065800000     3.2564720000
   20      H       6.2831040000    -6.3734930000     1.1365630000
   21      H       3.8828850000    -3.3132350000    -1.9430010000
   22      H       2.4270960000    -0.6921350000     1.8456210000
   23      H       2.7159730000    -1.0984240000     3.5336810000
   24      H       3.5392540000    -4.4067780000     4.8483590000
   25      H       3.1031420000    -2.6877520000     4.8124260000
   26      H       4.8005760000    -3.2015620000     4.8955050000
   27      H       0.8194950000    -2.7553860000     3.4337450000
   28      H       0.5604980000    -2.3425690000     1.7457860000
   29      H       0.0548010000     0.0242670000     2.3948180000
   30      H       0.3171360000    -0.3754630000     4.0833230000
   31      H      -1.5790170000    -2.0233160000     3.9854020000
   32      H      -1.8409920000    -1.6182740000     2.2990000000
   33      C      -2.4248970000    -0.0604910000     3.6759940000
   34      C      -3.8949510000    -0.4759580000     3.8026250000
   35      C      -4.8236030000     0.6695760000     4.2212490000
   36      C      -6.2937320000     0.2547160000     4.3468890000
   37      C      -7.2236720000     1.3993070000     4.7653360000
   38      C      -8.6901050000     0.9749490000     4.8877460000
   39      H      -2.3414820000     0.7565780000     2.9477980000
   40      H      -2.0814720000     0.3508740000     4.6341240000
   41      H      -3.9783810000    -1.2934090000     4.5306070000
   42      H      -4.2378280000    -0.8874110000     2.8444480000
   43      H      -4.7397800000     1.4870940000     3.4934080000
   44      H      -4.4809960000     1.0809530000     5.1796930000
   45      H      -6.3786920000    -0.5628700000     5.0748010000
   46      H      -6.6373010000    -0.1564790000     3.3885920000
   47      H      -7.1396570000     2.2160910000     4.0380390000
   48      H      -6.8814090000     1.8099050000     5.7231760000
   49      H      -9.0719840000     0.5924410000     3.9358110000
   50      H      -9.3257220000     1.8129970000     5.1872170000
   51      H      -8.8118360000     0.1830080000     5.6336430000
 ----------------------------------------------------------------

   82    -967.8495739731      4.21E-09 Convergence criterion met
 Total energy in the final basis set = -967.84957397

                    Orbital Energies (a.u.)
 --------------------------------------------------------------

 Alpha MOs
 -- Occupied --
-19.1325 -19.1323 -10.2805 -10.2798 -10.2115 -10.2089 -10.2047 -10.2042
-10.1954 -10.1953 -10.1949 -10.1945 -10.1729 -10.1703 -10.1662 -10.1594
-10.1583 -10.1573 -10.1564 -10.1560 -10.1558 -10.1557 -10.1520  -1.0668
 -1.0650  -0.8882  -0.8504  -0.8102  -0.7977  -0.7848  -0.7757  -0.7703
 -0.7451  -0.7198  -0.6939  -0.6772  -0.6562  -0.6302  -0.6163  -0.5970
 -0.5822  -0.5781  -0.5714  -0.5691  -0.5490  -0.5171  -0.4991  -0.4832
 -0.4752  -0.4670  -0.4602  -0.4594  -0.4554  -0.4492  -0.4428  -0.4332
 -0.4272  -0.4253  -0.4188  -0.4175  -0.4076  -0.4058  -0.3959  -0.3936
 -0.3890  -0.3859  -0.3755  -0.3732  -0.3665  -0.3626  -0.3558  -0.3438
 -0.3407  -0.3359  -0.3268  -0.3238  -0.3201  -0.3177  -0.3163  -0.3012
 -0.2888  -0.2876  -0.2768  -0.2712  -0.2680

          Ground-State Mulliken Net Atomic Charges

     Atom                 Charge (a.u.)
  ----------------------------------------
      1 C                     0.222145
      2 C                    -0.481843
      3 C                    -0.417496
      4 C                     0.017387
      5 C                    -0.142218
      6 C                     0.191231
      7 C                    -0.339334
      8 C                     0.882142
      9 C                     1.047319
     10 C                    -0.906050
     11 O                    -0.294064
     12 O                    -0.277517
     13 H                     0.219655
     14 C                    -0.588769
     15 H                     0.219344
     16 C                    -0.494468
     17 C                    -0.959320
     18 C                    -0.280122
     19 C                    -0.025490
     20 H                     0.201324
     21 H                     0.199703
     22 H                     0.226479
     23 H                     0.229220
     24 H                     0.191810
     25 H                     0.153260
     26 H                     0.212347
     27 H                     0.153178
     28 H                     0.196109
     29 H                     0.127803
     30 H                     0.134737
     31 H                     0.136560
     32 H                     0.133146
     33 C                     0.065238
     34 C                    -0.015245
     35 C                    -0.245125
     36 C                    -0.461501
     37 C                    -0.292816
     38 C                    -0.711385
     39 H                     0.136311
     40 H                     0.135335
     41 H                     0.134981
     42 H                     0.134623
     43 H                     0.131354
     44 H                     0.131446
     45 H                     0.128376
     46 H                     0.128562
     47 H                     0.135308
     48 H                     0.135227
     49 H                     0.144711
     50 H                     0.151696
     51 H                     0.144698
  ----------------------------------------
  Sum of atomic charges =     0.000000

                    Cartesian Multipole Moments
 -----------------------------------------------------------------
    Charge (ESU x 10^10)
                -0.0000
    Dipole Moment (Debye)
         X      -0.0157      Y      -0.2193      Z      -0.4137
       Tot       0.4685
    Quadrupole Moments (Debye-Ang)
        XX    -144.9302     XY      -1.8281     YY    -142.8951
        XZ     -13.8086     YZ      15.8758     ZZ    -134.5231

 Total job time:  2436.67s(wall), 14467.23s(cpu)
        *  Thank you very much for using Q-Chem.  Have a nice day.  *
