 Q-Chem 5.4, Q-Chem, Inc., Pleasanton, CA (2021)
 Q-Chem 5.4.0 for Intel X86 EM64T Linux

User input:
--------------------------------------------------------------
$molecule
-2 1
C                  5.8338240000     -5.2163290000      1.1773940000
C                  6.7328150000     -5.1258690000      0.1389740000
C                  6.5633690000     -4.1373670000     -0.8568820000
C                  4.6947890000     -4.3835300000      1.2463380000
C                  4.5388410000     -3.3506690000      0.2445680000
C                  5.4731380000     -3.2982010000     -0.8137630000
C                  3.7479150000     -4.5596260000      2.3295160000
C                  2.6733090000     -3.6070340000      2.3357760000
C                  2.5165360000     -2.6051930000      1.3539040000
C                  3.4408660000     -2.4049300000      0.2732700000
O                  3.8718970000     -5.4954640000      3.2090570000
O                  3.3140160000     -1.4679970000     -0.6046980000
H                  5.9800820000     -5.9135470000      1.9954380000
H                  5.2766620000     -2.5820360000     -1.6044600000
Br                 8.4404090000     -6.1194430000      0.3122860000
Br                 7.6212640000     -4.1844910000     -2.5338320000
C                  1.6689780000     -3.7374600000      3.4577210000
C                  1.3427110000     -1.6550660000      1.4162190000
H                  2.0387580000     -4.4849040000      4.1635460000
H                  0.6785990000     -4.0658060000      3.1016450000
H                  1.5081510000     -2.7859160000      3.9847250000
H                  0.3828020000     -2.1848240000      1.4994970000
H                  1.3443790000     -1.0481060000      0.5078150000
H                  1.3966970000     -0.9736220000      2.2811950000
$end
$rem
MAX_SCF_CYCLES=200
BASIS  =  6-311++G(d,p)
GUI  =  2
JOB_TYPE  =  SP
METHOD  =  B3LYP
SOLVENT_METHOD = PCM
$end
$pcm
theory = CPCM
$end
$solvent
dielectric 37.219
opticaldielectric 1.43
$end

--------------------------------------------------------------

             Standard Nuclear Orientation (Angstroms)
    I     Atom           X                Y                Z
 ----------------------------------------------------------------
    1      C       5.8338240000    -5.2163290000     1.1773940000
    2      C       6.7328150000    -5.1258690000     0.1389740000
    3      C       6.5633690000    -4.1373670000    -0.8568820000
    4      C       4.6947890000    -4.3835300000     1.2463380000
    5      C       4.5388410000    -3.3506690000     0.2445680000
    6      C       5.4731380000    -3.2982010000    -0.8137630000
    7      C       3.7479150000    -4.5596260000     2.3295160000
    8      C       2.6733090000    -3.6070340000     2.3357760000
    9      C       2.5165360000    -2.6051930000     1.3539040000
   10      C       3.4408660000    -2.4049300000     0.2732700000
   11      O       3.8718970000    -5.4954640000     3.2090570000
   12      O       3.3140160000    -1.4679970000    -0.6046980000
   13      H       5.9800820000    -5.9135470000     1.9954380000
   14      H       5.2766620000    -2.5820360000    -1.6044600000
   15      Br      8.4404090000    -6.1194430000     0.3122860000
   16      Br      7.6212640000    -4.1844910000    -2.5338320000
   17      C       1.6689780000    -3.7374600000     3.4577210000
   18      C       1.3427110000    -1.6550660000     1.4162190000
   19      H       2.0387580000    -4.4849040000     4.1635460000
   20      H       0.6785990000    -4.0658060000     3.1016450000
   21      H       1.5081510000    -2.7859160000     3.9847250000
   22      H       0.3828020000    -2.1848240000     1.4994970000
   23      H       1.3443790000    -1.0481060000     0.5078150000
   24      H       1.3966970000    -0.9736220000     2.2811950000
 ----------------------------------------------------------------

   10   -5761.2455427978      6.93e-06  Convergence criterion met
 Total energy in the final basis set =    -5761.2455427978

                    Orbital Energies (a.u.)
 --------------------------------------------------------------

 Alpha MOs
 -- Occupied --
********-482.8220 -62.4748 -62.4748 -56.2952 -56.2952 -56.2914 -56.2914
-56.2913 -56.2913 -19.0226 -19.0226 -10.2188 -10.2183 -10.1756 -10.1756
-10.1666 -10.1666 -10.1473 -10.1469 -10.1365 -10.1364 -10.1346 -10.1341
 -8.6832  -8.6832  -6.5143  -6.5142  -6.5020  -6.5020  -6.5018  -6.5017
 -2.6252  -2.6251  -2.6218  -2.6216  -2.6216  -2.6215  -2.6118  -2.6118
 -2.6118  -2.6117  -0.9418  -0.9381  -0.8614  -0.7972  -0.7873  -0.7732
 -0.7273  -0.7173  -0.7001  -0.6465  -0.6282  -0.5870  -0.5565  -0.5252
 -0.4838  -0.4550  -0.4499  -0.4233  -0.4186  -0.4096  -0.3909  -0.3877
 -0.3741  -0.3731  -0.3633  -0.3580  -0.3579  -0.3417  -0.3413  -0.3233
 -0.3152  -0.3114  -0.3067  -0.2981  -0.2855  -0.2746  -0.2384  -0.2276
 -0.2081  -0.2078  -0.1983  -0.1174

          Ground-State Mulliken Net Atomic Charges

     Atom                 Charge (a.u.)
  ----------------------------------------
      1 C                    -0.279200
      2 C                     0.075595
      3 C                     0.083449
      4 C                     0.401071
      5 C                     0.400481
      6 C                    -0.281503
      7 C                    -0.969711
      8 C                     0.682293
      9 C                     0.683376
     10 C                    -0.969103
     11 O                    -0.692134
     12 O                    -0.692767
     13 H                     0.188469
     14 H                     0.189108
     15 Br                   -0.265105
     16 Br                   -0.266937
     17 C                    -0.598190
     18 C                    -0.598045
     19 H                     0.165756
     20 H                     0.151053
     21 H                     0.138047
     22 H                     0.138018
     23 H                     0.165273
     24 H                     0.150703
  ----------------------------------------
  Sum of atomic charges =    -2.000000

                    Cartesian Multipole Moments
 -----------------------------------------------------------------
    Charge (ESU x 10^10)
                -9.6064
    Dipole Moment (Debye)
         X     -42.8302      Y      36.5741      Z      -7.9863
       Tot      56.8847
    Quadrupole Moments (Debye-Ang)
        XX    -348.7307     XY     177.9528     YY    -302.6282
        XZ     -24.3519     YZ      53.5525     ZZ    -171.4699

 Total job time:  55.16s(wall), 378.57s(cpu)
        *  Thank you very much for using Q-Chem.  Have a nice day.  *
