 Gaussian 16, Revision A.03,
 Gaussian 16:  ES64L-G16RevA.03 25-Dec-2016

 ----------------------------------------------------------------
 #P UB3LYP/6-311++G(d,p) SCRF=(PCM,Solvent=n,n-DiMethylFormamide)
 ----------------------------------------------------------------

 ------------------
 Radical PCM in DMF
 ------------------
 Symbolic Z-matrix:
 Charge = -1 Multiplicity = 2

                         Standard orientation:
 ---------------------------------------------------------------------
 Center     Atomic      Atomic             Coordinates (Angstroms)
 Number     Number       Type             X           Y           Z
 ---------------------------------------------------------------------
      1          6           0       -2.672789   -0.982807    0.072752
      2          6           0       -2.565867   -2.360857    0.043298
      3          6           0       -1.294457   -2.960040   -0.051816
      4          6           0       -1.538495   -0.145132    0.023334
      5          6           0       -0.243124   -0.753765   -0.043367
      6          6           0       -0.161892   -2.163191   -0.097529
      7          6           0       -1.734457    1.311497    0.026780
      8          6           0       -0.504695    2.157284   -0.043337
      9          6           0        0.770348    1.466276   -0.061306
     10          6           0        0.923780    0.100915   -0.056186
     11          8           0       -2.879960    1.812592    0.084312
     12          8           0       -0.558544    3.407097   -0.062717
     13          1           0       -3.638213   -0.492633    0.129472
     14          1           0       -3.457657   -2.979728    0.081136
     15          1           0       -1.198987   -4.040554   -0.100750
     16          1           0        0.804644   -2.643953   -0.208833
     17          1           0        1.633119    2.122859   -0.068606
     18          7           0        2.194830   -0.520620   -0.096758
     19          6           0        3.398121    0.273965    0.079992
     20          6           0        4.637538   -0.617763    0.064690
     21          1           0        2.219392   -1.363262    0.463383
     22          1           0        3.373824    0.863362    1.012519
     23          1           0        3.458811    0.997110   -0.739130
     24          1           0        4.613125   -1.344407    0.884758
     25          1           0        5.545140   -0.018622    0.182367
     26          1           0        4.706949   -1.171641   -0.875612
 ---------------------------------------------------------------------

 SCF Done:  E(UB3LYP) =  -669.425642775     A.U. after   19 cycles

 The electronic state is 2-A.
 Alpha  occ. eigenvalues --  -19.07289 -19.06704 -14.32250 -10.21194 -10.21106
 Alpha  occ. eigenvalues --  -10.21050 -10.19891 -10.18062 -10.17434 -10.17176
 Alpha  occ. eigenvalues --  -10.17033 -10.17024 -10.16691 -10.16253 -10.14829
 Alpha  occ. eigenvalues --   -1.00820  -0.98102  -0.93435  -0.85666  -0.79738
 Alpha  occ. eigenvalues --   -0.75884  -0.73796  -0.72435  -0.67092  -0.63062
 Alpha  occ. eigenvalues --   -0.60838  -0.59377  -0.56375  -0.52310  -0.49788
 Alpha  occ. eigenvalues --   -0.48957  -0.47606  -0.45000  -0.44383  -0.43467
 Alpha  occ. eigenvalues --   -0.42292  -0.41600  -0.41284  -0.39902  -0.38881
 Alpha  occ. eigenvalues --   -0.38104  -0.37584  -0.36592  -0.36107  -0.34760
 Alpha  occ. eigenvalues --   -0.34405  -0.33521  -0.31830  -0.25939  -0.25533
 Alpha  occ. eigenvalues --   -0.25188  -0.21986  -0.21468  -0.14493
 Alpha virt. eigenvalues --   -0.03335  -0.00602  -0.00430   0.00476   0.01142
 Alpha virt. eigenvalues --    0.02225   0.02393   0.02536   0.03784   0.04625
 Alpha virt. eigenvalues --    0.04723   0.05190   0.05295   0.05683   0.06113

  Beta  occ. eigenvalues --  -19.06625 -19.06229 -14.32134 -10.21049 -10.20911
  Beta  occ. eigenvalues --  -10.20824 -10.19895 -10.17946 -10.17459 -10.17093
  Beta  occ. eigenvalues --  -10.17016 -10.16986 -10.16649 -10.16252 -10.14909
  Beta  occ. eigenvalues --   -0.99802  -0.97065  -0.93179  -0.85460  -0.79443
  Beta  occ. eigenvalues --   -0.75618  -0.73707  -0.72292  -0.66308  -0.62880
  Beta  occ. eigenvalues --   -0.60741  -0.59044  -0.56099  -0.52139  -0.49602
  Beta  occ. eigenvalues --   -0.48756  -0.47392  -0.44858  -0.44229  -0.43299
  Beta  occ. eigenvalues --   -0.42136  -0.40985  -0.40141  -0.39521  -0.38648
  Beta  occ. eigenvalues --   -0.37784  -0.37177  -0.36001  -0.35633  -0.34619
  Beta  occ. eigenvalues --   -0.33477  -0.32505  -0.30397  -0.24983  -0.24859
  Beta  occ. eigenvalues --   -0.24377  -0.21455  -0.20666
  Beta virt. eigenvalues --   -0.07975  -0.02660  -0.00556   0.00474   0.00916
  Beta virt. eigenvalues --    0.01190   0.02235   0.02406   0.02565   0.03811
  Beta virt. eigenvalues --    0.04674   0.05197   0.05223   0.05723   0.06087

 Mulliken charges and spin densities:
               1          2
     1  C    0.119715   0.069698
     2  C   -0.447699   0.004905
     3  C   -0.454390   0.071269
     4  C    0.494329   0.022896
     5  C    0.326307   0.065705
     6  C   -0.208700  -0.007252
     7  C   -0.596978   0.133279
     8  C   -0.027975   0.149921
     9  C   -0.034447  -0.078679
    10  C   -0.265769   0.098036
    11  O   -0.498273   0.249419
    12  O   -0.533400   0.170385
    13  H    0.166353  -0.004408
    14  H    0.177054  -0.001218
    15  H    0.183076  -0.005216
    16  H    0.137924   0.002237
    17  H    0.199237   0.002344
    18  N    0.017098   0.048300
    19  C   -0.074941  -0.005111
    20  C   -0.686863   0.004380
    21  H    0.237976   0.000868
    22  H    0.159443   0.007175
    23  H    0.156607   0.001190
    24  H    0.143541  -0.000161
    25  H    0.154926  -0.000381
    26  H    0.155848   0.000418
 Sum of Mulliken charges =  -1.00000   1.00000

 Dipole moment (field-independent basis, Debye):
    X=             10.4877    Y=            -13.1940    Z=              0.9384  Tot=             16.8806
 Quadrupole moment (field-independent basis, Debye-Ang):
   XX=           -104.1411   YY=           -129.6863   ZZ=            -95.0958
   XY=             18.5491   XZ=              2.7020   YZ=             -1.1486

 Normal termination of Gaussian 16 at Sat Jan 13 19:19:45 2024.
