 Gaussian 16, Revision A.03,
 Gaussian 16:  ES64L-G16RevA.03 25-Dec-2016

 --------------------------------------
 #P UB3LYP/6-311++G(d,p) nosym opt freq
 --------------------------------------

 --------
 Oxidized
 --------
 Symbolic Z-matrix:
 Charge = -2 Multiplicity = 1

 SCF Done:  E(UB3LYP) =  -1935.51853240     A.U. after   21 cycles
 SCF Done:  E(UB3LYP) =  -1935.57736115     A.U. after   15 cycles
 SCF Done:  E(UB3LYP) =  -1935.61516226     A.U. after   15 cycles
 SCF Done:  E(UB3LYP) =  -1935.61681277     A.U. after   13 cycles
 SCF Done:  E(UB3LYP) =  -1935.61698073     A.U. after   13 cycles
 SCF Done:  E(UB3LYP) =  -1935.61679848     A.U. after   13 cycles
 SCF Done:  E(UB3LYP) =  -1935.61693561     A.U. after   14 cycles
 SCF Done:  E(UB3LYP) =  -1935.61699807     A.U. after   12 cycles
 SCF Done:  E(UB3LYP) =  -1935.61701575     A.U. after   13 cycles
 SCF Done:  E(UB3LYP) =  -1935.61701905     A.U. after   12 cycles
 SCF Done:  E(UB3LYP) =  -1935.61702076     A.U. after   11 cycles
 Optimization completed.
    -- Stationary point found.
 Normal termination of Gaussian 16 at Mon Jan  8 17:39:58 2024.

 ----------------------------------------------------------------------
 #P Geom=AllCheck Guess=TCheck SCRF=Check GenChk UB3LYP/6-311++G(d,p) F
 req
 ----------------------------------------------------------------------

 Structure from the checkpoint file:  "224.chk"
 --------
 Oxidized
 --------
 Charge = -2 Multiplicity = 1

                          Input orientation:
 ---------------------------------------------------------------------
 Center     Atomic      Atomic             Coordinates (Angstroms)
 Number     Number       Type             X           Y           Z
 ---------------------------------------------------------------------
      1          6           0        5.643926   -4.723842    0.888196
      2          6           0        6.667175   -4.611129   -0.037047
      3          6           0        6.596505   -3.648351   -1.041854
      4          6           0        4.539705   -3.870344    0.813143
      5          6           0        4.457540   -2.890663   -0.201299
      6          6           0        5.510460   -2.779940   -1.147811
      7          6           0        3.482228   -4.081466    1.873467
      8          6           0        2.273634   -3.208036    1.863783
      9          6           0        2.191204   -2.228742    0.848984
     10          6           0        3.247279   -2.019585   -0.213125
     11          6           0        1.222231   -3.316584    2.812254
     12          6           0        0.137231   -2.446712    2.707583
     13          6           0        0.066074   -1.484655    1.702118
     14          6           0        1.087917   -1.373937    0.775091
     15          8           0        3.646218   -4.954194    2.702039
     16          8           0        3.081596   -1.149263   -1.043888
     17         16           0        1.077044   -4.514875    4.250227
     18          8           0       -0.231600   -4.124280    4.855455
     19          8           0        2.224520   -4.215416    5.135033
     20          8           0        1.042282   -5.863442    3.642424
     21         16           0        5.656901   -1.579818   -2.584153
     22          8           0        6.968704   -1.966053   -3.185313
     23          8           0        4.513283   -1.881802   -3.473090
     24          8           0        5.685664   -0.231781   -1.974869
     25          1           0        5.663157   -5.459036    1.682575
     26          1           0        7.527943   -5.271713    0.016464
     27          1           0        7.385238   -3.542858   -1.775538
     28          1           0       -0.650207   -2.550366    3.442914
     29          1           0       -0.793870   -0.822916    1.649627
     30          1           0        1.068318   -0.639273   -0.019769
 ---------------------------------------------------------------------

 SCF Done:  E(UB3LYP) =  -1935.61702076     A.U. after    2 cycles

 Alpha  occ. eigenvalues --  -88.82667 -88.82667 -18.92581 -18.92580 -18.86714
 Alpha  occ. eigenvalues --  -18.86714 -18.86630 -18.86629 -18.86629 -18.86628
 Alpha  occ. eigenvalues --  -10.08074 -10.08073 -10.02188 -10.02187 -10.01951
 Alpha  occ. eigenvalues --  -10.01951 -10.01727 -10.01726 -10.01317 -10.01317
 Alpha  occ. eigenvalues --  -10.00637 -10.00637 -10.00171 -10.00171  -7.88466
 Alpha  occ. eigenvalues --   -7.88466  -5.84729  -5.84729  -5.84713  -5.84712
 Alpha  occ. eigenvalues --   -5.84692  -5.84692  -0.88624  -0.88618  -0.86452
 Alpha  occ. eigenvalues --   -0.86269  -0.75104  -0.75104  -0.74683  -0.74679
 Alpha  occ. eigenvalues --   -0.69969  -0.69017  -0.61918  -0.58752  -0.58662
 Alpha  occ. eigenvalues --   -0.57898  -0.49499  -0.47951  -0.45124  -0.44016
 Alpha  occ. eigenvalues --   -0.41376  -0.37756  -0.36947  -0.34928  -0.34215
 Alpha  occ. eigenvalues --   -0.31007  -0.30055  -0.29843  -0.28896  -0.27201
 Alpha  occ. eigenvalues --   -0.26844  -0.25763  -0.25284  -0.24866  -0.24533
 Alpha  occ. eigenvalues --   -0.22746  -0.22567  -0.22563  -0.22360  -0.21705
 Alpha  occ. eigenvalues --   -0.20648  -0.20082  -0.19867  -0.19353  -0.18030
 Alpha  occ. eigenvalues --   -0.17451  -0.11047  -0.11003  -0.10894  -0.10552
 Alpha  occ. eigenvalues --   -0.10412  -0.09741  -0.09515  -0.08848  -0.08619
 Alpha  occ. eigenvalues --   -0.08244  -0.07628  -0.07447  -0.06093  -0.05940
 Alpha  occ. eigenvalues --   -0.05660  -0.05606  -0.02810  -0.02756
 Alpha virt. eigenvalues --    0.08247   0.11768   0.14248   0.14291   0.15284
 Alpha virt. eigenvalues --    0.15855   0.17737   0.17759   0.19015   0.19885
 Alpha virt. eigenvalues --    0.21386   0.21464   0.21793   0.22534   0.23115

  Beta  occ. eigenvalues --  -88.82667 -88.82667 -18.92581 -18.92580 -18.86714
  Beta  occ. eigenvalues --  -18.86714 -18.86630 -18.86629 -18.86629 -18.86628
  Beta  occ. eigenvalues --  -10.08074 -10.08073 -10.02188 -10.02187 -10.01951
  Beta  occ. eigenvalues --  -10.01951 -10.01727 -10.01726 -10.01317 -10.01317
  Beta  occ. eigenvalues --  -10.00637 -10.00637 -10.00171 -10.00171  -7.88466
  Beta  occ. eigenvalues --   -7.88466  -5.84729  -5.84729  -5.84713  -5.84712
  Beta  occ. eigenvalues --   -5.84692  -5.84692  -0.88624  -0.88618  -0.86452
  Beta  occ. eigenvalues --   -0.86269  -0.75104  -0.75104  -0.74683  -0.74679
  Beta  occ. eigenvalues --   -0.69969  -0.69017  -0.61918  -0.58752  -0.58662
  Beta  occ. eigenvalues --   -0.57898  -0.49499  -0.47951  -0.45124  -0.44016
  Beta  occ. eigenvalues --   -0.41376  -0.37756  -0.36947  -0.34928  -0.34215
  Beta  occ. eigenvalues --   -0.31007  -0.30055  -0.29843  -0.28896  -0.27201
  Beta  occ. eigenvalues --   -0.26844  -0.25763  -0.25284  -0.24866  -0.24533
  Beta  occ. eigenvalues --   -0.22746  -0.22567  -0.22563  -0.22360  -0.21705
  Beta  occ. eigenvalues --   -0.20648  -0.20082  -0.19867  -0.19353  -0.18030
  Beta  occ. eigenvalues --   -0.17451  -0.11047  -0.11003  -0.10894  -0.10552
  Beta  occ. eigenvalues --   -0.10412  -0.09741  -0.09515  -0.08848  -0.08619
  Beta  occ. eigenvalues --   -0.08244  -0.07628  -0.07447  -0.06093  -0.05940
  Beta  occ. eigenvalues --   -0.05660  -0.05606  -0.02810  -0.02756
  Beta virt. eigenvalues --    0.08247   0.11768   0.14248   0.14291   0.15284
  Beta virt. eigenvalues --    0.15855   0.17737   0.17759   0.19015   0.19885
  Beta virt. eigenvalues --    0.21386   0.21464   0.21793   0.22534   0.23115

 Mulliken charges and spin densities:
               1          2
     1  C   -0.187204  -0.000000
     2  C   -0.365436   0.000000
     3  C    0.434673   0.000000
     4  C    0.773977  -0.000000
     5  C    0.510977   0.000000
     6  C   -1.082896  -0.000000
     7  C   -1.072177   0.000000
     8  C    0.511158  -0.000000
     9  C    0.773801   0.000000
    10  C   -1.072021   0.000000
    11  C   -1.082842  -0.000000
    12  C    0.434208  -0.000000
    13  C   -0.365396  -0.000000
    14  C   -0.187187  -0.000000
    15  O   -0.107338  -0.000000
    16  O   -0.107344   0.000000
    17  S    0.475720  -0.000000
    18  O   -0.293068  -0.000000
    19  O   -0.311461   0.000000
    20  O   -0.310788   0.000000
    21  S    0.475688  -0.000000
    22  O   -0.293032  -0.000000
    23  O   -0.311019   0.000000
    24  O   -0.311224   0.000000
    25  H    0.153362  -0.000000
    26  H    0.142282   0.000000
    27  H    0.239469  -0.000000
    28  H    0.239467   0.000000
    29  H    0.142284  -0.000000
    30  H    0.153367  -0.000000
 Sum of Mulliken charges =  -2.00000  -0.00000

 Dipole moment (field-independent basis, Debye):
    X=            -32.3412    Y=             29.2791    Z=             -7.9990  Tot=             44.3532
 Quadrupole moment (field-independent basis, Debye-Ang):
   XX=           -324.1418   YY=           -289.1081   ZZ=           -308.9917
   XY=             57.9273   XZ=             51.2657   YZ=             86.1650

  Exact polarizability: 272.280 -32.072 218.931 -67.885 -60.830 261.234
 Approx polarizability: 415.778 -69.301 385.167 -60.929-104.440 403.877

 ******    2 imaginary frequencies (negative Signs) ******

                      1                      2                      3
                      A                      A                      A
 Frequencies --    -28.1027               -10.6300                26.0625
 Red. masses --     12.8824                11.6529                 8.7088
 Frc consts  --      0.0060                 0.0008                 0.0035
 IR Inten    --      0.0398                 0.0001                13.3766

                      4                      5                      6
                      A                      A                      A
 Frequencies --     86.3916                89.2575               106.4662
 Red. masses --     11.3688                10.1469                11.5900
 Frc consts  --      0.0500                 0.0476                 0.0774
 IR Inten    --      0.0002                 0.0044                 8.1495

                      7                      8                      9
                      A                      A                      A
 Frequencies --    123.7372               136.8955               159.2363
 Red. masses --     15.9876                 6.2229                 8.2554
 Frc consts  --      0.1442                 0.0687                 0.1233
 IR Inten    --      0.0000                 0.0394                 0.0000

                     10                     11                     12
                      A                      A                      A
 Frequencies --    166.9168               208.8536               209.6242
 Red. masses --      8.8949                 5.3119                13.4874
 Frc consts  --      0.1460                 0.1365                 0.3492
 IR Inten    --      0.4916                 0.0196                 3.9941

                     13                     14                     15
                      A                      A                      A
 Frequencies --    240.2102               268.0200               280.6953
 Red. masses --     13.4365                12.5598                 6.7103
 Frc consts  --      0.4568                 0.5316                 0.3115
 IR Inten    --      0.0000                 0.0000                 0.4560

                     16                     17                     18
                      A                      A                      A
 Frequencies --    299.8948               312.3159               345.5911
 Red. masses --     11.7429                 8.2920                 6.3329
 Frc consts  --      0.6222                 0.4765                 0.4456
 IR Inten    --      2.4992                 0.0001                 0.0000

                     19                     20                     21
                      A                      A                      A
 Frequencies --    357.2151               393.8932               406.7656
 Red. masses --      7.0598                 9.9450                12.5225
 Frc consts  --      0.5308                 0.9091                 1.2208
 IR Inten    --      4.0395                 0.0000                32.0379

                     22                     23                     24
                      A                      A                      A
 Frequencies --    423.1520               458.9102               475.3608
 Red. masses --      5.4144                 9.7654                 6.8217
 Frc consts  --      0.5712                 1.2117                 0.9082
 IR Inten    --      0.0001                 0.0000                 6.2874

                     25                     26                     27
                      A                      A                      A
 Frequencies --    480.3378               491.1941               491.3068
 Red. masses --     12.5900                10.6147                 4.7567
 Frc consts  --      1.7115                 1.5089                 0.6765
 IR Inten    --      0.0029                 0.0012                 8.8971

                     28                     29                     30
                      A                      A                      A
 Frequencies --    508.4660               521.7220               558.3047
 Red. masses --     15.9299                12.6451                 8.4317
 Frc consts  --      2.4265                 2.0279                 1.5485
 IR Inten    --     23.0143                 0.0000                38.9797

                     31                     32                     33
                      A                      A                      A
 Frequencies --    564.8378               593.6051               607.3951
 Red. masses --      5.9729                16.3835                18.1743
 Frc consts  --      1.1227                 3.4014                 3.9505
 IR Inten    --      0.0002               398.6173                 0.0002

                     34                     35                     36
                      A                      A                      A
 Frequencies --    632.2673               676.2608               705.0153
 Red. masses --      6.6004                 5.7917                 7.3496
 Frc consts  --      1.5546                 1.5606                 2.1523
 IR Inten    --      5.2329                 0.0002                 0.0015

                     37                     38                     39
                      A                      A                      A
 Frequencies --    708.5150               716.7210               763.5483
 Red. masses --      9.1602                 3.1599                 7.6929
 Frc consts  --      2.7093                 0.9564                 2.6425
 IR Inten    --     46.0052                40.9884                 4.5146

                     40                     41                     42
                      A                      A                      A
 Frequencies --    767.1978               781.6159               811.5704
 Red. masses --      8.7034                 2.3256                 7.1665
 Frc consts  --      3.0183                 0.8371                 2.7811
 IR Inten    --      0.0003                 0.0000                 1.6078

                     43                     44                     45
                      A                      A                      A
 Frequencies --    823.0785               825.8508               922.9535
 Red. masses --      2.0854                 1.5855                 7.0055
 Frc consts  --      0.8324                 0.6371                 3.5160
 IR Inten    --      0.0001                38.7658                 0.0000

                     46                     47                     48
                      A                      A                      A
 Frequencies --    963.0452               964.2544               965.6131
 Red. masses --      9.2139                 1.3346                 1.3431
 Frc consts  --      5.0349                 0.7311                 0.7379
 IR Inten    --     44.2065                 0.0183                 0.0161

                     49                     50                     51
                      A                      A                      A
 Frequencies --    972.5319               975.3009              1002.7727
 Red. masses --     14.0385                14.2175                 1.3025
 Frc consts  --      7.8231                 7.9680                 0.7717
 IR Inten    --    565.8147                 0.0017                 0.0001

                     52                     53                     54
                      A                      A                      A
 Frequencies --   1003.8335              1084.8668              1094.5088
 Red. masses --      1.3107                 2.6410                 2.1348
 Frc consts  --      0.7781                 1.8314                 1.5067
 IR Inten    --      2.1608                 0.0001                81.3128

                     55                     56                     57
                      A                      A                      A
 Frequencies --   1130.0217              1134.2894              1139.4226
 Red. masses --      3.1088                 5.6937                10.9720
 Frc consts  --      2.3389                 4.3161                 8.3928
 IR Inten    --      0.0000               133.4995                 0.0026

                     58                     59                     60
                      A                      A                      A
 Frequencies --   1153.7800              1176.5840              1187.8891
 Red. masses --      5.3736                 1.4421                 2.1304
 Frc consts  --      4.2147                 1.1762                 1.7712
 IR Inten    --    318.1920                38.5039                 0.0073

                     61                     62                     63
                      A                      A                      A
 Frequencies --   1188.4277              1189.4996              1193.0070
 Red. masses --     20.6306                20.6270                 1.3555
 Frc consts  --     17.1676                17.1955                 1.1367
 IR Inten    --      0.0053               590.7504                 0.0001

                     64                     65                     66
                      A                      A                      A
 Frequencies --   1222.0680              1270.6687              1283.4294
 Red. masses --      1.7824                 4.9396                 3.1072
 Frc consts  --      1.5684                 4.6990                 3.0155
 IR Inten    --     23.1966               547.4188                 0.0001

                     67                     68                     69
                      A                      A                      A
 Frequencies --   1325.5481              1336.7138              1430.5094
 Red. masses --      9.7218                 8.3300                 3.5445
 Frc consts  --     10.0644                 8.7695                 4.2735
 IR Inten    --     41.9082                 0.0001                19.9985

                     70                     71                     72
                      A                      A                      A
 Frequencies --   1440.8162              1459.9307              1467.9948
 Red. masses --      3.7480                 2.2081                 2.3360
 Frc consts  --      4.5843                 2.7729                 2.9661
 IR Inten    --      0.0000                 3.9971                 0.0000

                     73                     74                     75
                      A                      A                      A
 Frequencies --   1592.6982              1602.5862              1606.4440
 Red. masses --      6.3087                 6.4571                 5.7953
 Frc consts  --      9.4288                 9.7708                 8.8117
 IR Inten    --      2.6720                 0.0000                79.9855

                     76                     77                     78
                      A                      A                      A
 Frequencies --   1611.6098              1731.3455              1741.6811
 Red. masses --      6.0952                12.8223                12.6581
 Frc consts  --      9.3273                22.6457                22.6233
 IR Inten    --      0.0000                 0.0017               242.4692

                     79                     80                     81
                      A                      A                      A
 Frequencies --   3141.9502              3142.0869              3197.2168
 Red. masses --      1.0885                 1.0884                 1.0898
 Frc consts  --      6.3308                 6.3312                 6.5639
 IR Inten    --     89.3904                 0.0113                10.9784

                     82                     83                     84
                      A                      A                      A
 Frequencies --   3197.2411              3198.4433              3198.5894
 Red. masses --      1.0898                 1.0929                 1.0929
 Frc consts  --      6.5639                 6.5870                 6.5877
 IR Inten    --      0.5149                28.8432                 0.0159

 - Thermochemistry -
 -------------------
 Temperature   298.150 Kelvin.  Pressure   1.00000 Atm.
 Atom     1 has atomic number  6 and mass  12.00000

 Molecular mass:   365.95041 amu.
 Principal axes and moments of inertia in atomic units:
                           1         2         3
     Eigenvalues --  3565.22694********************
           X           -0.59123  -0.65762   0.46689
           Y           -0.26850   0.70637   0.65494
           Z            0.76050  -0.26186   0.59420
 This molecule is an asymmetric top.
 Rotational symmetry number  1.
 Warning -- assumption of classical behavior for rotation
           may cause significant error
 Rotational temperatures (Kelvin)      0.02429     0.00573     0.00483
 Rotational constants (GHZ):           0.50621     0.11944     0.10054
    2 imaginary frequencies ignored.
 Zero-point vibrational energy     479980.4 (Joules/Mol)
                                  114.71806 (Kcal/Mol)
 Warning -- explicit consideration of  31 degrees of freedom as
           vibrations may cause significant error
 Vibrational temperatures:     37.50   124.30   128.42   153.18   178.03
          (Kelvin)            196.96   229.11   240.16   300.49   301.60
                              345.61   385.62   403.86   431.48   449.35
                              497.23   513.95   566.72   585.25   608.82
                              660.27   683.94   691.10   706.72   706.88
                              731.57   750.64   803.28   812.68   854.07
                              873.91   909.69   972.99  1014.36  1019.40
                             1031.20  1098.58  1103.83  1124.57  1167.67
                             1184.23  1188.22  1327.92  1385.61  1387.35
                             1389.30  1399.26  1403.24  1442.77  1444.29
                             1560.88  1574.75  1625.85  1631.99  1639.37
                             1660.03  1692.84  1709.11  1709.88  1711.42
                             1716.47  1758.28  1828.21  1846.57  1907.17
                             1923.23  2058.18  2073.01  2100.51  2112.12
                             2291.54  2305.76  2311.31  2318.75  2491.02
                             2505.89  4520.57  4520.76  4600.08  4600.12
                             4601.85  4602.06

 Zero-point correction=                           0.182815 (Hartree/Particle)
 Thermal correction to Energy=                    0.200360
 Thermal correction to Enthalpy=                  0.201304
 Thermal correction to Gibbs Free Energy=         0.137258
 Sum of electronic and zero-point Energies=          -1935.434206
 Sum of electronic and thermal Energies=             -1935.416661
 Sum of electronic and thermal Enthalpies=           -1935.415717
 Sum of electronic and thermal Free Energies=        -1935.479763

                     E (Thermal)             CV                S
                      KCal/Mol        Cal/Mol-Kelvin    Cal/Mol-Kelvin
 Total                  125.728             69.883            134.796
 Electronic               0.000              0.000              0.000
 Translational            0.889              2.981             43.585
 Rotational               0.889              2.981             35.224
 Vibrational            123.950             63.921             55.988
 Vibration     1          0.593              1.985              6.109
 Vibration     2          0.601              1.959              3.740
 Vibration     3          0.602              1.957              3.676
 Vibration     4          0.605              1.944              3.332
 Vibration     5          0.610              1.929              3.041
 Vibration     6          0.614              1.916              2.847
 Vibration     7          0.621              1.892              2.559
 Vibration     8          0.624              1.883              2.470
 Vibration     9          0.642              1.827              2.054
 Vibration    10          0.642              1.826              2.047
 Vibration    11          0.657              1.779              1.801
 Vibration    12          0.673              1.732              1.609
 Vibration    13          0.680              1.709              1.529
 Vibration    14          0.692              1.674              1.417
 Vibration    15          0.701              1.650              1.350
 Vibration    16          0.724              1.584              1.186
 Vibration    17          0.732              1.560              1.134
 Vibration    18          0.761              1.483              0.985
 Vibration    19          0.772              1.456              0.938
 Vibration    20          0.785              1.420              0.881
 Vibration    21          0.817              1.341              0.769
 Vibration    22          0.832              1.305              0.723
 Vibration    23          0.837              1.294              0.709
 Vibration    24          0.847              1.270              0.681
 Vibration    25          0.847              1.269              0.680
 Vibration    26          0.864              1.231              0.637
 Vibration    27          0.877              1.202              0.606
 Vibration    28          0.914              1.122              0.527
 Vibration    29          0.921              1.107              0.514
 Vibration    30          0.951              1.045              0.461
 Vibration    31          0.966              1.016              0.437

                           ! Non-Optimized Parameters !
 Normal termination of Gaussian 16 at Mon Jan  8 18:44:10 2024.
