 Gaussian 16, Revision A.03,
 Gaussian 16:  ES64L-G16RevA.03 25-Dec-2016

 ----------------------------------------------------------------------
 #P UB3LYP/6-311++G(d,p) nosym opt freq SCRF=(PCM,Solvent=n,n-DiMethylF
 ormamide)
 ----------------------------------------------------------------------

 --------
 Oxidized
 --------
 Symbolic Z-matrix:
 Charge =  0 Multiplicity = 1

 SCF Done:  E(UB3LYP) =  -613.926161264     A.U. after   14 cycles
 SCF Done:  E(UB3LYP) =  -613.926207874     A.U. after   10 cycles
 SCF Done:  E(UB3LYP) =  -613.926194466     A.U. after   10 cycles
 SCF Done:  E(UB3LYP) =  -613.926207819     A.U. after   10 cycles
 SCF Done:  E(UB3LYP) =  -613.926209986     A.U. after    9 cycles
 Optimization completed.
    -- Stationary point found.
 Normal termination of Gaussian 16 at Sun Feb 11 15:04:49 2024.

 ----------------------------------------------------------------------
 #P Geom=AllCheck Guess=TCheck SCRF=Check GenChk UB3LYP/6-311++G(d,p) F
 req
 ----------------------------------------------------------------------

 Structure from the checkpoint file:  "241.chk"
 --------
 Oxidized
 --------
 Charge =  0 Multiplicity = 1

                          Input orientation:
 ---------------------------------------------------------------------
 Center     Atomic      Atomic             Coordinates (Angstroms)
 Number     Number       Type             X           Y           Z
 ---------------------------------------------------------------------
      1          6           0       -2.439157    1.913791   -0.028403
      2          6           0       -1.315582    0.916757   -0.003305
      3          6           0       -1.542822   -0.413589    0.139692
      4          6           0       -2.931493   -0.968968    0.282100
      5          6           0       -0.415737   -1.391825    0.153995
      6          8           0       -0.632508   -2.592312    0.273629
      7          6           0        0.975546   -0.880196    0.018728
      8          6           0        2.050988   -1.771605    0.029658
      9          6           0        3.353234   -1.295770   -0.096844
     10          6           0        3.587756    0.073990   -0.234876
     11          6           0        2.520005    0.967353   -0.246383
     12          6           0        1.211106    0.495948   -0.120060
     13          6           0        0.071049    1.453061   -0.134005
     14          8           0        0.266221    2.657592   -0.250137
     15          1           0       -3.178139    1.649603   -0.790095
     16          1           0       -2.964036    1.929546    0.932588
     17          1           0       -2.064305    2.914505   -0.231863
     18          1           0       -2.902500   -2.040410    0.467857
     19          1           0       -3.514543   -0.791006   -0.627618
     20          1           0       -3.464563   -0.480280    1.102487
     21          1           0        1.854891   -2.830796    0.137338
     22          1           0        4.185080   -1.990230   -0.088147
     23          1           0        4.601760    0.443327   -0.333354
     24          1           0        2.687749    2.031509   -0.352984
 ---------------------------------------------------------------------

 SCF Done:  E(UB3LYP) =  -613.926209986     A.U. after    1 cycles

 Alpha  occ. eigenvalues --  -19.13397 -19.13396 -10.28263 -10.28261 -10.21380
 Alpha  occ. eigenvalues --  -10.21309 -10.20791 -10.20740 -10.19872 -10.19845
 Alpha  occ. eigenvalues --  -10.19809 -10.19784 -10.17369 -10.17367  -1.06622
 Alpha  occ. eigenvalues --   -1.06433  -0.89088  -0.85294  -0.78977  -0.77841
 Alpha  occ. eigenvalues --   -0.74977  -0.70312  -0.67903  -0.63341  -0.61449
 Alpha  occ. eigenvalues --   -0.58550  -0.55091  -0.52070  -0.50103  -0.47555
 Alpha  occ. eigenvalues --   -0.46561  -0.46067  -0.45654  -0.45211  -0.42609
 Alpha  occ. eigenvalues --   -0.42546  -0.42010  -0.41473  -0.40008  -0.39835
 Alpha  occ. eigenvalues --   -0.38920  -0.37778  -0.37131  -0.36848  -0.29124
 Alpha  occ. eigenvalues --   -0.29057  -0.27912  -0.27499  -0.27268
 Alpha virt. eigenvalues --   -0.12484  -0.05659  -0.03156  -0.00911   0.00099
 Alpha virt. eigenvalues --    0.01113   0.02288   0.02317   0.02426   0.03301
 Alpha virt. eigenvalues --    0.03599   0.04848   0.05050   0.05215   0.05587

  Beta  occ. eigenvalues --  -19.13397 -19.13396 -10.28263 -10.28261 -10.21380
  Beta  occ. eigenvalues --  -10.21309 -10.20791 -10.20740 -10.19872 -10.19845
  Beta  occ. eigenvalues --  -10.19809 -10.19784 -10.17369 -10.17367  -1.06622
  Beta  occ. eigenvalues --   -1.06433  -0.89088  -0.85294  -0.78977  -0.77841
  Beta  occ. eigenvalues --   -0.74977  -0.70312  -0.67903  -0.63341  -0.61449
  Beta  occ. eigenvalues --   -0.58550  -0.55091  -0.52070  -0.50103  -0.47555
  Beta  occ. eigenvalues --   -0.46561  -0.46067  -0.45654  -0.45211  -0.42609
  Beta  occ. eigenvalues --   -0.42546  -0.42010  -0.41473  -0.40008  -0.39835
  Beta  occ. eigenvalues --   -0.38920  -0.37778  -0.37131  -0.36848  -0.29124
  Beta  occ. eigenvalues --   -0.29057  -0.27912  -0.27499  -0.27268
  Beta virt. eigenvalues --   -0.12484  -0.05659  -0.03156  -0.00911   0.00099
  Beta virt. eigenvalues --    0.01113   0.02288   0.02317   0.02426   0.03301
  Beta virt. eigenvalues --    0.03599   0.04848   0.05050   0.05215   0.05587

 Mulliken charges and spin densities:
               1          2
     1  C   -0.421221  -0.000000
     2  C    0.913875  -0.000000
     3  C    0.915355  -0.000000
     4  C   -0.421279  -0.000000
     5  C   -1.235681   0.000000
     6  O   -0.283497   0.000000
     7  C    0.559140  -0.000000
     8  C   -0.047908   0.000000
     9  C   -0.433571   0.000000
    10  C   -0.433510   0.000000
    11  C   -0.048333   0.000000
    12  C    0.557615  -0.000000
    13  C   -1.235922   0.000000
    14  O   -0.283591  -0.000000
    15  H    0.170789  -0.000000
    16  H    0.185912  -0.000000
    17  H    0.196514   0.000000
    18  H    0.196618   0.000000
    19  H    0.185931  -0.000000
    20  H    0.170660  -0.000000
    21  H    0.188741   0.000000
    22  H    0.207259  -0.000000
    23  H    0.207271  -0.000000
    24  H    0.188834   0.000000
 Sum of Mulliken charges =  -0.00000  -0.00000

 Dipole moment (field-independent basis, Debye):
    X=              0.4719    Y=             -0.0848    Z=             -0.0340  Tot=              0.4807
 Quadrupole moment (field-independent basis, Debye-Ang):
   XX=            -60.4828   YY=            -97.3796   ZZ=            -82.7727
   XY=             -6.6202   XZ=             -0.8204   YZ=              1.7194

  Exact polarizability: 249.084   0.728 257.100  -9.144 -13.356 107.190
 Approx polarizability: 266.148  12.150 338.887 -10.066 -19.608 126.633

                      1                      2                      3
                      A                      A                      A
 Frequencies --     36.6012                45.0626                91.0256
 Red. masses --      1.1902                 4.2156                 1.0634
 Frc consts  --      0.0009                 0.0050                 0.0052
 IR Inten    --      1.3194                13.8162                 0.1472

                      4                      5                      6
                      A                      A                      A
 Frequencies --    103.3011               110.9066               168.2472
 Red. masses --      2.7992                 4.8882                 4.9970
 Frc consts  --      0.0176                 0.0354                 0.0833
 IR Inten    --      0.0010                 0.0022                 1.1719

                      7                      8                      9
                      A                      A                      A
 Frequencies --    252.3334               279.0300               317.6114
 Red. masses --      4.3140                 3.6258                 2.5969
 Frc consts  --      0.1618                 0.1663                 0.1543
 IR Inten    --      1.6248                 0.0571                 0.0014

                     10                     11                     12
                      A                      A                      A
 Frequencies --    345.3952               389.2301               419.7003
 Red. masses --      4.3558                 8.0491                 6.3428
 Frc consts  --      0.3062                 0.7185                 0.6583
 IR Inten    --      1.6137                 7.3193                 0.1282

                     13                     14                     15
                      A                      A                      A
 Frequencies --    423.7429               424.4349               431.2084
 Red. masses --      6.4532                 3.5193                 4.6170
 Frc consts  --      0.6827                 0.3735                 0.5058
 IR Inten    --     41.4083                 7.8246                 0.3568

                     16                     17                     18
                      A                      A                      A
 Frequencies --    507.2510               522.0578               621.2169
 Red. masses --      8.9430                 3.5916                 5.6508
 Frc consts  --      1.3557                 0.5767                 1.2848
 IR Inten    --      0.1735                 0.0931                 3.4274

                     19                     20                     21
                      A                      A                      A
 Frequencies --    669.6068               689.6404               698.1536
 Red. masses --      6.3252                 4.4198                 4.5445
 Frc consts  --      1.6709                 1.2385                 1.3051
 IR Inten    --      5.3661                 0.0784                 0.0228

                     22                     23                     24
                      A                      A                      A
 Frequencies --    714.5786               793.3700               801.2020
 Red. masses --      2.5139                 5.3585                 1.6390
 Frc consts  --      0.7563                 1.9872                 0.6199
 IR Inten    --    111.8415                 0.0614                29.5141

                     25                     26                     27
                      A                      A                      A
 Frequencies --    815.8961               908.9230               912.6483
 Red. masses --      3.6065                 3.6774                 1.3889
 Frc consts  --      1.4145                 1.7900                 0.6816
 IR Inten    --      0.8694                58.8228                 0.2324

                     28                     29                     30
                      A                      A                      A
 Frequencies --    966.8937               998.8300              1018.5403
 Red. masses --      4.4262                 1.3756                 1.6928
 Frc consts  --      2.4380                 0.8086                 1.0347
 IR Inten    --      7.1230                 1.4716               123.2748

                     31                     32                     33
                      A                      A                      A
 Frequencies --   1019.4586              1022.1999              1054.4457
 Red. masses --      1.4933                 1.3279                 1.6664
 Frc consts  --      0.9144                 0.8175                 1.0916
 IR Inten    --     14.0276                 0.0028                 1.4431

                     34                     35                     36
                      A                      A                      A
 Frequencies --   1055.7402              1103.8623              1128.7695
 Red. masses --      1.7702                 2.4313                 2.0157
 Frc consts  --      1.1625                 1.7455                 1.5132
 IR Inten    --      2.4335                 0.4883                 5.6010

                     37                     38                     39
                      A                      A                      A
 Frequencies --   1162.4965              1183.0135              1205.7202
 Red. masses --      2.5236                 1.2780                 2.3784
 Frc consts  --      2.0093                 1.0538                 2.0371
 IR Inten    --     26.7940                 0.0022                29.3726

                     40                     41                     42
                      A                      A                      A
 Frequencies --   1277.9067              1301.0006              1330.3757
 Red. masses --      1.9251                 6.2540                 3.1795
 Frc consts  --      1.8523                 6.2368                 3.3155
 IR Inten    --     96.8073               590.3923                59.6722

                     43                     44                     45
                      A                      A                      A
 Frequencies --   1360.2890              1394.8671              1399.4485
 Red. masses --      7.7026                 1.3046                 1.2004
 Frc consts  --      8.3975                 1.4956                 1.3851
 IR Inten    --     26.7087                21.5988                34.4121

                     46                     47                     48
                      A                      A                      A
 Frequencies --   1468.8780              1470.6165              1475.5429
 Red. masses --      1.0718                 1.1921                 1.0448
 Frc consts  --      1.3625                 1.5190                 1.3403
 IR Inten    --      0.3847                61.2480                 0.0131

                     49                     50                     51
                      A                      A                      A
 Frequencies --   1483.3264              1488.7999              1506.3821
 Red. masses --      2.0339                 1.0466                 2.6701
 Frc consts  --      2.6366                 1.3668                 3.5698
 IR Inten    --     10.0113                34.9645                 8.2121

                     52                     53                     54
                      A                      A                      A
 Frequencies --   1612.1740              1620.6122              1651.6570
 Red. masses --      6.9317                 6.0251                 9.2325
 Frc consts  --     10.6149                 9.3234                14.8392
 IR Inten    --      4.9911               285.6266                89.7124

                     55                     56                     57
                      A                      A                      A
 Frequencies --   1683.3918              1686.4970              3025.8698
 Red. masses --     11.7108                11.9596                 1.0412
 Frc consts  --     19.5528                20.0419                 5.6168
 IR Inten    --    931.7349                13.3485                34.6841

                     58                     59                     60
                      A                      A                      A
 Frequencies --   3029.7182              3070.3610              3078.5270
 Red. masses --      1.0425                 1.0975                 1.0982
 Frc consts  --      5.6379                 6.0958                 6.1322
 IR Inten    --      1.5232                29.9341                 1.8534

                     61                     62                     63
                      A                      A                      A
 Frequencies --   3143.5681              3143.9344              3177.9192
 Red. masses --      1.0969                 1.0974                 1.0874
 Frc consts  --      6.3866                 6.3906                 6.4705
 IR Inten    --      3.8926                17.3534                 3.4775

                     64                     65                     66
                      A                      A                      A
 Frequencies --   3190.2558              3202.6621              3205.6703
 Red. masses --      1.0915                 1.0926                 1.0955
 Frc consts  --      6.5451                 6.6028                 6.6328
 IR Inten    --     10.8596                 3.7979                16.5595

 - Thermochemistry -
 -------------------
 Temperature   298.150 Kelvin.  Pressure   1.00000 Atm.
 Atom     1 has atomic number  6 and mass  12.00000

 Molecular mass:   186.06808 amu.
 Principal axes and moments of inertia in atomic units:
                           1         2         3
     Eigenvalues --  1608.774872808.764144395.26512
           X            0.98378   0.16791   0.06314
           Y           -0.17317   0.98077   0.09002
           Z           -0.04681  -0.09950   0.99394
 This molecule is an asymmetric top.
 Rotational symmetry number  1.
 Warning -- assumption of classical behavior for rotation
           may cause significant error
 Rotational temperatures (Kelvin)      0.05384     0.03084     0.01971
 Rotational constants (GHZ):           1.12181     0.64254     0.41061
 Zero-point vibrational energy     489826.5 (Joules/Mol)
                                  117.07134 (Kcal/Mol)
 Warning -- explicit consideration of  17 degrees of freedom as
           vibrations may cause significant error
 Vibrational temperatures:     52.66    64.83   130.97   148.63   159.57
          (Kelvin)            242.07   363.05   401.46   456.97   496.95
                              560.02   603.86   609.67   610.67   620.41
                              729.82   751.12   893.79   963.41   992.24
                             1004.49  1028.12  1141.48  1152.75  1173.89
                             1307.74  1313.10  1391.14  1437.09  1465.45
                             1466.77  1470.72  1517.11  1518.97  1588.21
                             1624.05  1672.57  1702.09  1734.76  1838.62
                             1871.85  1914.11  1957.15  2006.90  2013.49
                             2113.39  2115.89  2122.98  2134.18  2142.05
                             2167.35  2319.56  2331.70  2376.37  2422.03
                             2426.49  4353.55  4359.09  4417.56  4429.31
                             4522.89  4523.42  4572.32  4590.07  4607.92
                             4612.24

 Zero-point correction=                           0.186565 (Hartree/Particle)
 Thermal correction to Energy=                    0.198890
 Thermal correction to Enthalpy=                  0.199834
 Thermal correction to Gibbs Free Energy=         0.146949
 Sum of electronic and zero-point Energies=           -613.739645
 Sum of electronic and thermal Energies=              -613.727320
 Sum of electronic and thermal Enthalpies=            -613.726376
 Sum of electronic and thermal Free Energies=         -613.779261

                     E (Thermal)             CV                S
                      KCal/Mol        Cal/Mol-Kelvin    Cal/Mol-Kelvin
 Total                  124.805             46.361            111.305
 Electronic               0.000              0.000              0.000
 Translational            0.889              2.981             41.569
 Rotational               0.889              2.981             31.363
 Vibrational            123.028             40.399             38.373
 Vibration     1          0.594              1.982              5.435
 Vibration     2          0.595              1.979              5.023
 Vibration     3          0.602              1.956              3.638
 Vibration     4          0.605              1.947              3.391
 Vibration     5          0.607              1.940              3.253
 Vibration     6          0.625              1.882              2.455
 Vibration     7          0.664              1.759              1.714
 Vibration     8          0.679              1.712              1.540
 Vibration     9          0.704              1.640              1.322
 Vibration    10          0.724              1.585              1.187
 Vibration    11          0.757              1.493              1.003
 Vibration    12          0.782              1.427              0.893
 Vibration    13          0.786              1.419              0.879
 Vibration    14          0.786              1.417              0.877
 Vibration    15          0.792              1.402              0.855
 Vibration    16          0.862              1.234              0.640
 Vibration    17          0.877              1.201              0.605

                           ! Non-Optimized Parameters !
 Normal termination of Gaussian 16 at Sun Feb 11 15:33:18 2024.
