 Gaussian 16, Revision A.03,
 Gaussian 16:  ES64L-G16RevA.03 25-Dec-2016

 ----------------------------------------------------------------
 #P UB3LYP/6-311++G(d,p) SCRF=(PCM,Solvent=n,n-DiMethylFormamide)
 ----------------------------------------------------------------

 ------------------
 Quinone PCM in DMF
 ------------------
 Symbolic Z-matrix:
 Charge =  0 Multiplicity = 1

                         Standard orientation:
 ---------------------------------------------------------------------
 Center     Atomic      Atomic             Coordinates (Angstroms)
 Number     Number       Type             X           Y           Z
 ---------------------------------------------------------------------
      1          6           0       -2.856626    1.362196    0.000254
      2          6           0       -3.865164    0.402650    0.000488
      3          6           0       -3.541398   -0.945225    0.000348
      4          6           0       -2.204274   -1.367051   -0.000005
      5          6           0       -1.165661   -0.408124   -0.000209
      6          6           0       -1.525456    0.959157   -0.000118
      7          6           0       -0.475982    2.024783   -0.000322
      8          6           0        0.936155    1.601207   -0.000140
      9          6           0        1.276326    0.306181   -0.000097
     10          6           0        0.267937   -0.817380   -0.000417
     11          8           0       -0.760873    3.211407   -0.000404
     12          8           0        0.640601   -1.970316   -0.000833
     13          1           0       -3.079315    2.421043    0.000406
     14          1           0       -4.327401   -1.694991    0.000563
     15          8           0       -1.902925   -2.684520   -0.000085
     16         35           0        3.099170   -0.222593    0.000282
     17          1           0       -4.906203    0.704123    0.000827
     18          1           0        1.670544    2.397055   -0.000024
     19          1           0       -2.718146   -3.199419    0.000219
 ---------------------------------------------------------------------

 SCF Done:  E(UB3LYP) =  -3184.05304610     A.U. after   16 cycles

 The electronic state is 1-A.
 Alpha  occ. eigenvalues -- -482.85121 -62.50393 -56.32435 -56.32055 -56.32012
 Alpha  occ. eigenvalues --  -19.17997 -19.14141 -19.14101 -10.29935 -10.29206
 Alpha  occ. eigenvalues --  -10.27630 -10.26901 -10.21974 -10.21856 -10.21707
 Alpha  occ. eigenvalues --  -10.20678 -10.20400 -10.19836  -8.71361  -6.54521
 Alpha  occ. eigenvalues --   -6.53247  -6.53123  -2.65615  -2.65269  -2.65175
 Alpha  occ. eigenvalues --   -2.64161  -2.64160  -1.09855  -1.07840  -1.07426
 Alpha  occ. eigenvalues --   -0.89755  -0.87048  -0.81181  -0.78058  -0.77170
 Alpha  occ. eigenvalues --   -0.70301  -0.66976  -0.64383  -0.61401  -0.56713
 Alpha  occ. eigenvalues --   -0.55300  -0.51744  -0.51439  -0.49086  -0.47742
 Alpha  occ. eigenvalues --   -0.46942  -0.46776  -0.44483  -0.43482  -0.43068
 Alpha  occ. eigenvalues --   -0.42516  -0.41348  -0.39335  -0.38770  -0.36708
 Alpha  occ. eigenvalues --   -0.35476  -0.31147  -0.29758  -0.29492  -0.28261
 Alpha  occ. eigenvalues --   -0.28163  -0.25927
 Alpha virt. eigenvalues --   -0.13353  -0.05427  -0.04505  -0.02746  -0.00776
 Alpha virt. eigenvalues --    0.00323   0.00790   0.02117   0.02439   0.02740
 Alpha virt. eigenvalues --    0.03501   0.03921   0.05183   0.05357   0.05676

  Beta  occ. eigenvalues -- -482.85121 -62.50393 -56.32435 -56.32055 -56.32012
  Beta  occ. eigenvalues --  -19.17997 -19.14141 -19.14101 -10.29935 -10.29206
  Beta  occ. eigenvalues --  -10.27630 -10.26901 -10.21974 -10.21856 -10.21707
  Beta  occ. eigenvalues --  -10.20678 -10.20400 -10.19836  -8.71361  -6.54521
  Beta  occ. eigenvalues --   -6.53247  -6.53123  -2.65615  -2.65269  -2.65175
  Beta  occ. eigenvalues --   -2.64161  -2.64160  -1.09855  -1.07840  -1.07426
  Beta  occ. eigenvalues --   -0.89755  -0.87048  -0.81181  -0.78058  -0.77170
  Beta  occ. eigenvalues --   -0.70301  -0.66976  -0.64383  -0.61401  -0.56713
  Beta  occ. eigenvalues --   -0.55300  -0.51744  -0.51439  -0.49086  -0.47742
  Beta  occ. eigenvalues --   -0.46942  -0.46776  -0.44483  -0.43482  -0.43068
  Beta  occ. eigenvalues --   -0.42516  -0.41348  -0.39335  -0.38770  -0.36708
  Beta  occ. eigenvalues --   -0.35476  -0.31147  -0.29758  -0.29492  -0.28261
  Beta  occ. eigenvalues --   -0.28163  -0.25927
  Beta virt. eigenvalues --   -0.13353  -0.05427  -0.04505  -0.02746  -0.00776
  Beta virt. eigenvalues --    0.00323   0.00790   0.02117   0.02439   0.02740
  Beta virt. eigenvalues --    0.03501   0.03921   0.05183   0.05357   0.05676

 Mulliken charges and spin densities:
               1          2
     1  C    0.306715  -0.000000
     2  C   -0.383472   0.000000
     3  C   -0.116287   0.000000
     4  C    0.184991   0.000000
     5  C    0.030234  -0.000000
     6  C    0.324089   0.000000
     7  C   -0.704132  -0.000000
     8  C    0.227327  -0.000000
     9  C    0.531938  -0.000000
    10  C   -0.807054   0.000000
    11  O   -0.279259  -0.000000
    12  O   -0.221214  -0.000000
    13  H    0.179737   0.000000
    14  H    0.188317  -0.000000
    15  O   -0.200684  -0.000000
    16  Br  -0.070373   0.000000
    17  H    0.226463  -0.000000
    18  H    0.270895  -0.000000
    19  H    0.311771  -0.000000
 Sum of Mulliken charges =  -0.00000   0.00000

 Dipole moment (field-independent basis, Debye):
    X=             -5.6993    Y=             -1.1645    Z=              0.0027  Tot=              5.8170
 Quadrupole moment (field-independent basis, Debye-Ang):
   XX=            -65.6543   YY=           -103.0637   ZZ=            -93.0409
   XY=             15.3360   XZ=             -0.0046   YZ=             -0.0029

 Normal termination of Gaussian 16 at Thu Jan 25 05:44:48 2024.
