 Q-Chem 5.4, Q-Chem, Inc., Pleasanton, CA (2021)
 Q-Chem 5.4.0 for Intel X86 EM64T Linux

User input:
--------------------------------------------------------------
$molecule
-1 2
C                  4.3904250000     -0.1112880000      0.0160680000
C                  2.9449670000      0.3099520000     -0.1007650000
C                  2.6141270000      1.6443970000     -0.4354130000
C                  1.3015060000      2.0491310000     -0.5355630000
C                  0.2382050000      1.1566260000     -0.3019530000
C                 -1.1351480000      1.6521110000     -0.4231320000
O                 -1.3805490000      2.8427310000     -0.7323650000
C                 -2.1979140000      0.6808610000     -0.1620450000
C                 -3.5463450000      1.0862560000     -0.2661090000
C                 -4.5774400000      0.2011510000     -0.0237730000
C                 -4.2893270000     -1.1333810000      0.3361180000
C                 -2.9782860000     -1.5511020000      0.4448890000
C                 -1.9075510000     -0.6634870000      0.1995870000
C                 -0.5354280000     -1.1593950000      0.3298990000
O                 -0.2844020000     -2.3375850000      0.6734640000
C                  0.5275500000     -0.1993460000      0.0445050000
C                  1.8926550000     -0.5617860000      0.1190410000
N                  2.2946120000     -1.9655520000      0.4285200000
O                  2.4024960000     -2.7393370000     -0.5120390000
O                  2.6323960000     -2.2114720000      1.5787810000
H                  5.0413620000      0.6512590000     -0.4168590000
H                  4.5838000000     -1.0546140000     -0.5016510000
H                  4.6802720000     -0.2503460000      1.0624600000
H                  3.4191650000      2.3490300000     -0.6202650000
H                  1.0432770000      3.0684870000     -0.7972760000
H                 -3.7367900000      2.1167900000     -0.5425570000
H                 -5.6090720000      0.5290980000     -0.1088710000
H                 -5.0999540000     -1.8301230000      0.5270630000
H                 -2.7286080000     -2.5690640000      0.7202410000
$end
$rem
MAX_SCF_CYCLES=200
BASIS  =  6-311++G(d,p)
GUI  =  2
JOB_TYPE  =  SP
METHOD  =  B3LYP
SOLVENT_METHOD = COSMO
$end
$solvent
dielectric 37.219
opticaldielectric 1.43
$end

--------------------------------------------------------------

             Standard Nuclear Orientation (Angstroms)
    I     Atom           X                Y                Z
 ----------------------------------------------------------------
    1      C       4.3279661393     0.6943749080     0.0326960694
    2      C       2.8356475195     0.9243964931     0.0099556944
    3      C       2.3151217404     2.2401626444     0.0103981524
    4      C       0.9570330672     2.4688976668     0.0009658691
    5      C       0.0335970101     1.4063496654    -0.0013615721
    6      C      -1.3976994905     1.7187811267    -0.0094304769
    7      O      -1.8131113896     2.9023205956    -0.0189153674
    8      C      -2.3090191264     0.5740381908    -0.0044619015
    9      C      -3.7027549223     0.7993423326    -0.0178469208
   10      C      -4.5951011751    -0.2537221511    -0.0096094921
   11      C      -4.1162141048    -1.5817340074     0.0140120019
   12      C      -2.7576731400    -1.8252585581     0.0285965174
   13      C      -1.8265035529    -0.7635018660     0.0184561736
   14      C      -0.3961304096    -1.0787441418     0.0352629414
   15      O       0.0240209705    -2.2579606802     0.0811302637
   16      C       0.5163181337     0.0612230969     0.0039836101
   17      C       1.9198662587    -0.1133108952    -0.0005525083
   18      N       2.5197279656    -1.4794630612    -0.0417818195
   19      O       2.7091152980    -1.9768475155    -1.1425881417
   20      O       2.9178526657    -1.9492163577     1.0158114902
   21      H       4.8559296782     1.6231250777    -0.1937996622
   22      H       4.6363409535    -0.0570491813    -0.6991219462
   23      H       4.6611850014     0.3458197844     1.0154265228
   24      H       3.0100672626     3.0743170453     0.0115227473
   25      H       0.5538043446     3.4746996980    -0.0046409885
   26      H      -4.0407969674     1.8289768569    -0.0343830014
   27      H      -5.6639937425    -0.0629366894    -0.0207931747
   28      H      -4.8176256650    -2.4105903758     0.0206816776
   29      H      -2.3627506643    -2.8342561553     0.0476896561
 ----------------------------------------------------------------

   11    -932.9069137247      7.82e-06  Convergence criterion met
 Total energy in the final basis set =     -932.9069137247
    5    -932.9891201708      4.90e-06  Convergence criterion met
 Total energy in the final basis set =     -932.9891201708

                    Orbital Energies (a.u.)
 --------------------------------------------------------------

 Alpha MOs
 -- Occupied --
-19.1764 -19.1757 -19.0872 -19.0862 -14.5647 -10.2361 -10.2349 -10.2349
-10.2053 -10.1970 -10.1850 -10.1820 -10.1808 -10.1800 -10.1787 -10.1758
-10.1752 -10.1734 -10.1732 -10.1715  -1.2505  -1.0774  -1.0182  -1.0135
 -0.8894  -0.8616  -0.8133  -0.7971  -0.7627  -0.7554  -0.7192  -0.6996
 -0.6626  -0.6377  -0.6247  -0.5937  -0.5740  -0.5651  -0.5371  -0.5353
 -0.5289  -0.5132  -0.4815  -0.4702  -0.4586  -0.4530  -0.4393  -0.4281
 -0.4255  -0.4241  -0.4237  -0.4099  -0.3933  -0.3920  -0.3828  -0.3731
 -0.3719  -0.3553  -0.3483  -0.3431  -0.3346  -0.3266  -0.3231  -0.2767
 -0.2671  -0.2615  -0.2583  -0.2544  -0.2490  -0.1512

 Beta MOs
 -- Occupied --
-19.1763 -19.1757 -19.0815 -19.0809 -14.5647 -10.2346 -10.2342 -10.2332
-10.2049 -10.1960 -10.1841 -10.1814 -10.1808 -10.1794 -10.1780 -10.1754
-10.1747 -10.1734 -10.1731 -10.1715  -1.2504  -1.0774  -1.0082  -1.0040
 -0.8875  -0.8598  -0.8107  -0.7950  -0.7610  -0.7533  -0.7178  -0.6956
 -0.6581  -0.6358  -0.6226  -0.5933  -0.5725  -0.5637  -0.5370  -0.5339
 -0.5270  -0.5114  -0.4792  -0.4688  -0.4572  -0.4523  -0.4335  -0.4273
 -0.4240  -0.4186  -0.4149  -0.4077  -0.3913  -0.3817  -0.3723  -0.3713
 -0.3682  -0.3540  -0.3422  -0.3394  -0.3323  -0.3238  -0.3227  -0.2639
 -0.2554  -0.2532  -0.2531  -0.2493  -0.2440

          Ground-State Mulliken Net Atomic Charges

     Atom                 Charge (a.u.)    Spin (a.u.)
  --------------------------------------------------------
      1 C                    -0.526501       0.000355
      2 C                     0.771792       0.022025
      3 C                    -0.971223       0.054392
      4 C                    -0.172440       0.003219
      5 C                     0.555512       0.045928
      6 C                    -0.546694       0.095679
      7 O                    -0.468447       0.194183
      8 C                     0.091898       0.020742
      9 C                     0.101624       0.028519
     10 C                    -0.431774       0.036875
     11 C                    -0.463615       0.027728
     12 C                     0.094710       0.038924
     13 C                     0.088868       0.025153
     14 C                    -0.562610       0.100248
     15 O                    -0.422395       0.214703
     16 C                     0.058780       0.061801
     17 C                     0.276549       0.042588
     18 N                    -0.166396      -0.003732
     19 O                    -0.027680       0.000210
     20 O                    -0.026962       0.002268
     21 H                     0.188617       0.000156
     22 H                     0.187557       0.000397
     23 H                     0.214355       0.001046
     24 H                     0.197133      -0.004215
     25 H                     0.183709      -0.000675
     26 H                     0.180626      -0.001341
     27 H                     0.206823      -0.002851
     28 H                     0.208421      -0.002469
     29 H                     0.179763      -0.001854
  --------------------------------------------------------
  Sum of atomic charges =    -1.000000

                    Cartesian Multipole Moments
 -----------------------------------------------------------------
    Charge (ESU x 10^10)
                -4.8032
    Dipole Moment (Debye)
         X       1.4105      Y       3.1502      Z       0.0179
       Tot       3.4516
    Quadrupole Moments (Debye-Ang)
        XX    -118.3072     XY      29.9853     YY    -151.2820
        XZ       0.0205     YZ       0.2205     ZZ    -124.6814

 Total job time:  116.67s(wall), 833.98s(cpu)
        *  Thank you very much for using Q-Chem.  Have a nice day.  *
