 Q-Chem 5.4, Q-Chem, Inc., Pleasanton, CA (2021)
 Q-Chem 5.4.0 for Intel X86 EM64T Linux

User input:
--------------------------------------------------------------
$molecule
0 1
O                  0.1245830000      0.4111350000      2.6509660000
C                  0.0678470000      0.2238980000      1.4432210000
C                 -1.2096040000      0.1119060000      0.7087730000
C                 -2.4408460000      0.2174090000      1.3770760000
C                 -3.6329730000      0.1114660000      0.6838320000
C                 -3.6144560000     -0.1038480000     -0.7028260000
C                 -2.4141800000     -0.2116300000     -1.3863480000
C                 -1.2155790000     -0.1030050000     -0.6760010000
O                 -0.0661920000     -0.2179290000     -1.4064430000
C                  1.1469450000     -0.1231330000     -0.7838510000
C                  2.2735480000     -0.2514500000     -1.6007390000
C                  3.5328830000     -0.1648550000     -1.0294600000
C                  3.6814700000      0.0485850000      0.3495050000
C                  2.5595500000      0.1742170000      1.1487350000
C                  1.2710110000      0.0905180000      0.5955720000
H                 -2.4172350000      0.3835040000      2.4474160000
H                 -4.5781410000      0.1939840000      1.2068550000
H                 -4.5468360000     -0.1874460000     -1.2495290000
H                 -2.3788870000     -0.3777220000     -2.4559490000
H                  2.1382170000     -0.4158250000     -2.6625600000
H                  4.4100730000     -0.2637240000     -1.6587370000
H                  4.6717940000      0.1143500000      0.7838790000
H                  2.6370070000      0.3395930000      2.2166140000
$end
$rem
MAX_SCF_CYCLES=200
BASIS  =  6-311++G(d,p)
GUI  =  2
JOB_TYPE  =  SP
METHOD  =  B3LYP
SOLVENT_METHOD = COSMO
$end
$solvent
dielectric 37.219
opticaldielectric 1.43
$end

--------------------------------------------------------------

             Standard Nuclear Orientation (Angstroms)
    I     Atom           X                Y                Z
 ----------------------------------------------------------------
    1      O       0.0000516525     2.5926922318     0.0000653687
    2      C      -0.0000063497     1.3692035114     0.0000911901
    3      C       1.2415821625     0.5677703611     0.0001375254
    4      C       2.5029047808     1.1864640639     0.0001509542
    5      C       3.6611939836     0.4305910312    -0.0000165566
    6      C       3.5775569881    -0.9703116156    -0.0002006754
    7      C       2.3464527448    -1.6058146462    -0.0001785444
    8      C       1.1825001876    -0.8323477688     0.0000270470
    9      O       0.0000271361    -1.5176221610     0.0001094731
   10      C      -1.1825698715    -0.8322224395     0.0001225455
   11      C      -2.3463441596    -1.6059374897     0.0001880919
   12      C      -3.5775018063    -0.9703009143     0.0000302900
   13      C      -3.6611557015     0.4304778575    -0.0002139279
   14      C      -2.5028883801     1.1865686529    -0.0002191354
   15      C      -1.2417065137     0.5679024737    -0.0000192165
   16      H       2.5295989269     2.2695430809     0.0002471247
   17      H       4.6299229298     0.9156364474    -0.0000286110
   18      H       4.4832599121    -1.5660527043    -0.0003705635
   19      H       2.2609519178    -2.6854294116    -0.0002989253
   20      H      -2.2610352664    -2.6855299271     0.0003224218
   21      H      -4.4833162534    -1.5658906251     0.0000726899
   22      H      -4.6300202421     0.9152962894    -0.0003628834
   23      H      -2.5301006234     2.2696078192    -0.0003775141
 ----------------------------------------------------------------

    9    -650.8326262745      2.96e-06  Convergence criterion met
 Total energy in the final basis set =     -650.8326262745
    5    -650.8454673054      3.93e-06  Convergence criterion met
 Total energy in the final basis set =     -650.8454673054

                    Orbital Energies (a.u.)
 --------------------------------------------------------------

 Alpha MOs
 -- Occupied --
-19.2058 -19.1171 -10.2750 -10.2660 -10.2659 -10.2004 -10.2004 -10.1958
-10.1958 -10.1935 -10.1935 -10.1913 -10.1913 -10.1864 -10.1864  -1.1275
 -1.0534  -0.8874  -0.8756  -0.8006  -0.7919  -0.7699  -0.7516  -0.6744
 -0.6670  -0.6177  -0.6165  -0.5808  -0.5679  -0.5212  -0.5037  -0.4870
 -0.4843  -0.4841  -0.4550  -0.4506  -0.4462  -0.4449  -0.4187  -0.4123
 -0.3964  -0.3935  -0.3755  -0.3731  -0.3579  -0.3547  -0.2817  -0.2800
 -0.2755  -0.2745  -0.2443

          Ground-State Mulliken Net Atomic Charges

     Atom                 Charge (a.u.)
  ----------------------------------------
      1 O                    -0.374379
      2 C                    -0.304283
      3 C                     1.185098
      4 C                     0.398399
      5 C                    -0.334718
      6 C                    -0.364478
      7 C                    -0.389824
      8 C                    -1.013106
      9 O                    -0.049069
     10 C                    -1.014201
     11 C                    -0.388977
     12 C                    -0.364018
     13 C                    -0.334561
     14 C                     0.398207
     15 C                     1.183906
     16 H                     0.209297
     17 H                     0.216497
     18 H                     0.224552
     19 H                     0.232562
     20 H                     0.232594
     21 H                     0.224581
     22 H                     0.216550
     23 H                     0.209368
  ----------------------------------------
  Sum of atomic charges =     0.000000

                    Cartesian Multipole Moments
 -----------------------------------------------------------------
    Charge (ESU x 10^10)
                 0.0000
    Dipole Moment (Debye)
         X      -0.0018      Y      -4.6847      Z       0.0003
       Tot       4.6847
    Quadrupole Moments (Debye-Ang)
        XX     -59.3682     XY      -0.0007     YY     -90.2933
        XZ      -0.0001     YZ      -0.0000     ZZ     -90.3892

 Total job time:  34.64s(wall), 253.93s(cpu)
        *  Thank you very much for using Q-Chem.  Have a nice day.  *
