 Q-Chem 5.4, Q-Chem, Inc., Pleasanton, CA (2021)
 Q-Chem 5.4.0 for Intel X86 EM64T Linux

User input:
--------------------------------------------------------------
$molecule
-2 1
C                 -1.5931220000     -1.3869650000     -0.1672470000
C                 -0.2560350000     -0.6836090000     -0.1104480000
C                 -0.1838650000      0.7005030000      0.1430990000
C                 -1.4401100000      1.5035810000      0.3936600000
C                  1.0685770000      1.4160150000      0.2103640000
O                  1.1511570000      2.6875830000      0.4856530000
C                  2.2173540000      0.5999570000     -0.0325960000
C                  2.1453240000     -0.7677160000     -0.2931360000
C                  0.9143140000     -1.4922840000     -0.3584690000
O                  0.8579340000     -2.7649040000     -0.6355780000
H                 -1.4185910000     -2.4657550000     -0.1445300000
H                 -2.1544400000     -1.1693390000     -1.0995720000
H                 -2.2557630000     -1.1005300000      0.6579250000
H                 -1.8706250000      1.3256710000      1.4009700000
H                 -2.2384040000      1.2719150000     -0.3211900000
H                 -1.1894090000      2.5660070000      0.3373030000
H                  3.1881350000      1.0968840000      0.0147910000
H                  3.0575680000     -1.3370150000     -0.4810000000
$end
$rem
MAX_SCF_CYCLES=200
BASIS  =  6-311++G(d,p)
GUI  =  2
JOB_TYPE  =  SP
METHOD  =  B3LYP
SOLVENT_METHOD = COSMO
$end
$solvent
dielectric 37.219
opticaldielectric 1.43
$end

--------------------------------------------------------------

             Standard Nuclear Orientation (Angstroms)
    I     Atom           X                Y                Z
 ----------------------------------------------------------------
    1      C      -1.4740740606    -1.9182203244    -0.0109508218
    2      C      -0.7043651866    -0.6169581981    -0.0125516883
    3      C       0.7044012927    -0.6168639605     0.0126993833
    4      C       1.4742825159    -1.9180735432     0.0109350059
    5      C       1.4836471453     0.5988061857     0.0088312460
    6      O       2.7870827137     0.6119634092    -0.0104372536
    7      C       0.6969369371     1.7928557166     0.0075731750
    8      C      -0.6971111494     1.7927920635    -0.0075521696
    9      C      -1.4837188003     0.5986816489    -0.0087885678
   10      O      -2.7871725303     0.6118082357     0.0103382002
   11      H      -2.5164860044    -1.7047096578    -0.2610618588
   12      H      -1.4745514678    -2.4165539259     0.9806802952
   13      H      -1.0653846473    -2.6508750151    -0.7168098738
   14      H       1.4765431408    -2.4151942418    -0.9813020978
   15      H       1.0645418353    -2.6515355796     0.7152779511
   16      H       2.5162849534    -1.7047140999     0.2628968612
   17      H       1.2435430853     2.7376947711    -0.0023566226
   18      H      -1.2437645269     2.7375970589     0.0022943971
 ----------------------------------------------------------------

   15    -460.1801834547      3.34e-06  Convergence criterion met
 Total energy in the final basis set =     -460.1801834547
    6    -460.4876620884      3.58e-06  Convergence criterion met
 Total energy in the final basis set =     -460.4876620884

                    Orbital Energies (a.u.)
 --------------------------------------------------------------

 Alpha MOs
 -- Occupied --
-19.0155 -19.0155 -10.1637 -10.1637 -10.1337 -10.1337 -10.1260 -10.1255
-10.1179 -10.1173  -0.9268  -0.9237  -0.7828  -0.7288  -0.6945  -0.6264
 -0.6246  -0.5304  -0.5095  -0.4447  -0.4211  -0.4008  -0.3910  -0.3703
 -0.3621  -0.3593  -0.3540  -0.3512  -0.3366  -0.3098  -0.3060  -0.3016
 -0.2244  -0.1991  -0.1990  -0.1925  -0.1173

          Ground-State Mulliken Net Atomic Charges

     Atom                 Charge (a.u.)
  ----------------------------------------
      1 C                    -0.537984
      2 C                     0.565617
      3 C                     0.565759
      4 C                    -0.537723
      5 C                    -0.787974
      6 O                    -0.790091
      7 C                    -0.030731
      8 C                    -0.030725
      9 C                    -0.789051
     10 O                    -0.790099
     11 H                     0.157247
     12 H                     0.150052
     13 H                     0.137388
     14 H                     0.150063
     15 H                     0.137306
     16 H                     0.157087
     17 H                     0.136929
     18 H                     0.136931
  ----------------------------------------
  Sum of atomic charges =    -2.000000

                    Cartesian Multipole Moments
 -----------------------------------------------------------------
    Charge (ESU x 10^10)
                -9.6064
    Dipole Moment (Debye)
         X       0.0005      Y      -6.3077      Z      -0.0009
       Tot       6.3077
    Quadrupole Moments (Debye-Ang)
        XX    -134.5725     XY      -0.0016     YY     -74.3143
        XZ       0.1680     YZ       0.0006     ZZ     -69.2323

 Total job time:  23.74s(wall), 173.58s(cpu)
        *  Thank you very much for using Q-Chem.  Have a nice day.  *
