 Q-Chem 5.4, Q-Chem, Inc., Pleasanton, CA (2021)
 Q-Chem 5.4.0 for Intel X86 EM64T Linux

User input:
--------------------------------------------------------------
$molecule
0 1
C                  5.7445380000     -5.2911960000      1.3745770000
C                  6.6991810000     -5.1852120000      0.3727110000
C                  6.5885230000     -4.2181620000     -0.6397380000
C                  4.6456770000     -4.4276110000      1.3919060000
C                  4.5210730000     -3.4549280000      0.3857960000
C                  5.4891410000     -3.3594910000     -0.6162070000
C                  3.6236370000     -4.5446350000      2.4683260000
C                  2.4824190000     -3.5955450000      2.4255910000
C                  2.3609830000     -2.6669220000      1.4673230000
C                  3.3583610000     -2.5188500000      0.3782000000
O                  3.7004180000     -5.3777590000      3.3574530000
O                  3.2151940000     -1.6614070000     -0.4783340000
H                  5.8313280000     -6.0376540000      2.1548370000
H                  7.5477480000     -5.8620450000      0.3707460000
H                  1.7541320000     -3.7046870000      3.2220630000
H                  1.5278570000     -1.9730190000      1.4349360000
C                  7.6360170000     -4.1182990000     -1.7197750000
H                  5.3643570000     -2.5986100000     -1.3780870000
H                  7.7132390000     -5.0558350000     -2.2786810000
H                  8.6221950000     -3.9148210000     -1.2915310000
H                  7.4043010000     -3.3212160000     -2.4276630000
$end
$rem
MAX_SCF_CYCLES=200
BASIS  =  6-311++G(d,p)
GUI  =  2
JOB_TYPE  =  SP
METHOD  =  B3LYP
SOLVENT_METHOD = PCM
$end
$pcm
theory = CPCM
$end
$solvent
dielectric 37.219
opticaldielectric 1.43
$end

--------------------------------------------------------------

             Standard Nuclear Orientation (Angstroms)
    I     Atom           X                Y                Z
 ----------------------------------------------------------------
    1      C       5.7445380000    -5.2911960000     1.3745770000
    2      C       6.6991810000    -5.1852120000     0.3727110000
    3      C       6.5885230000    -4.2181620000    -0.6397380000
    4      C       4.6456770000    -4.4276110000     1.3919060000
    5      C       4.5210730000    -3.4549280000     0.3857960000
    6      C       5.4891410000    -3.3594910000    -0.6162070000
    7      C       3.6236370000    -4.5446350000     2.4683260000
    8      C       2.4824190000    -3.5955450000     2.4255910000
    9      C       2.3609830000    -2.6669220000     1.4673230000
   10      C       3.3583610000    -2.5188500000     0.3782000000
   11      O       3.7004180000    -5.3777590000     3.3574530000
   12      O       3.2151940000    -1.6614070000    -0.4783340000
   13      H       5.8313280000    -6.0376540000     2.1548370000
   14      H       7.5477480000    -5.8620450000     0.3707460000
   15      H       1.7541320000    -3.7046870000     3.2220630000
   16      H       1.5278570000    -1.9730190000     1.4349360000
   17      C       7.6360170000    -4.1182990000    -1.7197750000
   18      H       5.3643570000    -2.5986100000    -1.3780870000
   19      H       7.7132390000    -5.0558350000    -2.2786810000
   20      H       8.6221950000    -3.9148210000    -1.2915310000
   21      H       7.4043010000    -3.3212160000    -2.4276630000
 ----------------------------------------------------------------

    8    -574.6004335251      8.84e-06  Convergence criterion met
 Total energy in the final basis set =     -574.6004335251

                    Orbital Energies (a.u.)
 --------------------------------------------------------------

 Alpha MOs
 -- Occupied --
-19.1387 -19.1374 -10.2862 -10.2852 -10.2112 -10.2103 -10.2070 -10.2066
-10.2046 -10.1962 -10.1933 -10.1927 -10.1702  -1.0712  -1.0691  -0.8910
 -0.8422  -0.7924  -0.7763  -0.7158  -0.6928  -0.6470  -0.6231  -0.5908
 -0.5392  -0.5230  -0.5099  -0.4768  -0.4643  -0.4606  -0.4543  -0.4482
 -0.4300  -0.4265  -0.4220  -0.4214  -0.3926  -0.3745  -0.3687  -0.3625
 -0.3101  -0.2911  -0.2794  -0.2785  -0.2692

          Ground-State Mulliken Net Atomic Charges

     Atom                 Charge (a.u.)
  ----------------------------------------
      1 C                     0.236145
      2 C                    -0.400713
      3 C                     0.455579
      4 C                     0.125518
      5 C                     0.104234
      6 C                    -0.151703
      7 C                    -0.806312
      8 C                     0.244559
      9 C                     0.020387
     10 C                    -0.443602
     11 O                    -0.306739
     12 O                    -0.299957
     13 H                     0.195310
     14 H                     0.223041
     15 H                     0.252542
     16 H                     0.254396
     17 C                    -0.412863
     18 H                     0.163450
     19 H                     0.182117
     20 H                     0.182467
     21 H                     0.182147
  ----------------------------------------
  Sum of atomic charges =     0.000000

                    Cartesian Multipole Moments
 -----------------------------------------------------------------
    Charge (ESU x 10^10)
                 0.0000
    Dipole Moment (Debye)
         X       2.3805      Y      -0.6415      Z      -1.4543
       Tot       2.8624
    Quadrupole Moments (Debye-Ang)
        XX     -39.8847     XY     -16.1814     YY     -77.9145
        XZ     -13.6277     YZ      16.2902     ZZ     -83.4347

 Total job time:  26.77s(wall), 151.75s(cpu)
        *  Thank you very much for using Q-Chem.  Have a nice day.  *
