 Gaussian 16, Revision A.03,
 Gaussian 16:  ES64L-G16RevA.03 25-Dec-2016

 ----------------------------------------------------------------
 #P UB3LYP/6-311++G(d,p) SCRF=(PCM,Solvent=n,n-DiMethylFormamide)
 ----------------------------------------------------------------

 ------------------
 Quinone PCM in DMF
 ------------------
 Symbolic Z-matrix:
 Charge =  0 Multiplicity = 1

                         Standard orientation:
 ---------------------------------------------------------------------
 Center     Atomic      Atomic             Coordinates (Angstroms)
 Number     Number       Type             X           Y           Z
 ---------------------------------------------------------------------
      1          6           0       -2.550854    1.111975    0.058339
      2          6           0       -3.613742    0.213591    0.063462
      3          6           0       -3.367448   -1.159668    0.022785
      4          6           0       -1.238329    0.635768    0.017575
      5          6           0       -0.989805   -0.745058   -0.019201
      6          6           0       -2.059568   -1.638529   -0.021622
      7          6           0       -0.109590    1.592872   -0.010234
      8          6           0        1.285674    1.041733   -0.027164
      9          6           0        1.512496   -0.306485    0.018991
     10          6           0        0.411940   -1.275831   -0.052244
     11          8           0       -0.267702    2.804384   -0.040082
     12          8           0        0.624357   -2.476854   -0.136156
     13          7           0        2.255059    1.997664   -0.039928
     14         16           0        3.142443   -1.020091    0.065815
     15          1           0       -2.717856    2.181760    0.082356
     16          1           0       -4.632587    0.581908    0.096628
     17          1           0       -4.196377   -1.858344    0.025443
     18          1           0       -1.847886   -2.699989   -0.055333
     19          1           0        1.924424    2.942420   -0.188600
     20          1           0        3.166024    1.763018   -0.403921
     21          1           0        3.701873   -0.015420    0.775660
 ---------------------------------------------------------------------

 SCF Done:  E(UB3LYP) =  -988.876659373     A.U. after   17 cycles

 The electronic state is 1-A.
 Alpha  occ. eigenvalues --  -88.87227 -19.14578 -19.12806 -14.35292 -10.29481
 Alpha  occ. eigenvalues --  -10.28281 -10.25713 -10.22596 -10.21160 -10.21106
 Alpha  occ. eigenvalues --  -10.20166 -10.20060 -10.19890 -10.19873  -7.95870
 Alpha  occ. eigenvalues --   -5.92231  -5.91877  -5.91284  -1.08105  -1.06401
 Alpha  occ. eigenvalues --   -0.95584  -0.89280  -0.83777  -0.79442  -0.78132
 Alpha  occ. eigenvalues --   -0.74059  -0.69271  -0.64933  -0.63508  -0.59884
 Alpha  occ. eigenvalues --   -0.57996  -0.54689  -0.51878  -0.50793  -0.49242
 Alpha  occ. eigenvalues --   -0.46980  -0.46574  -0.45684  -0.45416  -0.44478
 Alpha  occ. eigenvalues --   -0.43324  -0.42490  -0.39658  -0.38502  -0.37753
 Alpha  occ. eigenvalues --   -0.37086  -0.36120  -0.30402  -0.29660  -0.28813
 Alpha  occ. eigenvalues --   -0.28187  -0.28031  -0.23138
 Alpha virt. eigenvalues --   -0.12436  -0.05665  -0.02777  -0.01375  -0.00096
 Alpha virt. eigenvalues --    0.00997   0.01274   0.02044   0.02227   0.02453
 Alpha virt. eigenvalues --    0.03709   0.04087   0.04736   0.05101   0.05566

  Beta  occ. eigenvalues --  -88.87227 -19.14578 -19.12806 -14.35292 -10.29481
  Beta  occ. eigenvalues --  -10.28281 -10.25713 -10.22596 -10.21160 -10.21106
  Beta  occ. eigenvalues --  -10.20166 -10.20060 -10.19890 -10.19873  -7.95870
  Beta  occ. eigenvalues --   -5.92231  -5.91877  -5.91284  -1.08105  -1.06401
  Beta  occ. eigenvalues --   -0.95584  -0.89280  -0.83777  -0.79442  -0.78132
  Beta  occ. eigenvalues --   -0.74059  -0.69271  -0.64933  -0.63508  -0.59884
  Beta  occ. eigenvalues --   -0.57996  -0.54689  -0.51878  -0.50793  -0.49242
  Beta  occ. eigenvalues --   -0.46980  -0.46574  -0.45684  -0.45416  -0.44478
  Beta  occ. eigenvalues --   -0.43324  -0.42490  -0.39658  -0.38502  -0.37753
  Beta  occ. eigenvalues --   -0.37086  -0.36120  -0.30402  -0.29660  -0.28813
  Beta  occ. eigenvalues --   -0.28187  -0.28031  -0.23138
  Beta virt. eigenvalues --   -0.12436  -0.05665  -0.02777  -0.01375  -0.00096
  Beta virt. eigenvalues --    0.00997   0.01274   0.02044   0.02227   0.02453
  Beta virt. eigenvalues --    0.03709   0.04087   0.04736   0.05101   0.05566

 Mulliken charges and spin densities:
               1          2
     1  C    0.127926  -0.000000
     2  C   -0.346335  -0.000000
     3  C   -0.354734  -0.000000
     4  C    0.343139  -0.000000
     5  C    0.605932   0.000000
     6  C    0.186380  -0.000000
     7  C   -1.110191  -0.000000
     8  C    0.008064   0.000000
     9  C    1.880456  -0.000000
    10  C   -1.435232  -0.000000
    11  O   -0.289483   0.000000
    12  O   -0.273827   0.000000
    13  N   -0.317987  -0.000000
    14  S   -0.498072   0.000000
    15  H    0.183043   0.000000
    16  H    0.212417   0.000000
    17  H    0.213562   0.000000
    18  H    0.181150  -0.000000
    19  H    0.311122  -0.000000
    20  H    0.280351  -0.000000
    21  H    0.092320   0.000000
 Sum of Mulliken charges =  -0.00000  -0.00000

 Dipole moment (field-independent basis, Debye):
    X=             -1.1374    Y=              3.4331    Z=             -0.0670  Tot=              3.6173
 Quadrupole moment (field-independent basis, Debye-Ang):
   XX=            -64.6441   YY=            -99.5380   ZZ=            -90.3249
   XY=             14.6128   XZ=             -0.2118   YZ=             -1.6842

 Normal termination of Gaussian 16 at Sun Jan 21 08:07:40 2024.
