 Gaussian 16, Revision A.03,
 Gaussian 16:  ES64L-G16RevA.03 25-Dec-2016

 ----------------------------------------------------------------------
 #P UB3LYP/6-311++G(d,p) nosym opt freq SCRF=(PCM,Solvent=n,n-DiMethylF
 ormamide)
 ----------------------------------------------------------------------

 -------
 Reduced
 -------
 Symbolic Z-matrix:
 Charge = -2 Multiplicity = 1

 SCF Done:  E(UB3LYP) =  -843.082528539     A.U. after   17 cycles
 SCF Done:  E(UB3LYP) =  -843.084336238     A.U. after   13 cycles
 SCF Done:  E(UB3LYP) =  -843.084615476     A.U. after   12 cycles
 SCF Done:  E(UB3LYP) =  -843.084625533     A.U. after   12 cycles
 SCF Done:  E(UB3LYP) =  -843.084632956     A.U. after   11 cycles
 SCF Done:  E(UB3LYP) =  -843.084635046     A.U. after   11 cycles
 SCF Done:  E(UB3LYP) =  -843.084636255     A.U. after   10 cycles
 SCF Done:  E(UB3LYP) =  -843.084637126     A.U. after   10 cycles
 SCF Done:  E(UB3LYP) =  -843.084637603     A.U. after    9 cycles
 SCF Done:  E(UB3LYP) =  -843.084637695     A.U. after    9 cycles
 SCF Done:  E(UB3LYP) =  -843.084637750     A.U. after    9 cycles
 Optimization completed.
    -- Stationary point found.
 Normal termination of Gaussian 16 at Sat Feb 10 23:24:48 2024.

 ----------------------------------------------------------------------
 #P Geom=AllCheck Guess=TCheck SCRF=Check GenChk UB3LYP/6-311++G(d,p) F
 req
 ----------------------------------------------------------------------

 Structure from the checkpoint file:  "214-an.chk"
 -------
 Reduced
 -------
 Charge = -2 Multiplicity = 1

                          Input orientation:
 ---------------------------------------------------------------------
 Center     Atomic      Atomic             Coordinates (Angstroms)
 Number     Number       Type             X           Y           Z
 ---------------------------------------------------------------------
      1          6           0        5.069783   -2.269390    0.660769
      2          6           0        5.885188   -1.441631   -0.075486
      3          6           0        5.311246   -0.549595   -1.025902
      4          6           0        3.651580   -2.274996    0.514582
      5          6           0        3.065973   -1.362021   -0.452978
      6          6           0        3.946299   -0.523440   -1.196226
      7          6           0        2.855348   -3.166453    1.313420
      8          6           0        1.437620   -3.087506    1.091216
      9          6           0        0.853350   -2.176314    0.125038
     10          6           0        1.647584   -1.284827   -0.675847
     11          6           0        0.556668   -3.926711    1.835477
     12          6           0       -0.563462   -2.191230   -0.020933
     13          6           0       -1.373859   -3.020343    0.716969
     14          8           0        3.383115   -3.987486    2.180394
     15          8           0        1.119440   -0.466326   -1.543179
     16          1           0        5.493621   -2.952783    1.388324
     17          1           0        6.961781   -1.465612    0.064803
     18          1           0        5.950305    0.105279   -1.610626
     19          1           0       -2.450190   -3.003988    0.566137
     20          1           0        3.495518    0.151288   -1.915593
     21          1           0        1.013071   -4.601545    2.552517
     22          1           0       -0.993042   -1.516805   -0.753589
     23          6           0       -0.811604   -3.916571    1.678519
     24          6           0       -1.713912   -4.806886    2.505409
     25          6           0       -2.420306   -4.049810    3.627981
     26          8           0       -3.278165   -4.968560    4.327468
     27          1           0       -1.132596   -5.621061    2.949132
     28          1           0       -2.481875   -5.265593    1.870482
     29          1           0       -3.011689   -3.224029    3.215121
     30          1           0       -1.678370   -3.626996    4.315911
     31          1           0       -3.710648   -4.493620    5.045112
 ---------------------------------------------------------------------

 SCF Done:  E(UB3LYP) =  -843.084637750     A.U. after    1 cycles

 Alpha  occ. eigenvalues --  -19.12447 -19.01683 -19.01573 -10.21151 -10.17147
 Alpha  occ. eigenvalues --  -10.17032 -10.16164 -10.15646 -10.14802 -10.14753
 Alpha  occ. eigenvalues --  -10.14704 -10.14593 -10.14556 -10.14533 -10.14293
 Alpha  occ. eigenvalues --  -10.13593 -10.13554 -10.13553 -10.13500  -1.02078
 Alpha  occ. eigenvalues --   -0.92855  -0.92412  -0.83034  -0.82159  -0.77335
 Alpha  occ. eigenvalues --   -0.74161  -0.72186  -0.71728  -0.69685  -0.63925
 Alpha  occ. eigenvalues --   -0.61881  -0.60053  -0.57388  -0.55856  -0.52476
 Alpha  occ. eigenvalues --   -0.51766  -0.50251  -0.48229  -0.46737  -0.43705
 Alpha  occ. eigenvalues --   -0.43252  -0.42717  -0.41386  -0.41216  -0.39742
 Alpha  occ. eigenvalues --   -0.39521  -0.37811  -0.37676  -0.36454  -0.36056
 Alpha  occ. eigenvalues --   -0.34995  -0.34875  -0.34217  -0.33131  -0.32007
 Alpha  occ. eigenvalues --   -0.31482  -0.31189  -0.29555  -0.29434  -0.28080
 Alpha  occ. eigenvalues --   -0.23354  -0.22270  -0.22002  -0.21218  -0.19865
 Alpha  occ. eigenvalues --   -0.19299  -0.10687
 Alpha virt. eigenvalues --   -0.02669  -0.00230   0.00223   0.00299   0.01196
 Alpha virt. eigenvalues --    0.01525   0.01972   0.02356   0.02421   0.03312
 Alpha virt. eigenvalues --    0.04212   0.04762   0.05070   0.05617   0.05693

  Beta  occ. eigenvalues --  -19.12447 -19.01683 -19.01573 -10.21151 -10.17147
  Beta  occ. eigenvalues --  -10.17032 -10.16164 -10.15646 -10.14802 -10.14753
  Beta  occ. eigenvalues --  -10.14704 -10.14593 -10.14556 -10.14533 -10.14293
  Beta  occ. eigenvalues --  -10.13593 -10.13554 -10.13553 -10.13500  -1.02078
  Beta  occ. eigenvalues --   -0.92855  -0.92412  -0.83034  -0.82159  -0.77335
  Beta  occ. eigenvalues --   -0.74161  -0.72186  -0.71728  -0.69685  -0.63925
  Beta  occ. eigenvalues --   -0.61881  -0.60053  -0.57388  -0.55856  -0.52476
  Beta  occ. eigenvalues --   -0.51766  -0.50251  -0.48229  -0.46737  -0.43705
  Beta  occ. eigenvalues --   -0.43252  -0.42717  -0.41386  -0.41216  -0.39742
  Beta  occ. eigenvalues --   -0.39521  -0.37811  -0.37676  -0.36454  -0.36056
  Beta  occ. eigenvalues --   -0.34995  -0.34875  -0.34217  -0.33131  -0.32007
  Beta  occ. eigenvalues --   -0.31482  -0.31189  -0.29555  -0.29434  -0.28080
  Beta  occ. eigenvalues --   -0.23354  -0.22270  -0.22002  -0.21218  -0.19865
  Beta  occ. eigenvalues --   -0.19299  -0.10687
  Beta virt. eigenvalues --   -0.02669  -0.00230   0.00223   0.00299   0.01196
  Beta virt. eigenvalues --    0.01525   0.01972   0.02356   0.02421   0.03312
  Beta virt. eigenvalues --    0.04212   0.04762   0.05070   0.05617   0.05693

 Mulliken charges and spin densities:
               1          2
     1  C   -0.065871   0.000000
     2  C   -0.497297   0.000000
     3  C   -0.494568   0.000000
     4  C    0.381580   0.000000
     5  C    0.214909   0.000000
     6  C   -0.015605  -0.000000
     7  C   -0.567243  -0.000000
     8  C    0.185717  -0.000000
     9  C    0.115997  -0.000000
    10  C   -0.680131   0.000000
    11  C   -0.413206   0.000000
    12  C    0.002499  -0.000000
    13  C   -0.479353   0.000000
    14  O   -0.678171  -0.000000
    15  O   -0.676591  -0.000000
    16  H    0.141584   0.000000
    17  H    0.156736   0.000000
    18  H    0.155469  -0.000000
    19  H    0.160934   0.000000
    20  H    0.146118   0.000000
    21  H    0.140579  -0.000000
    22  H    0.153055   0.000000
    23  C    0.564086   0.000000
    24  C    0.003551  -0.000000
    25  C   -0.527647   0.000000
    26  O   -0.352077  -0.000000
    27  H    0.167383   0.000000
    28  H    0.159217  -0.000000
    29  H    0.160486  -0.000000
    30  H    0.159761   0.000000
    31  H    0.278099   0.000000
 Sum of Mulliken charges =  -2.00000   0.00000

 Dipole moment (field-independent basis, Debye):
    X=            -21.4597    Y=             23.4267    Z=             -2.7245  Tot=             31.8866
 Quadrupole moment (field-independent basis, Debye-Ang):
   XX=           -192.7119   YY=           -213.1400   ZZ=           -143.7694
   XY=             49.6451   XZ=            -19.2910   YZ=             36.7629

  Exact polarizability: 562.365  76.755 316.660 -42.407-127.013 309.453
 Approx polarizability: 614.691  72.088 357.869 -29.661-148.107 346.769

                      1                      2                      3
                      A                      A                      A
 Frequencies --     37.5655                48.9273                84.3122
 Red. masses --      4.5950                 4.7412                 6.3192
 Frc consts  --      0.0038                 0.0067                 0.0265
 IR Inten    --      5.6455                 5.0574                16.6347

                      4                      5                      6
                      A                      A                      A
 Frequencies --     89.2643               130.1616               163.2935
 Red. masses --      2.5660                 3.8639                 4.7228
 Frc consts  --      0.0120                 0.0386                 0.0742
 IR Inten    --     18.9966                 2.3935                 2.3832

                      7                      8                      9
                      A                      A                      A
 Frequencies --    172.0930               194.5940               228.7301
 Red. masses --      9.0084                 3.7896                 5.2705
 Frc consts  --      0.1572                 0.0845                 0.1625
 IR Inten    --      8.5696                 9.5231                 0.6078

                     10                     11                     12
                      A                      A                      A
 Frequencies --    231.3986               265.8913               286.3563
 Red. masses --      1.0850                 5.7980                 7.1983
 Frc consts  --      0.0342                 0.2415                 0.3478
 IR Inten    --    181.7252                 4.3517                 3.8630

                     13                     14                     15
                      A                      A                      A
 Frequencies --    334.4358               364.9831               366.5399
 Red. masses --      4.7931                10.5316                 3.7446
 Frc consts  --      0.3159                 0.8266                 0.2964
 IR Inten    --      5.9976                 1.1751                16.9080

                     16                     17                     18
                      A                      A                      A
 Frequencies --    404.6397               415.1338               434.1791
 Red. masses --      6.7403                 5.6100                 3.7339
 Frc consts  --      0.6502                 0.5696                 0.4147
 IR Inten    --      9.2306                 2.7361                11.6422

                     19                     20                     21
                      A                      A                      A
 Frequencies --    455.0918               485.3937               500.4974
 Red. masses --      5.8323                 2.9371                11.0206
 Frc consts  --      0.7117                 0.4077                 1.6265
 IR Inten    --      2.8581                 0.2643                 2.3364

                     22                     23                     24
                      A                      A                      A
 Frequencies --    536.4769               600.9105               630.2968
 Red. masses --      4.4311                 5.4901                 6.7103
 Frc consts  --      0.7514                 1.1680                 1.5707
 IR Inten    --     16.1851                67.8235                18.2607

                     25                     26                     27
                      A                      A                      A
 Frequencies --    647.6242               669.8878               690.0151
 Red. masses --      4.0111                 5.7112                 6.0872
 Frc consts  --      0.9912                 1.5100                 1.7076
 IR Inten    --     32.4880                14.1605                 3.6041

                     28                     29                     30
                      A                      A                      A
 Frequencies --    699.0132               733.5612               765.0978
 Red. masses --      2.5649                 4.6342                 3.3648
 Frc consts  --      0.7384                 1.4693                 1.1605
 IR Inten    --    109.9255                 1.4904                 4.2185

                     31                     32                     33
                      A                      A                      A
 Frequencies --    774.0486               797.8927               799.1953
 Red. masses --      2.1090                 1.7474                 1.4308
 Frc consts  --      0.7445                 0.6554                 0.5385
 IR Inten    --     31.1239                10.8072                 4.3760

                     34                     35                     36
                      A                      A                      A
 Frequencies --    822.0709               853.7987               858.4321
 Red. masses --      2.0361                 1.7745                 5.5278
 Frc consts  --      0.8107                 0.7621                 2.4000
 IR Inten    --     30.2487                 0.3848                 9.5105

                     37                     38                     39
                      A                      A                      A
 Frequencies --    922.9873               928.6942               973.2710
 Red. masses --      5.2225                 1.5194                 3.1952
 Frc consts  --      2.6213                 0.7721                 1.7833
 IR Inten    --     38.5897                17.5824                 1.7795

                     40                     41                     42
                      A                      A                      A
 Frequencies --    979.7589               983.0153               985.4048
 Red. masses --      1.3376                 1.3052                 1.2442
 Frc consts  --      0.7565                 0.7431                 0.7118
 IR Inten    --      2.6640                 4.4092                 0.3676

                     43                     44                     45
                      A                      A                      A
 Frequencies --   1005.4900              1015.8962              1019.9511
 Red. masses --      2.8262                 2.0723                 5.0057
 Frc consts  --      1.6835                 1.2601                 3.0681
 IR Inten    --      1.0176               140.8421               252.8953

                     46                     47                     48
                      A                      A                      A
 Frequencies --   1058.6968              1081.1192              1111.2243
 Red. masses --      1.6340                 4.1919                 1.8349
 Frc consts  --      1.0790                 2.8867                 1.3350
 IR Inten    --      3.4872               810.5016               104.7318

                     49                     50                     51
                      A                      A                      A
 Frequencies --   1130.0850              1141.0201              1172.6198
 Red. masses --      1.6564                 1.7661                 1.4507
 Frc consts  --      1.2463                 1.3547                 1.1753
 IR Inten    --    195.0929                15.0737               569.3681

                     52                     53                     54
                      A                      A                      A
 Frequencies --   1197.0215              1203.1133              1206.5303
 Red. masses --      3.6061                 1.6711                 1.6878
 Frc consts  --      3.0444                 1.4252                 1.4476
 IR Inten    --    238.9802                28.1978               173.9981

                     55                     56                     57
                      A                      A                      A
 Frequencies --   1223.0466              1228.7529              1258.2281
 Red. masses --      1.2098                 1.5997                 2.3822
 Frc consts  --      1.0662                 1.4231                 2.2220
 IR Inten    --     65.5574               168.2163               348.3176

                     58                     59                     60
                      A                      A                      A
 Frequencies --   1304.1980              1310.4980              1325.8093
 Red. masses --      1.7859                 2.1659                 1.5679
 Frc consts  --      1.7897                 2.1916                 1.6238
 IR Inten    --     37.6169                46.4316               359.0290

                     61                     62                     63
                      A                      A                      A
 Frequencies --   1341.4979              1350.8913              1359.1794
 Red. masses --      2.7041                 6.2267                 2.0843
 Frc consts  --      2.8671                 6.6950                 2.2686
 IR Inten    --   1653.3440               789.2674               481.3725

                     64                     65                     66
                      A                      A                      A
 Frequencies --   1431.6117              1439.9799              1448.3237
 Red. masses --      1.4556                 2.8976                 6.1803
 Frc consts  --      1.7577                 3.5399                 7.6382
 IR Inten    --     18.2052               199.0698                 1.3314

                     67                     68                     69
                      A                      A                      A
 Frequencies --   1463.8022              1479.5437              1483.4181
 Red. masses --      3.0735                 1.3337                 2.0175
 Frc consts  --      3.8801                 1.7201                 2.6158
 IR Inten    --     27.6603                12.7917                11.2864

                     70                     71                     72
                      A                      A                      A
 Frequencies --   1504.7536              1516.1291              1525.4505
 Red. masses --      4.9494                 1.0873                 5.3109
 Frc consts  --      6.6029                 1.4726                 7.2814
 IR Inten    --      0.4878                 6.7754                86.8436

                     73                     74                     75
                      A                      A                      A
 Frequencies --   1575.6934              1605.9029              1620.1911
 Red. masses --      7.9122                 5.2511                 5.9537
 Frc consts  --     11.5741                 7.9789                 9.2081
 IR Inten    --      1.0324                11.6428                21.9400

                     76                     77                     78
                      A                      A                      A
 Frequencies --   2996.3797              3007.6373              3030.0369
 Red. masses --      1.0550                 1.0638                 1.1036
 Frc consts  --      5.5809                 5.6698                 5.9697
 IR Inten    --     38.5880               156.6505                37.8822

                     79                     80                     81
                      A                      A                      A
 Frequencies --   3062.6083              3134.7138              3137.3109
 Red. masses --      1.1028                 1.0873                 1.0845
 Frc consts  --      6.0947                 6.2950                 6.2893
 IR Inten    --     86.5971                46.0949                24.5652

                     82                     83                     84
                      A                      A                      A
 Frequencies --   3152.5956              3157.0157              3170.3465
 Red. masses --      1.0888                 1.0884                 1.0913
 Frc consts  --      6.3759                 6.3916                 6.4624
 IR Inten    --     31.1001                34.0721                38.0974

                     85                     86                     87
                      A                      A                      A
 Frequencies --   3171.6767              3174.7616              3827.0024
 Red. masses --      1.0912                 1.0938                 1.0668
 Frc consts  --      6.4673                 6.4955                 9.2055
 IR Inten    --     70.6749                74.6214                62.2376

 - Thermochemistry -
 -------------------
 Temperature   298.150 Kelvin.  Pressure   1.00000 Atm.
 Atom     1 has atomic number  6 and mass  12.00000

 Molecular mass:   252.07864 amu.
 Principal axes and moments of inertia in atomic units:
                           1         2         3
     Eigenvalues --  1970.606619209.83871**********
           X            0.81703   0.57626  -0.01934
           Y            0.38407  -0.51891   0.76369
           Z           -0.43005   0.63139   0.64529
 This molecule is an asymmetric top.
 Rotational symmetry number  1.
 Warning -- assumption of classical behavior for rotation
           may cause significant error
 Rotational temperatures (Kelvin)      0.04395     0.00940     0.00792
 Rotational constants (GHZ):           0.91583     0.19596     0.16498
 Zero-point vibrational energy     619107.5 (Joules/Mol)
                                  147.97024 (Kcal/Mol)
 Warning -- explicit consideration of  23 degrees of freedom as
           vibrations may cause significant error
 Vibrational temperatures:     54.05    70.40   121.31   128.43   187.27
          (Kelvin)            234.94   247.60   279.98   329.09   332.93
                              382.56   412.00   481.18   525.13   527.37
                              582.19   597.28   624.69   654.78   698.37
                              720.10   771.87   864.58   906.86   931.79
                              963.82   992.78  1005.72  1055.43  1100.81
                             1113.68  1147.99  1149.86  1182.78  1228.43
                             1235.09  1327.97  1336.18  1400.32  1409.65
                             1414.34  1417.78  1446.68  1461.65  1467.48
                             1523.23  1555.49  1598.80  1625.94  1641.67
                             1687.14  1722.25  1731.01  1735.93  1759.69
                             1767.90  1810.31  1876.45  1885.51  1907.54
                             1930.12  1943.63  1955.56  2059.77  2071.81
                             2083.81  2106.08  2128.73  2134.31  2165.00
                             2181.37  2194.78  2267.07  2310.54  2331.09
                             4311.12  4327.32  4359.55  4406.41  4510.15
                             4513.89  4535.88  4542.24  4561.42  4563.34
                             4567.77  5506.20

 Zero-point correction=                           0.235806 (Hartree/Particle)
 Thermal correction to Energy=                    0.251266
 Thermal correction to Enthalpy=                  0.252211
 Thermal correction to Gibbs Free Energy=         0.192697
 Sum of electronic and zero-point Energies=           -842.848832
 Sum of electronic and thermal Energies=              -842.833371
 Sum of electronic and thermal Enthalpies=            -842.832427
 Sum of electronic and thermal Free Energies=         -842.891941

                     E (Thermal)             CV                S
                      KCal/Mol        Cal/Mol-Kelvin    Cal/Mol-Kelvin
 Total                  157.672             61.226            125.257
 Electronic               0.000              0.000              0.000
 Translational            0.889              2.981             42.474
 Rotational               0.889              2.981             33.651
 Vibrational            155.895             55.265             49.133
 Vibration     1          0.594              1.982              5.384
 Vibration     2          0.595              1.978              4.860
 Vibration     3          0.601              1.960              3.788
 Vibration     4          0.602              1.957              3.676
 Vibration     5          0.612              1.923              2.944
 Vibration     6          0.623              1.887              2.511
 Vibration     7          0.626              1.877              2.413
 Vibration     8          0.635              1.847              2.184
 Vibration     9          0.651              1.797              1.889
 Vibration    10          0.653              1.793              1.868
 Vibration    11          0.672              1.736              1.623
 Vibration    12          0.684              1.699              1.495
 Vibration    13          0.716              1.607              1.239
 Vibration    14          0.738              1.544              1.101
 Vibration    15          0.739              1.541              1.094
 Vibration    16          0.770              1.460              0.946
 Vibration    17          0.779              1.437              0.909
 Vibration    18          0.795              1.396              0.845
 Vibration    19          0.813              1.350              0.781
 Vibration    20          0.841              1.282              0.696
 Vibration    21          0.856              1.249              0.657
 Vibration    22          0.891              1.169              0.573
 Vibration    23          0.959              1.030              0.448

 Optimization completed.
    -- Stationary point found.
 Normal termination of Gaussian 16 at Sun Feb 11 00:58:55 2024.
