 Q-Chem 5.4, Q-Chem, Inc., Pleasanton, CA (2021)
 Q-Chem 5.4.0 for Intel X86 EM64T Linux

User input:
--------------------------------------------------------------
$molecule
-2 1
Br                -1.6318400000      2.7103350000      1.0572520000
C                 -0.7019160000      1.1321790000      0.3168440000
C                 -1.4354630000      0.0849210000     -0.2620900000
C                 -0.7406460000     -0.9475960000     -1.0374030000
O                 -1.3569590000     -1.8524960000     -1.6906570000
C                  0.6833050000     -0.8388920000     -0.9555310000
C                  1.4191400000      0.1728560000     -0.3190680000
C                  0.7182180000      1.3035250000      0.2973410000
O                  1.3278130000      2.3136660000      0.7804540000
C                  2.8910130000      0.1546230000     -0.1846290000
C                  3.6621240000      1.3172990000     -0.3927440000
C                  5.0462590000      1.3071720000     -0.2383150000
C                  5.7160070000      0.1447760000      0.1544420000
C                  4.9663670000     -1.0100150000      0.3911560000
C                  3.5834840000     -1.0020790000      0.2259370000
Br                 1.5980050000     -2.1739440000     -2.0889860000
C                 -2.8958910000     -0.0786630000     -0.1029310000
C                 -3.7174030000     -0.4401420000     -1.1911280000
C                 -5.0893370000     -0.6226090000     -1.0352610000
C                 -5.6949600000     -0.4771870000      0.2161600000
C                 -4.8935200000     -0.1454950000      1.3112430000
C                 -3.5233710000      0.0475540000      1.1525950000
H                  3.1463140000      2.2305690000     -0.6525440000
H                  5.6082840000      2.2210560000     -0.4173240000
H                  6.7954740000      0.1415920000      0.2824560000
H                  5.4607210000     -1.9237440000      0.7126650000
H                  3.0187790000     -1.9042920000      0.4230020000
H                 -3.2491150000     -0.5985090000     -2.1519810000
H                 -5.6919670000     -0.8914840000     -1.8999240000
H                 -6.7646340000     -0.6284070000      0.3369160000
H                 -5.3368440000     -0.0414960000      2.2988160000
H                 -2.9174400000      0.2949240000      2.0147840000
$end
$rem
MAX_SCF_CYCLES=200
BASIS  =  6-311++G(d,p)
GUI  =  2
JOB_TYPE  =  SP
METHOD  =  B3LYP
SOLVENT_METHOD = PCM
$end
$pcm
theory = CPCM
$end
$solvent
dielectric 37.219
opticaldielectric 1.43
$end

--------------------------------------------------------------

             Standard Nuclear Orientation (Angstroms)
    I     Atom           X                Y                Z
 ----------------------------------------------------------------
    1      Br     -1.6318400000     2.7103350000     1.0572520000
    2      C      -0.7019160000     1.1321790000     0.3168440000
    3      C      -1.4354630000     0.0849210000    -0.2620900000
    4      C      -0.7406460000    -0.9475960000    -1.0374030000
    5      O      -1.3569590000    -1.8524960000    -1.6906570000
    6      C       0.6833050000    -0.8388920000    -0.9555310000
    7      C       1.4191400000     0.1728560000    -0.3190680000
    8      C       0.7182180000     1.3035250000     0.2973410000
    9      O       1.3278130000     2.3136660000     0.7804540000
   10      C       2.8910130000     0.1546230000    -0.1846290000
   11      C       3.6621240000     1.3172990000    -0.3927440000
   12      C       5.0462590000     1.3071720000    -0.2383150000
   13      C       5.7160070000     0.1447760000     0.1544420000
   14      C       4.9663670000    -1.0100150000     0.3911560000
   15      C       3.5834840000    -1.0020790000     0.2259370000
   16      Br      1.5980050000    -2.1739440000    -2.0889860000
   17      C      -2.8958910000    -0.0786630000    -0.1029310000
   18      C      -3.7174030000    -0.4401420000    -1.1911280000
   19      C      -5.0893370000    -0.6226090000    -1.0352610000
   20      C      -5.6949600000    -0.4771870000     0.2161600000
   21      C      -4.8935200000    -0.1454950000     1.3112430000
   22      C      -3.5233710000     0.0475540000     1.1525950000
   23      H       3.1463140000     2.2305690000    -0.6525440000
   24      H       5.6082840000     2.2210560000    -0.4173240000
   25      H       6.7954740000     0.1415920000     0.2824560000
   26      H       5.4607210000    -1.9237440000     0.7126650000
   27      H       3.0187790000    -1.9042920000     0.4230020000
   28      H      -3.2491150000    -0.5985090000    -2.1519810000
   29      H      -5.6919670000    -0.8914840000    -1.8999240000
   30      H      -6.7646340000    -0.6284070000     0.3369160000
   31      H      -5.3368440000    -0.0414960000     2.2988160000
   32      H      -2.9174400000     0.2949240000     2.0147840000
 ----------------------------------------------------------------

    8   -5991.1410423684      9.27e-06  Convergence criterion met
 Total energy in the final basis set =    -5991.1410423684

                    Orbital Energies (a.u.)
 --------------------------------------------------------------

 Alpha MOs
 -- Occupied --
********-482.8033 -62.4561 -62.4561 -56.2763 -56.2763 -56.2730 -56.2730
-56.2727 -56.2727 -19.0302 -19.0301 -10.1977 -10.1977 -10.1901 -10.1901
-10.1736 -10.1736 -10.1644 -10.1644 -10.1639 -10.1639 -10.1633 -10.1632
-10.1616 -10.1615 -10.1602 -10.1602 -10.1582 -10.1582  -8.6647  -8.6647
 -6.4951  -6.4951  -6.4842  -6.4842  -6.4832  -6.4832  -2.6063  -2.6061
 -2.6033  -2.6032  -2.6026  -2.6025  -2.5938  -2.5938  -2.5938  -2.5938
 -0.9590  -0.9554  -0.8497  -0.8485  -0.8166  -0.7910  -0.7542  -0.7516
 -0.7352  -0.7350  -0.7315  -0.6827  -0.6519  -0.6179  -0.5947  -0.5940
 -0.5802  -0.5498  -0.5284  -0.5074  -0.4937  -0.4717  -0.4532  -0.4491
 -0.4407  -0.4308  -0.4215  -0.4130  -0.4086  -0.4085  -0.3890  -0.3817
 -0.3724  -0.3699  -0.3602  -0.3595  -0.3457  -0.3407  -0.3341  -0.3339
 -0.3311  -0.3286  -0.3009  -0.2842  -0.2753  -0.2724  -0.2543  -0.2534
 -0.2465  -0.2445  -0.2263  -0.2103  -0.2056  -0.2037  -0.1331

          Ground-State Mulliken Net Atomic Charges

     Atom                 Charge (a.u.)
  ----------------------------------------
      1 Br                   -0.268202
      2 C                    -0.341300
      3 C                     1.158075
      4 C                    -1.599787
      5 O                    -0.554355
      6 C                    -0.337451
      7 C                     1.153717
      8 C                    -1.602611
      9 O                    -0.555296
     10 C                     1.549837
     11 C                     0.050701
     12 C                    -0.269972
     13 C                    -0.392214
     14 C                    -0.517555
     15 C                    -0.816835
     16 Br                   -0.267712
     17 C                     1.553835
     18 C                     0.060264
     19 C                    -0.269995
     20 C                    -0.391133
     21 C                    -0.520899
     22 C                    -0.818013
     23 H                     0.210343
     24 H                     0.200234
     25 H                     0.187575
     26 H                     0.197314
     27 H                     0.202354
     28 H                     0.211350
     29 H                     0.200264
     30 H                     0.187556
     31 H                     0.197233
     32 H                     0.202642
  ----------------------------------------
  Sum of atomic charges =    -2.000035

                    Cartesian Multipole Moments
 -----------------------------------------------------------------
    Charge (ESU x 10^10)
                -9.6066
    Dipole Moment (Debye)
         X       0.1266      Y      -2.0298      Z       4.0689
       Tot       4.5489
    Quadrupole Moments (Debye-Ang)
        XX    -188.2905     XY      -8.7061     YY    -203.7400
        XZ      -4.3430     YZ     -25.6819     ZZ    -177.8079

 Total job time:  82.84s(wall), 580.88s(cpu)
        *  Thank you very much for using Q-Chem.  Have a nice day.  *
