 Q-Chem 5.4, Q-Chem, Inc., Pleasanton, CA (2021)
 Q-Chem 5.4.0 for Intel X86 EM64T Linux

User input:
--------------------------------------------------------------
$molecule
-3 1
C                  2.7527440000      0.5738170000      0.2065040000
C                  2.6973260000     -0.6080330000      0.9892110000
C                  1.4977010000     -1.2623480000      1.1575380000
C                 -0.9387080000     -1.5428970000      0.7901380000
O                 -0.9739620000     -2.6047590000      1.5001050000
C                 -2.1185450000     -1.0048190000      0.1355250000
C                 -3.3601380000     -1.6789790000      0.2621810000
C                 -4.5196710000     -1.2020020000     -0.3170090000
C                 -4.4814130000      0.0001680000     -1.0714560000
C                 -3.2811350000      0.6675910000     -1.2294230000
C                 -2.0728670000      0.1970150000     -0.6601830000
C                 -0.8384360000      0.9439830000     -0.8812040000
O                 -0.8078000000      2.0012650000     -1.5841860000
C                  0.3512640000      0.3973240000     -0.2286450000
C                  1.6025680000      1.0561270000     -0.3836200000
H                  3.6068930000     -0.9839890000      1.4450990000
H                  1.4323350000     -2.1682950000      1.7517000000
H                 -3.3600880000     -2.5934860000      0.8466750000
H                 -5.4621120000     -1.7368090000     -0.1977740000
H                 -5.3951170000      0.3841720000     -1.5240550000
H                 -3.2218880000      1.5858870000     -1.8048930000
H                  1.6339520000      1.9562110000     -0.9846440000
C                  0.2937640000     -0.7977040000      0.5678280000
S                  4.3679930000      1.4067550000      0.0324660000
O                  5.2905590000      0.3747370000     -0.5415660000
O                  4.1553670000      2.5726290000     -0.8726130000
O                  4.7694980000      1.8041590000      1.4203110000
$end
$rem
MAX_SCF_CYCLES=200
BASIS  =  6-311++G(d,p)
GUI  =  2
JOB_TYPE  =  SP
METHOD  =  B3LYP
SOLVENT_METHOD = PCM
$end
$pcm
theory = CPCM
$end
$solvent
dielectric 37.219
opticaldielectric 1.43
$end

--------------------------------------------------------------

             Standard Nuclear Orientation (Angstroms)
    I     Atom           X                Y                Z
 ----------------------------------------------------------------
    1      C       2.7527440000     0.5738170000     0.2065040000
    2      C       2.6973260000    -0.6080330000     0.9892110000
    3      C       1.4977010000    -1.2623480000     1.1575380000
    4      C      -0.9387080000    -1.5428970000     0.7901380000
    5      O      -0.9739620000    -2.6047590000     1.5001050000
    6      C      -2.1185450000    -1.0048190000     0.1355250000
    7      C      -3.3601380000    -1.6789790000     0.2621810000
    8      C      -4.5196710000    -1.2020020000    -0.3170090000
    9      C      -4.4814130000     0.0001680000    -1.0714560000
   10      C      -3.2811350000     0.6675910000    -1.2294230000
   11      C      -2.0728670000     0.1970150000    -0.6601830000
   12      C      -0.8384360000     0.9439830000    -0.8812040000
   13      O      -0.8078000000     2.0012650000    -1.5841860000
   14      C       0.3512640000     0.3973240000    -0.2286450000
   15      C       1.6025680000     1.0561270000    -0.3836200000
   16      H       3.6068930000    -0.9839890000     1.4450990000
   17      H       1.4323350000    -2.1682950000     1.7517000000
   18      H      -3.3600880000    -2.5934860000     0.8466750000
   19      H      -5.4621120000    -1.7368090000    -0.1977740000
   20      H      -5.3951170000     0.3841720000    -1.5240550000
   21      H      -3.2218880000     1.5858870000    -1.8048930000
   22      H       1.6339520000     1.9562110000    -0.9846440000
   23      C       0.2937640000    -0.7977040000     0.5678280000
   24      S       4.3679930000     1.4067550000     0.0324660000
   25      O       5.2905590000     0.3747370000    -0.5415660000
   26      O       4.1553670000     2.5726290000    -0.8726130000
   27      O       4.7694980000     1.8041590000     1.4203110000
 ----------------------------------------------------------------

    9   -1312.6667252073      5.34e-06  Convergence criterion met
 Total energy in the final basis set =    -1312.6667252073

                    Orbital Energies (a.u.)
 --------------------------------------------------------------

 Alpha MOs
 -- Occupied --
-89.0341 -19.0824 -19.0800 -19.0799 -19.0257 -19.0221 -10.1800 -10.1755
-10.1720 -10.1564 -10.1528 -10.1498 -10.1494 -10.1489 -10.1473 -10.1468
-10.1403 -10.1380 -10.1376 -10.1368  -8.0930  -6.0559  -6.0558  -6.0543
 -1.0950  -0.9617  -0.9568  -0.9508  -0.9437  -0.8336  -0.8243  -0.7567
 -0.7298  -0.7230  -0.7134  -0.6411  -0.6242  -0.5990  -0.5710  -0.5580
 -0.5274  -0.5047  -0.5011  -0.4629  -0.4492  -0.4431  -0.4388  -0.4312
 -0.4259  -0.4072  -0.3996  -0.3884  -0.3839  -0.3757  -0.3732  -0.3600
 -0.3470  -0.3310  -0.3300  -0.3258  -0.3255  -0.3192  -0.3132  -0.3033
 -0.2858  -0.2837  -0.2773  -0.2470  -0.2376  -0.2291  -0.2273  -0.2184
 -0.2072  -0.1989  -0.1054

          Ground-State Mulliken Net Atomic Charges

     Atom                 Charge (a.u.)
  ----------------------------------------
      1 C                    -1.139076
      2 C                    -0.691632
      3 C                    -0.288857
      4 C                    -0.356184
      5 O                    -0.673224
      6 C                     0.334744
      7 C                    -0.001226
      8 C                    -0.543386
      9 C                    -0.519873
     10 C                    -0.009742
     11 C                     0.240088
     12 C                    -0.708585
     13 O                    -0.647488
     14 C                     0.539333
     15 C                     0.222105
     16 H                     0.214643
     17 H                     0.146672
     18 H                     0.146622
     19 H                     0.173796
     20 H                     0.174456
     21 H                     0.146152
     22 H                     0.183215
     23 C                     0.548460
     24 S                     0.787156
     25 O                    -0.420204
     26 O                    -0.449251
     27 O                    -0.408716
  ----------------------------------------
  Sum of atomic charges =    -3.000000

                    Cartesian Multipole Moments
 -----------------------------------------------------------------
    Charge (ESU x 10^10)
               -14.4096
    Dipole Moment (Debye)
         X     -18.6671      Y      -6.1665      Z       0.3321
       Tot      19.6621
    Quadrupole Moments (Debye-Ang)
        XX    -289.0736     XY     -47.1003     YY    -192.4298
        XZ      -1.2014     YZ      21.3116     ZZ    -160.1713

 Total job time:  60.11s(wall), 427.48s(cpu)
        *  Thank you very much for using Q-Chem.  Have a nice day.  *
