 Gaussian 16, Revision A.03,
 Gaussian 16:  ES64L-G16RevA.03 25-Dec-2016

 ----------------------------------------------------------------
 #P UB3LYP/6-311++G(d,p) SCRF=(PCM,Solvent=n,n-DiMethylFormamide)
 ----------------------------------------------------------------

 -------
 Reduced
 -------
 Symbolic Z-matrix:
 Charge = -3 Multiplicity = 1

                         Standard orientation:
 ---------------------------------------------------------------------
 Center     Atomic      Atomic             Coordinates (Angstroms)
 Number     Number       Type             X           Y           Z
 ---------------------------------------------------------------------
      1          6           0       -2.219726    0.197175   -0.006674
      2          6           0       -1.916635    1.583033   -0.004463
      3          6           0       -0.603533    1.996876    0.003304
      4          6           0        1.842877    1.590998    0.014271
      5          8           0        2.100754    2.842527    0.018972
      6          6           0        2.887037    0.581258   -0.000419
      7          6           0        4.248086    0.979740   -0.029486
      8          6           0        5.283485    0.065769   -0.019976
      9          6           0        4.990261   -1.322988    0.015233
     10          6           0        3.672651   -1.741223    0.022956
     11          6           0        2.589127   -0.829732   -0.000444
     12          6           0        1.222316   -1.341996   -0.007119
     13          8           0        0.969641   -2.586634   -0.007751
     14          6           0        0.170886   -0.324889   -0.000675
     15          6           0       -1.194066   -0.725751   -0.004943
     16          1           0       -2.728468    2.302313   -0.011640
     17          1           0       -0.348739    3.051921    0.004611
     18          1           0        4.442351    2.047286   -0.053199
     19          1           0        6.321018    0.399991   -0.035835
     20          1           0        5.803892   -2.047514    0.030280
     21          1           0        3.419600   -2.796415    0.044807
     22          1           0       -1.414150   -1.785899   -0.008580
     23          6           0        0.478478    1.079073    0.005947
     24         16           0       -3.978827   -0.291322   -0.000540
     25          8           0       -4.579430    0.360962   -1.208639
     26          8           0       -4.011719   -1.780952   -0.060210
     27          8           0       -4.546963    0.259772    1.271768
 ---------------------------------------------------------------------

 SCF Done:  E(UB3LYP) =  -1312.65648595     A.U. after   18 cycles

 The electronic state is 1-A.
 Alpha  occ. eigenvalues --  -89.02877 -19.07707 -19.07463 -19.07450 -19.02026
 Alpha  occ. eigenvalues --  -19.01691 -10.17570 -10.17141 -10.16847 -10.15291
 Alpha  occ. eigenvalues --  -10.15054 -10.14851 -10.14757 -10.14689 -10.14542
 Alpha  occ. eigenvalues --  -10.14496 -10.13670 -10.13473 -10.13433 -10.13340
 Alpha  occ. eigenvalues --   -8.08765  -6.05055  -6.05040  -6.04902  -1.08951
 Alpha  occ. eigenvalues --   -0.95607  -0.95121  -0.94527  -0.93829  -0.83024
 Alpha  occ. eigenvalues --   -0.82183  -0.75346  -0.72659  -0.72062  -0.71061
 Alpha  occ. eigenvalues --   -0.63740  -0.62084  -0.59613  -0.56788  -0.55479
 Alpha  occ. eigenvalues --   -0.52444  -0.50194  -0.49719  -0.45942  -0.44486
 Alpha  occ. eigenvalues --   -0.43737  -0.43581  -0.42756  -0.42273  -0.40444
 Alpha  occ. eigenvalues --   -0.39749  -0.38519  -0.38010  -0.37224  -0.36865
 Alpha  occ. eigenvalues --   -0.35580  -0.34396  -0.32742  -0.32581  -0.32062
 Alpha  occ. eigenvalues --   -0.31985  -0.31608  -0.30941  -0.30001  -0.28011
 Alpha  occ. eigenvalues --   -0.27854  -0.27243  -0.24110  -0.23472  -0.22570
 Alpha  occ. eigenvalues --   -0.22301  -0.21528  -0.20128  -0.19329  -0.10101
 Alpha virt. eigenvalues --   -0.02742   0.00026   0.00246   0.01061   0.01774
 Alpha virt. eigenvalues --    0.01897   0.02710   0.02951   0.04744   0.04803
 Alpha virt. eigenvalues --    0.04965   0.05317   0.05879   0.06334   0.06710

  Beta  occ. eigenvalues --  -89.02877 -19.07707 -19.07463 -19.07450 -19.02026
  Beta  occ. eigenvalues --  -19.01691 -10.17570 -10.17141 -10.16847 -10.15291
  Beta  occ. eigenvalues --  -10.15054 -10.14851 -10.14757 -10.14689 -10.14542
  Beta  occ. eigenvalues --  -10.14496 -10.13670 -10.13473 -10.13433 -10.13340
  Beta  occ. eigenvalues --   -8.08765  -6.05055  -6.05040  -6.04902  -1.08951
  Beta  occ. eigenvalues --   -0.95607  -0.95121  -0.94527  -0.93829  -0.83024
  Beta  occ. eigenvalues --   -0.82183  -0.75346  -0.72659  -0.72062  -0.71061
  Beta  occ. eigenvalues --   -0.63740  -0.62084  -0.59613  -0.56788  -0.55479
  Beta  occ. eigenvalues --   -0.52444  -0.50194  -0.49719  -0.45942  -0.44486
  Beta  occ. eigenvalues --   -0.43737  -0.43581  -0.42756  -0.42273  -0.40444
  Beta  occ. eigenvalues --   -0.39749  -0.38519  -0.38010  -0.37224  -0.36865
  Beta  occ. eigenvalues --   -0.35580  -0.34396  -0.32742  -0.32581  -0.32062
  Beta  occ. eigenvalues --   -0.31985  -0.31608  -0.30941  -0.30001  -0.28011
  Beta  occ. eigenvalues --   -0.27854  -0.27243  -0.24110  -0.23472  -0.22570
  Beta  occ. eigenvalues --   -0.22301  -0.21528  -0.20128  -0.19329  -0.10101
  Beta virt. eigenvalues --   -0.02742   0.00026   0.00246   0.01061   0.01774
  Beta virt. eigenvalues --    0.01897   0.02710   0.02951   0.04744   0.04803
  Beta virt. eigenvalues --    0.04965   0.05317   0.05879   0.06334   0.06710

 Mulliken charges and spin densities:
               1          2
     1  C   -1.106205   0.000000
     2  C   -0.681840   0.000000
     3  C   -0.284619   0.000000
     4  C   -0.454411   0.000000
     5  O   -0.647468   0.000000
     6  C    0.355270  -0.000000
     7  C    0.000262   0.000000
     8  C   -0.518676  -0.000000
     9  C   -0.500526   0.000000
    10  C   -0.009751   0.000000
    11  C    0.272734  -0.000000
    12  C   -0.775669   0.000000
    13  O   -0.623079  -0.000000
    14  C    0.549832  -0.000000
    15  C    0.232561  -0.000000
    16  H    0.194192   0.000000
    17  H    0.142983  -0.000000
    18  H    0.144601   0.000000
    19  H    0.156464  -0.000000
    20  H    0.157001   0.000000
    21  H    0.142016  -0.000000
    22  H    0.186048   0.000000
    23  C    0.540236  -0.000000
    24  S    0.770472  -0.000000
    25  O   -0.408453  -0.000000
    26  O   -0.436720   0.000000
    27  O   -0.397258  -0.000000
 Sum of Mulliken charges =  -3.00000   0.00000

 Dipole moment (field-independent basis, Debye):
    X=             10.6482    Y=              0.9553    Z=             -0.0543  Tot=             10.6911
 Quadrupole moment (field-independent basis, Debye-Ang):
   XX=           -289.3668   YY=           -191.3610   ZZ=           -145.4701
   XY=            -18.1360   XZ=             -0.0728   YZ=             -0.3985

 Normal termination of Gaussian 16 at Tue Jan 16 16:53:38 2024.
