 Q-Chem 6.0, Q-Chem, Inc., Pleasanton, CA (2022)
 Q-Chem 6.0.2 for Intel X86 EM64T Linux

User input:
--------------------------------------------------------------
$molecule
-2 1
C                 -1.0230010000      2.0353060000     -0.2855770000
C                 -1.4797750000      2.1318030000      1.0156130000
C                 -0.8508520000      1.3916970000      2.0416320000
C                  0.0713600000      1.2032640000     -0.6166520000
C                  0.7107270000      0.4522040000      0.4232440000
C                  0.2245450000      0.5707900000      1.7361710000
C                  0.5414330000      1.1060830000     -1.9755150000
C                  1.6632080000      0.2307620000     -2.2023100000
C                  2.3025810000     -0.5141900000     -1.2271840000
C                  1.8571990000     -0.4341890000      0.1469840000
O                  0.0454200000      1.7257610000     -2.9828980000
O                  2.4133510000     -1.0927190000      1.0710870000
H                 -1.4895880000      2.5939960000     -1.0898600000
H                 -2.3222260000      2.7775940000      1.2501140000
H                 -1.2080040000      1.4668600000      3.0650550000
H                  0.7281950000     -0.0081350000      2.5029080000
O                  2.0545600000      0.1868480000     -3.5135570000
C                  3.4645050000     -1.4135950000     -1.5626700000
C                  4.8410180000     -0.7336210000     -1.4107400000
C                  6.0131150000     -1.6660120000     -1.7422930000
C                  7.3928030000     -1.0084010000     -1.6091970000
C                  8.5639190000     -1.9387470000     -1.9535790000
C                  9.9438520000     -1.2794230000     -1.8248510000
C                 11.1166400000     -2.2057540000     -2.1733410000
C                 12.4936330000     -1.5370790000     -2.0473400000
C                 13.6771170000     -2.4823360000     -2.4054900000
C                 15.0260190000     -1.8706720000     -2.2972490000
Br                16.8209850000     -3.8601290000     -3.0177440000
H                  1.4072940000      0.8037090000     -3.9259450000
H                  3.3617970000     -1.7757660000     -2.5915300000
H                  3.4315250000     -2.2757710000     -0.8883720000
H                  4.9371440000     -0.3718940000     -0.3812320000
H                  4.8780630000      0.1465730000     -2.0638370000
H                  5.8941090000     -2.0447620000     -2.7670800000
H                  5.9687790000     -2.5458830000     -1.0862510000
H                  7.5166160000     -0.6364050000     -0.5835620000
H                  7.4336020000     -0.1234300000     -2.2583080000
H                  8.4378250000     -2.3122480000     -2.9787510000
H                  8.5250690000     -2.8231980000     -1.3036490000
H                 10.0704350000     -0.9076280000     -0.7993630000
H                  9.9802580000     -0.3932890000     -2.4725220000
H                 10.9902870000     -2.5796000000     -3.1981770000
H                 11.0847340000     -3.0906240000     -1.5237900000
H                 12.6316510000     -1.1676980000     -1.0237850000
H                 12.5353140000     -0.6546200000     -2.6975140000
H                 13.5212560000     -2.8478690000     -3.4289230000
H                 13.6193570000     -3.3615400000     -1.7505940000
H                 15.5111310000     -1.7850400000     -1.3348580000
H                 15.4066160000     -1.2440160000     -3.0918120000
$end
$rem
MAX_SCF_CYCLES=200
BASIS  =  6-311++G(d,p)
GUI  =  2
JOB_TYPE  =  SP
METHOD  =  B3LYP
SCF_CONVERGENCE  = 6
SCF_Guess = core
SOLVENT_METHOD = COSMO
$end
$solvent
dielectric 37.219
opticaldielectric 1.43
$end

--------------------------------------------------------------

             Standard Nuclear Orientation (Angstroms)
    I     Atom           X                Y                Z
 ----------------------------------------------------------------
    1      C       8.4230311859    -0.1221683265     0.9085082776
    2      C       9.0775341978     1.0926350741     0.9917433632
    3      C       8.4412280547     2.2701609196     0.5394565129
    4      C       7.1167867538    -0.2140306293     0.3748254647
    5      C       6.4697829621     0.9797710955    -0.0839648036
    6      C       7.1597415636     2.1998740469     0.0135995347
    7      C       6.4408250542    -1.4839575520     0.2894860446
    8      C       5.1129042071    -1.4644709408    -0.2693059304
    9      C       4.4578148554    -0.3352217588    -0.7278648224
   10      C       5.1080947098     0.9548712150    -0.6510585210
   11      O       6.9223217917    -2.6122918963     0.6634816699
   12      O       4.5468820641     2.0131987110    -1.0534469407
   13      H       8.8911279860    -1.0393902647     1.2495337761
   14      H      10.0814060687     1.1426431106     1.4058700168
   15      H       8.9538066393     3.2259836173     0.6047851414
   16      H       6.6455057902     3.0870681966    -0.3401676422
   17      O       4.5327733067    -2.7035352596    -0.3205043167
   18      C       3.0692525490    -0.4149996169    -1.3084488444
   19      C       1.9486069131    -0.1829497125    -0.2737790394
   20      C       0.5425399135    -0.2535709904    -0.8829423786
   21      C      -0.5896120611    -0.0369413183     0.1294850220
   22      C      -1.9961299607    -0.1205696507    -0.4790944939
   23      C      -3.1287310201     0.0915762150     0.5346624253
   24      C      -4.5364394617     0.0036092431    -0.0699737050
   25      C      -5.6642642381     0.2115646258     0.9517298049
   26      C      -7.0884321463     0.1176987284     0.3309628927
   27      C      -8.2065066203     0.3117814407     1.2888913556
   28      Br    -10.5338338275     0.0631052833    -0.2012976862
   29      H       5.2465790391    -3.2636572677     0.0619605090
   30      H       2.9226142243    -1.3963446760    -1.7729149279
   31      H       2.9823535243     0.3512505245    -2.0858947966
   32      H       2.1015201169     0.7982945397     0.1885526837
   33      H       2.0393421070    -0.9300407110     0.5238873481
   34      H       0.4078801455    -1.2308308873    -1.3673308867
   35      H       0.4592932761     0.4955020832    -1.6819976276
   36      H      -0.4611337637     0.9425639757     0.6087558665
   37      H      -0.5006608679    -0.7802405072     0.9330877351
   38      H      -2.1227409188    -1.0997088869    -0.9603806301
   39      H      -2.0866903929     0.6237073958    -1.2816045469
   40      H      -3.0029731523     1.0712954486     1.0144703013
   41      H      -3.0350719105    -0.6509772242     1.3383283685
   42      H      -4.6628404125    -0.9751878283    -0.5516310852
   43      H      -4.6337996605     0.7484018355    -0.8710569699
   44      H      -5.5503356825     1.1910554701     1.4321193340
   45      H      -5.5769511940    -0.5323664743     1.7530664217
   46      H      -7.1843120868    -0.8642967101    -0.1505079025
   47      H      -7.1588491716     0.8639421345    -0.4711511163
   48      H      -8.5053918876     1.3077643578     1.5847774055
   49      H      -8.5294756247    -0.5020612561     1.9231099827
 ----------------------------------------------------------------

   44   -3577.3292543247      8.38e-07  Convergence criterion met
 Total energy in the final basis set =    -3577.3292543247
   32   -3577.5370390011      9.13e-07  Convergence criterion met
 Total energy in the final basis set =    -3577.5370390011

                    Orbital Energies (a.u.)
 --------------------------------------------------------------

 Alpha MOs
 -- Occupied --
******** -62.4129 -56.2316 -56.2303 -56.2303 -19.1279 -19.0561 -19.0459
-10.2095 -10.1982 -10.1977 -10.1920 -10.1736 -10.1685 -10.1598 -10.1588
-10.1567 -10.1565 -10.1564 -10.1557 -10.1546 -10.1539 -10.1530 -10.1511
-10.1507 -10.1488 -10.1473 -10.1422  -8.6206  -6.4461  -6.4421  -6.4421
 -2.5580  -2.5569  -2.5569  -2.5537  -2.5537  -1.0451  -0.9711  -0.9655
 -0.8400  -0.8100  -0.7985  -0.7855  -0.7650  -0.7409  -0.7348  -0.7158
 -0.6944  -0.6817  -0.6532  -0.6343  -0.6065  -0.5962  -0.5800  -0.5734
 -0.5669  -0.5617  -0.5505  -0.5185  -0.4867  -0.4844  -0.4715  -0.4641
 -0.4505  -0.4393  -0.4379  -0.4288  -0.4222  -0.4171  -0.4125  -0.4119
 -0.3994  -0.3955  -0.3936  -0.3874  -0.3783  -0.3700  -0.3662  -0.3637
 -0.3570  -0.3536  -0.3451  -0.3378  -0.3346  -0.3294  -0.3245  -0.3219
 -0.3196  -0.3192  -0.3149  -0.3143  -0.3097  -0.3003  -0.2637  -0.2519
 -0.2517  -0.2431  -0.2411  -0.2381  -0.2181  -0.2077  -0.1151

          Ground-State Mulliken Net Atomic Charges

     Atom                 Charge (a.u.)
  ----------------------------------------
      1 C                    -0.050818
      2 C                    -0.398653
      3 C                    -0.502765
      4 C                     0.492076
      5 C                    -0.153929
      6 C                     0.037044
      7 C                    -0.867699
      8 C                    -0.648805
      9 C                     1.993976
     10 C                    -0.689454
     11 O                    -0.665069
     12 O                    -0.584311
     13 H                     0.168104
     14 H                     0.189945
     15 H                     0.184569
     16 H                     0.167075
     17 O                    -0.326943
     18 C                    -0.353366
     19 C                    -0.865099
     20 C                    -0.330952
     21 C                    -0.018973
     22 C                     0.006202
     23 C                     0.021462
     24 C                    -0.075035
     25 C                    -0.296393
     26 C                    -0.356916
     27 C                    -0.729344
     28 Br                   -0.746952
     29 H                     0.300475
     30 H                     0.210086
     31 H                     0.189475
     32 H                     0.181692
     33 H                     0.166809
     34 H                     0.115467
     35 H                     0.119936
     36 H                     0.130233
     37 H                     0.130866
     38 H                     0.136766
     39 H                     0.138284
     40 H                     0.137171
     41 H                     0.136681
     42 H                     0.141026
     43 H                     0.140156
     44 H                     0.149144
     45 H                     0.150068
     46 H                     0.159882
     47 H                     0.162422
     48 H                     0.201684
     49 H                     0.202699
  ----------------------------------------
  Sum of atomic charges =    -2.000000

                    Cartesian Multipole Moments
 -----------------------------------------------------------------
    Charge (ESU x 10^10)
                -9.6064
    Dipole Moment (Debye)
         X     -13.2474      Y       1.9055      Z       3.6031
       Tot      13.8602
    Quadrupole Moments (Debye-Ang)
        XX    -753.5451     XY      21.2832     YY    -200.9529
        XZ     -17.2047     YZ       9.1155     ZZ    -175.8199

 Total job time:  926.10s(wall), 7274.07s(cpu)
        *  Thank you very much for using Q-Chem.  Have a nice day.  *
