 Gaussian 16, Revision A.03,
 Gaussian 16:  ES64L-G16RevA.03 25-Dec-2016

 ----------------------------------------------------------------
 #P UB3LYP/6-311++G(d,p) SCRF=(PCM,Solvent=n,n-DiMethylFormamide)
 ----------------------------------------------------------------

 ------------------
 Radical PCM in DMF
 ------------------
 Symbolic Z-matrix:
 Charge = -1 Multiplicity = 2

                         Standard orientation:
 ---------------------------------------------------------------------
 Center     Atomic      Atomic             Coordinates (Angstroms)
 Number     Number       Type             X           Y           Z
 ---------------------------------------------------------------------
      1          6           0        1.128801    0.916437   -0.909116
      2          6           0       -0.240934    1.449620   -0.885943
      3          6           0       -1.287797    0.553833   -0.851576
      4          6           0       -1.128686   -0.888758   -0.933355
      5          6           0        0.241095   -1.422432   -0.925979
      6          6           0        1.288068   -0.527890   -0.868299
      7          8           0        2.119495    1.683664   -0.952132
      8          8           0       -2.119541   -1.654288   -0.997897
      9         16           0        3.019478   -1.089462   -0.829580
     10          6           0        3.824653   -0.174646    0.519886
     11          6           0        4.630820    0.921520    0.232249
     12          6           0        3.678362   -0.648420    1.820350
     13          6           0        4.344070    0.001736    2.858931
     14          6           0        5.305400    1.553847    1.273690
     15          6           0        5.159030    1.099374    2.585080
     16          8           0        3.703103   -0.741261   -2.083342
     17          8           0        3.043322   -2.497363   -0.386425
     18          1           0        4.704349    1.268055   -0.788909
     19          1           0        3.064754   -1.520287    2.009608
     20          1           0        5.936763    2.409943    1.062159
     21          1           0        4.233029   -0.355860    3.876862
     22          1           0        5.679353    1.602148    3.393676
     23         16           0       -3.018789    1.114931   -0.794952
     24          6           0       -3.824610    0.158772    0.525012
     25          6           0       -3.675139    0.588925    1.840157
     26          6           0       -4.634650   -0.924715    0.202431
     27          6           0       -5.310001   -1.588915    1.223283
     28          6           0       -4.341619   -0.093085    2.857606
     29          6           0       -5.160487   -1.178454    2.548766
     30          1           0       -3.058468    1.452081    2.057351
     31          1           0       -4.710517   -1.237006   -0.829565
     32          1           0       -5.944365   -2.435564    0.984468
     33          1           0       -4.228109    0.230289    3.886646
     34          1           0       -5.681415   -1.705993    3.341028
     35          8           0       -3.702855    0.806626   -2.058932
     36          8           0       -3.041487    2.508296   -0.307918
     37          6           0       -0.343982    2.952451   -0.922856
     38          6           0        0.343870   -2.923762   -1.003850
     39          1           0        0.646111    3.354362   -1.132297
     40          1           0       -0.696601    3.348911    0.032415
     41          1           0       -1.055088    3.292087   -1.676159
     42          1           0       -0.647226   -3.319941   -1.219345
     43          1           0        0.701364   -3.345763   -0.061450
     44          1           0        1.051165   -3.242986   -1.769615
 ---------------------------------------------------------------------

 SCF Done:  E(UB3LYP) =  -2019.87862379     A.U. after   24 cycles

 The electronic state is 2-A.
 Alpha  occ. eigenvalues --  -89.05445 -89.05442 -19.12172 -19.12166 -19.11689
 Alpha  occ. eigenvalues --  -19.11684 -19.09572 -19.09569 -10.24818 -10.24815
 Alpha  occ. eigenvalues --  -10.21300 -10.21297 -10.21131 -10.21129 -10.20895
 Alpha  occ. eigenvalues --  -10.20893 -10.19521 -10.19518 -10.19236 -10.19233
 Alpha  occ. eigenvalues --  -10.18992 -10.18991 -10.18832 -10.18829 -10.18733
 Alpha  occ. eigenvalues --  -10.18730 -10.16092 -10.16089  -8.11815  -8.11811
 Alpha  occ. eigenvalues --   -6.08095  -6.08091  -6.07990  -6.07986  -6.07911
 Alpha  occ. eigenvalues --   -6.07907  -1.11280  -1.11269  -1.02830  -1.02588
 Alpha  occ. eigenvalues --   -1.00813  -1.00797  -0.87781  -0.87777  -0.85816
 Alpha  occ. eigenvalues --   -0.81294  -0.78189  -0.77972  -0.76465  -0.76460
 Alpha  occ. eigenvalues --   -0.73985  -0.73363  -0.69598  -0.66297  -0.65543
 Alpha  occ. eigenvalues --   -0.62864  -0.62400  -0.62390  -0.59744  -0.57538
 Alpha  occ. eigenvalues --   -0.57107  -0.54747  -0.53866  -0.52229  -0.50840
 Alpha  occ. eigenvalues --   -0.49457  -0.48538  -0.48325  -0.47651  -0.47647
 Alpha  occ. eigenvalues --   -0.45849  -0.45688  -0.45468  -0.45367  -0.44582
 Alpha  occ. eigenvalues --   -0.44086  -0.44083  -0.43666  -0.43034  -0.42161
 Alpha  occ. eigenvalues --   -0.41020  -0.39856  -0.39828  -0.39700  -0.38752
 Alpha  occ. eigenvalues --   -0.38469  -0.38048  -0.38025  -0.37917  -0.37764
 Alpha  occ. eigenvalues --   -0.36191  -0.36184  -0.34473  -0.34194  -0.33224
 Alpha  occ. eigenvalues --   -0.33164  -0.31497  -0.31426  -0.30291  -0.30030
 Alpha  occ. eigenvalues --   -0.29852  -0.28310  -0.27621  -0.27574  -0.27136
 Alpha  occ. eigenvalues --   -0.26826  -0.26048  -0.24867  -0.18169
 Alpha virt. eigenvalues --   -0.06279  -0.04342  -0.03428  -0.02505  -0.02493
 Alpha virt. eigenvalues --   -0.00767  -0.00058   0.00397   0.00658   0.00827
 Alpha virt. eigenvalues --    0.01360   0.01764   0.02603   0.02622   0.03191

  Beta  occ. eigenvalues --  -89.05446 -89.05443 -19.12169 -19.12164 -19.11690
  Beta  occ. eigenvalues --  -19.11685 -19.08889 -19.08886 -10.24712 -10.24709
  Beta  occ. eigenvalues --  -10.21299 -10.21296 -10.21109 -10.21108 -10.20662
  Beta  occ. eigenvalues --  -10.20660 -10.19522 -10.19519 -10.19237 -10.19233
  Beta  occ. eigenvalues --  -10.18993 -10.18991 -10.18831 -10.18828 -10.18731
  Beta  occ. eigenvalues --  -10.18728 -10.16107 -10.16103  -8.11816  -8.11812
  Beta  occ. eigenvalues --   -6.08095  -6.08092  -6.07991  -6.07987  -6.07913
  Beta  occ. eigenvalues --   -6.07909  -1.11272  -1.11263  -1.01698  -1.01456
  Beta  occ. eigenvalues --   -1.00791  -1.00743  -0.87778  -0.87774  -0.85218
  Beta  occ. eigenvalues --   -0.81035  -0.78167  -0.77894  -0.76463  -0.76458
  Beta  occ. eigenvalues --   -0.73526  -0.73217  -0.69474  -0.66126  -0.65077
  Beta  occ. eigenvalues --   -0.62749  -0.62398  -0.62386  -0.59694  -0.57430
  Beta  occ. eigenvalues --   -0.56704  -0.54700  -0.53779  -0.52049  -0.50772
  Beta  occ. eigenvalues --   -0.49251  -0.48472  -0.48307  -0.47634  -0.47621
  Beta  occ. eigenvalues --   -0.45774  -0.45679  -0.45393  -0.45354  -0.43995
  Beta  occ. eigenvalues --   -0.43970  -0.43570  -0.43373  -0.42476  -0.41534
  Beta  occ. eigenvalues --   -0.40787  -0.39721  -0.39388  -0.39134  -0.38218
  Beta  occ. eigenvalues --   -0.38178  -0.37967  -0.37902  -0.37501  -0.36729
  Beta  occ. eigenvalues --   -0.36178  -0.36155  -0.34366  -0.34084  -0.33116
  Beta  occ. eigenvalues --   -0.33054  -0.31441  -0.31347  -0.30253  -0.29890
  Beta  occ. eigenvalues --   -0.28009  -0.27581  -0.27413  -0.27377  -0.26608
  Beta  occ. eigenvalues --   -0.26398  -0.25579  -0.24366
  Beta virt. eigenvalues --   -0.11078  -0.05443  -0.04311  -0.02900  -0.02478
  Beta virt. eigenvalues --   -0.02322  -0.00748  -0.00055   0.00673   0.00802
  Beta virt. eigenvalues --    0.01369   0.01778   0.02391   0.02629   0.02847

 Mulliken charges and spin densities:
               1          2
     1  C   -1.007330   0.003434
     2  C    0.563244   0.172597
     3  C    0.236825   0.078005
     4  C   -1.008088   0.003706
     5  C    0.562452   0.172286
     6  C    0.234425   0.078042
     7  O   -0.313381   0.256222
     8  O   -0.313195   0.256238
     9  S    0.333236  -0.031899
    10  C    0.164877  -0.004551
    11  C   -0.243105   0.024485
    12  C    0.238607  -0.007719
    13  C   -0.528985   0.002547
    14  C   -0.399470  -0.003418
    15  C   -0.292265  -0.000294
    16  O   -0.172294   0.004111
    17  O   -0.169877  -0.001587
    18  H    0.259241   0.000617
    19  H    0.244787   0.000455
    20  H    0.214281  -0.000143
    21  H    0.213244   0.000011
    22  H    0.193269   0.000025
    23  S    0.335349  -0.031783
    24  C    0.161356  -0.004548
    25  C    0.238461  -0.007826
    26  C   -0.241783   0.024504
    27  C   -0.398224  -0.003420
    28  C   -0.528719   0.002554
    29  C   -0.292552  -0.000308
    30  H    0.244970   0.000450
    31  H    0.258870   0.000621
    32  H    0.214328  -0.000142
    33  H    0.213278   0.000012
    34  H    0.193265   0.000026
    35  O   -0.171526   0.004085
    36  O   -0.170241  -0.001601
    37  C   -0.602048  -0.006238
    38  C   -0.601232  -0.006234
    39  H    0.182259  -0.001189
    40  H    0.195859   0.008877
    41  H    0.189984   0.005664
    42  H    0.182509  -0.001228
    43  H    0.195635   0.008851
    44  H    0.189703   0.005703
 Sum of Mulliken charges =  -1.00000   1.00000

 Dipole moment (field-independent basis, Debye):
    X=             -0.0024    Y=             -0.1850    Z=             11.8873  Tot=             11.8888
 Quadrupole moment (field-independent basis, Debye-Ang):
   XX=           -223.5096   YY=           -201.4465   ZZ=           -182.2795
   XY=             28.4254   XZ=              0.4905   YZ=             -0.3034

 Normal termination of Gaussian 16 at Wed Jan 24 23:17:09 2024.
