 Gaussian 16, Revision A.03,
 Gaussian 16:  ES64L-G16RevA.03 25-Dec-2016

 --------------------------------------
 #P UB3LYP/6-311++G(d,p) nosym opt freq
 --------------------------------------

 -------
 Radical
 -------
 Symbolic Z-matrix:
 Charge = -1 Multiplicity = 2

 SCF Done:  E(UB3LYP) =  -649.884900758     A.U. after   22 cycles
 Optimization completed.
    -- Stationary point found.
 Normal termination of Gaussian 16 at Sun Jan  7 20:16:00 2024.

 ----------------------------------------------------------------------
 #P Geom=AllCheck Guess=TCheck SCRF=Check GenChk UB3LYP/6-311++G(d,p) F
 req
 ----------------------------------------------------------------------

 Structure from the checkpoint file:  "257-rad.chk"
 -------
 Radical
 -------
 Charge = -1 Multiplicity = 2

                          Input orientation:
 ---------------------------------------------------------------------
 Center     Atomic      Atomic             Coordinates (Angstroms)
 Number     Number       Type             X           Y           Z
 ---------------------------------------------------------------------
      1          6           0        3.907271    0.602016   -0.105915
      2          8           0        2.676744    1.287361   -0.159706
      3          6           0        1.520850    0.548679   -0.100233
      4          6           0        1.502979   -0.827930    0.009235
      5          6           0        0.291838   -1.599464    0.071302
      6          8           0        0.298936   -2.855312    0.171537
      7          6           0       -0.961326   -0.828481    0.010999
      8          6           0       -2.199183   -1.496410    0.064968
      9          6           0       -3.392422   -0.798064    0.010278
     10          6           0       -3.374842    0.607543   -0.101439
     11          6           0       -2.169786    1.282742   -0.155963
     12          6           0       -0.941168    0.589683   -0.101753
     13          6           0        0.311534    1.352859   -0.163265
     14          8           0        0.334045    2.606669   -0.262853
     15          1           0        4.024783    0.043852    0.832150
     16          1           0        4.681686    1.368733   -0.167303
     17          1           0        4.023910   -0.097349   -0.944154
     18          1           0        2.419384   -1.403698    0.054553
     19          1           0       -2.177367   -2.577217    0.150789
     20          1           0       -4.339212   -1.328728    0.053102
     21          1           0       -4.309493    1.159801   -0.144670
     22          1           0       -2.129162    2.362715   -0.241756
 ---------------------------------------------------------------------

 SCF Done:  E(UB3LYP) =  -649.884900758     A.U. after    1 cycles

 Alpha  occ. eigenvalues --  -19.03098 -18.93632 -18.93391 -10.11614 -10.09683
 Alpha  occ. eigenvalues --  -10.08682 -10.08438 -10.05105 -10.05002 -10.04370
 Alpha  occ. eigenvalues --  -10.04313 -10.04237 -10.04050 -10.02771  -0.94691
 Alpha  occ. eigenvalues --   -0.85922  -0.85696  -0.72896  -0.67430  -0.62299
 Alpha  occ. eigenvalues --   -0.62183  -0.59406  -0.53457  -0.49262  -0.47706
 Alpha  occ. eigenvalues --   -0.43432  -0.40051  -0.39195  -0.36281  -0.35823
 Alpha  occ. eigenvalues --   -0.33662  -0.32840  -0.30290  -0.29480  -0.28353
 Alpha  occ. eigenvalues --   -0.27941  -0.26844  -0.26353  -0.24303  -0.23079
 Alpha  occ. eigenvalues --   -0.22877  -0.22061  -0.20530  -0.20180  -0.13318
 Alpha  occ. eigenvalues --   -0.12776  -0.10929  -0.10396  -0.09858  -0.01220
 Alpha virt. eigenvalues --    0.08047   0.08681   0.09511   0.10600   0.11154
 Alpha virt. eigenvalues --    0.11573   0.12121   0.12250   0.13831   0.14157
 Alpha virt. eigenvalues --    0.15209   0.16188   0.17195   0.17697   0.18501

  Beta  occ. eigenvalues --  -19.03027 -18.92904 -18.92804 -10.11619 -10.09516
  Beta  occ. eigenvalues --  -10.08575 -10.08277 -10.05079 -10.04936 -10.04396
  Beta  occ. eigenvalues --  -10.04300 -10.04179 -10.03951 -10.02703  -0.94521
  Beta  occ. eigenvalues --   -0.84829  -0.84525  -0.72686  -0.66954  -0.62091
  Beta  occ. eigenvalues --   -0.62033  -0.59230  -0.52659  -0.49103  -0.47436
  Beta  occ. eigenvalues --   -0.43227  -0.39850  -0.39054  -0.36034  -0.35620
  Beta  occ. eigenvalues --   -0.33486  -0.32756  -0.30131  -0.29395  -0.27735
  Beta  occ. eigenvalues --   -0.27088  -0.26432  -0.25754  -0.23172  -0.22947
  Beta  occ. eigenvalues --   -0.21979  -0.21246  -0.20312  -0.18669  -0.12138
  Beta  occ. eigenvalues --   -0.11180  -0.09774  -0.09748  -0.09245
  Beta virt. eigenvalues --    0.05416   0.08048   0.08674   0.10130   0.10593
  Beta virt. eigenvalues --    0.11156   0.12135   0.12257   0.12759   0.13840
  Beta virt. eigenvalues --    0.14159   0.15217   0.16249   0.17211   0.17872

 Mulliken charges and spin densities:
               1          2
     1  C   -0.327398   0.000247
     2  O   -0.154884   0.013365
     3  C   -0.349785   0.133967
     4  C    0.345865   0.040089
     5  C   -0.561885   0.048438
     6  O   -0.406829   0.212385
     7  C    0.452076   0.058156
     8  C    0.191301   0.001662
     9  C   -0.313469   0.052860
    10  C   -0.354568   0.016969
    11  C    0.133878   0.051413
    12  C    0.308963   0.023316
    13  C   -0.686403   0.086430
    14  O   -0.394522   0.275814
    15  H    0.131428   0.000703
    16  H    0.155299  -0.000184
    17  H    0.131402   0.000701
    18  H    0.158045  -0.006405
    19  H    0.150513  -0.000863
    20  H    0.118394  -0.004058
    21  H    0.120564  -0.001869
    22  H    0.152017  -0.003137
 Sum of Mulliken charges =  -1.00000   1.00000

 Dipole moment (field-independent basis, Debye):
    X=              0.7687    Y=             -0.0780    Z=              0.2718  Tot=              0.8190
 Quadrupole moment (field-independent basis, Debye-Ang):
   XX=            -85.8861   YY=           -121.5798   ZZ=            -87.4267
   XY=             -2.6277   XZ=              0.1659   YZ=              2.7409

  Exact polarizability: 227.506   5.954 186.489  -0.574  -8.147  84.627
 Approx polarizability: 320.808   9.733 349.737  -0.909 -17.553 130.436

                      1                      2                      3
                      A                      A                      A
 Frequencies --     54.4924               106.0007               133.4031
 Red. masses --      3.9373                 5.3886                 4.3156
 Frc consts  --      0.0069                 0.0357                 0.0453
 IR Inten    --      9.1832                 0.4870                 0.3770

                      4                      5                      6
                      A                      A                      A
 Frequencies --    174.0478               205.6929               209.5075
 Red. masses --      4.9437                 3.7829                 2.2109
 Frc consts  --      0.0882                 0.0943                 0.0572
 IR Inten    --      3.6528                 6.4953                 0.0076

                      7                      8                      9
                      A                      A                      A
 Frequencies --    271.7202               273.8417               343.0389
 Red. masses --      1.6046                 6.3873                 5.9664
 Frc consts  --      0.0698                 0.2822                 0.4137
 IR Inten    --      1.2848                 1.1180                 2.1044

                     10                     11                     12
                      A                      A                      A
 Frequencies --    366.7362               401.4749               444.1408
 Red. masses --      9.9423                 5.1138                 3.9309
 Frc consts  --      0.7879                 0.4856                 0.4569
 IR Inten    --      5.7399                 0.0411                 2.3094

                     13                     14                     15
                      A                      A                      A
 Frequencies --    459.0097               470.8154               510.8460
 Red. masses --      6.2539                 9.5614                 3.8875
 Frc consts  --      0.7763                 1.2487                 0.5977
 IR Inten    --      4.1570                 1.5537                 3.1732

                     16                     17                     18
                      A                      A                      A
 Frequencies --    542.6996               647.2554               654.1321
 Red. masses --      7.1569                 7.1311                 3.2473
 Frc consts  --      1.2419                 1.7602                 0.8186
 IR Inten    --      1.2111                11.8955                 1.0255

                     19                     20                     21
                      A                      A                      A
 Frequencies --    694.4992               712.9559               725.6000
 Red. masses --      5.5026                 2.8663                 6.4049
 Frc consts  --      1.5637                 0.8584                 1.9868
 IR Inten    --      1.1120                24.9912                 7.2344

                     22                     23                     24
                      A                      A                      A
 Frequencies --    766.1542               784.2920               830.5903
 Red. masses --      1.7532                 3.5848                 1.7659
 Frc consts  --      0.6063                 1.2992                 0.7178
 IR Inten    --     49.6700                 5.9174                20.6739

                     25                     26                     27
                      A                      A                      A
 Frequencies --    840.9907               864.1068               936.7448
 Red. masses --      4.5340                 1.4288                 6.0898
 Frc consts  --      1.8894                 0.6286                 3.1484
 IR Inten    --      5.0373                 0.0580                41.4488

                     28                     29                     30
                      A                      A                      A
 Frequencies --    975.8378               977.5349              1035.2589
 Red. masses --      1.3247                 1.2786                 2.2439
 Frc consts  --      0.7432                 0.7199                 1.4169
 IR Inten    --      2.0023                 0.8885                29.6134

                     31                     32                     33
                      A                      A                      A
 Frequencies --   1088.0243              1103.6689              1139.5510
 Red. masses --      4.4148                 2.9004                 1.7160
 Frc consts  --      3.0792                 2.0815                 1.3129
 IR Inten    --     28.3630                30.9834                13.1118

                     34                     35                     36
                      A                      A                      A
 Frequencies --   1153.6843              1164.3012              1184.3296
 Red. masses --      1.5687                 1.2829                 1.7757
 Frc consts  --      1.2302                 1.0247                 1.4674
 IR Inten    --     14.8266                 0.5685               132.9255

                     37                     38                     39
                      A                      A                      A
 Frequencies --   1223.0341              1227.9077              1246.4049
 Red. masses --      2.8485                 2.0571                 2.0034
 Frc consts  --      2.5104                 1.8274                 1.8337
 IR Inten    --    125.2455               104.9140                86.0726

                     40                     41                     42
                      A                      A                      A
 Frequencies --   1295.5228              1354.6472              1401.8281
 Red. masses --      1.9656                10.1675                 3.2802
 Frc consts  --      1.9437                10.9930                 3.7979
 IR Inten    --     32.4173                22.9919               100.6183

                     43                     44                     45
                      A                      A                      A
 Frequencies --   1453.9966              1466.7251              1475.4456
 Red. masses --      2.1532                 2.1828                 1.9376
 Frc consts  --      2.6820                 2.7667                 2.4852
 IR Inten    --     78.2373                94.9752                10.7543

                     46                     47                     48
                      A                      A                      A
 Frequencies --   1482.7809              1505.2782              1520.1862
 Red. masses --      1.0471                 1.0693                 5.1576
 Frc consts  --      1.3564                 1.4276                 7.0225
 IR Inten    --      5.0832                33.2711                53.1077

                     49                     50                     51
                      A                      A                      A
 Frequencies --   1534.7099              1550.7174              1617.9984
 Red. masses --      6.1694                 5.0235                 7.5705
 Frc consts  --      8.5614                 7.1174                11.6770
 IR Inten    --    383.2316               206.4132                12.4934

                     52                     53                     54
                      A                      A                      A
 Frequencies --   1627.1691              2976.6225              3022.6501
 Red. masses --      6.2835                 1.0348                 1.1043
 Frc consts  --      9.8021                 5.4018                 5.9444
 IR Inten    --     44.8474               104.5669                61.5067

                     55                     56                     57
                      A                      A                      A
 Frequencies --   3093.7365              3129.8519              3149.5289
 Red. masses --      1.0972                 1.0845                 1.0910
 Frc consts  --      6.1875                 6.2591                 6.3763
 IR Inten    --     55.9332                17.6145                50.6762

                     58                     59                     60
                      A                      A                      A
 Frequencies --   3177.5468              3180.9767              3181.4830
 Red. masses --      1.0915                 1.0906                 1.0897
 Frc consts  --      6.4930                 6.5019                 6.4986
 IR Inten    --     16.5974                41.3194                 1.0807

 - Thermochemistry -
 -------------------
 Temperature   298.150 Kelvin.  Pressure   1.00000 Atm.
 Atom     1 has atomic number  6 and mass  12.00000

 Molecular mass:   188.04734 amu.
 Principal axes and moments of inertia in atomic units:
                           1         2         3
     Eigenvalues --  1454.824693210.552884653.95001
           X            0.97809  -0.20818   0.00068
           Y            0.20747   0.97502   0.07926
           Z           -0.01716  -0.07738   0.99685
 This molecule is an asymmetric top.
 Rotational symmetry number  1.
 Warning -- assumption of classical behavior for rotation
           may cause significant error
 Rotational temperatures (Kelvin)      0.05954     0.02698     0.01861
 Rotational constants (GHZ):           1.24052     0.56213     0.38779
 Zero-point vibrational energy     425534.0 (Joules/Mol)
                                  101.70507 (Kcal/Mol)
 Warning -- explicit consideration of  16 degrees of freedom as
           vibrations may cause significant error
 Vibrational temperatures:     78.40   152.51   191.94   250.42   295.95
          (Kelvin)            301.43   390.94   394.00   493.56   527.65
                              577.63   639.02   660.41   677.40   734.99
                              780.82   931.26   941.15   999.23  1025.78
                             1043.98  1102.33  1128.42  1195.03  1210.00
                             1243.26  1347.77  1404.01  1406.45  1489.51
                             1565.42  1587.93  1639.56  1659.89  1675.17
                             1703.99  1759.67  1766.69  1793.30  1863.97
                             1949.04  2016.92  2091.98  2110.29  2122.84
                             2133.39  2165.76  2187.21  2208.11  2231.14
                             2327.94  2341.13  4282.70  4348.92  4451.20
                             4503.16  4531.47  4571.78  4576.72  4577.44

 Zero-point correction=                           0.162077 (Hartree/Particle)
 Thermal correction to Energy=                    0.173316
 Thermal correction to Enthalpy=                  0.174260
 Thermal correction to Gibbs Free Energy=         0.124198
 Sum of electronic and zero-point Energies=           -649.722823
 Sum of electronic and thermal Energies=              -649.711585
 Sum of electronic and thermal Enthalpies=            -649.710641
 Sum of electronic and thermal Free Energies=         -649.760703

                     E (Thermal)             CV                S
                      KCal/Mol        Cal/Mol-Kelvin    Cal/Mol-Kelvin
 Total                  108.757             43.923            105.365
 Electronic               0.000              0.000              1.377
 Translational            0.889              2.981             41.600
 Rotational               0.889              2.981             31.453
 Vibrational            106.980             37.962             30.935
 Vibration     1          0.596              1.976              4.647
 Vibration     2          0.605              1.944              3.341
 Vibration     3          0.613              1.920              2.896
 Vibration     4          0.627              1.874              2.391
 Vibration     5          0.640              1.832              2.082
 Vibration     6          0.642              1.826              2.048
 Vibration     7          0.675              1.725              1.585
 Vibration     8          0.676              1.722              1.572
 Vibration     9          0.722              1.589              1.198
 Vibration    10          0.740              1.541              1.093
 Vibration    11          0.767              1.467              0.957
 Vibration    12          0.804              1.374              0.814
 Vibration    13          0.817              1.341              0.769
 Vibration    14          0.828              1.315              0.735
 Vibration    15          0.866              1.226              0.632
 Vibration    16          0.898              1.156              0.560

 Optimization completed.
    -- Stationary point found.
 Normal termination of Gaussian 16 at Sun Jan  7 20:45:28 2024.
