 Gaussian 16, Revision A.03,
 Gaussian 16:  ES64L-G16RevA.03 25-Dec-2016

 ----------------------------------------------------------------
 #P UB3LYP/6-311++G(d,p) SCRF=(PCM,Solvent=n,n-DiMethylFormamide)
 ----------------------------------------------------------------

 ------------------
 Radical PCM in DMF
 ------------------
 Symbolic Z-matrix:
 Charge = -1 Multiplicity = 2

                         Standard orientation:
 ---------------------------------------------------------------------
 Center     Atomic      Atomic             Coordinates (Angstroms)
 Number     Number       Type             X           Y           Z
 ---------------------------------------------------------------------
      1          6           0       -3.986987    0.178759    0.000078
      2          8           0       -2.904145   -0.723594   -0.000062
      3          6           0       -1.631524   -0.208119   -0.000103
      4          6           0       -1.359586    1.145914   -0.000093
      5          6           0       -0.026593    1.683602   -0.000189
      6          8           0        0.198494    2.923194    0.000205
      7          6           0        1.062679    0.692664   -0.000049
      8          6           0        2.402788    1.123289   -0.000025
      9          6           0        3.446580    0.214997   -0.000005
     10          6           0        3.169571   -1.167677    0.000041
     11          6           0        1.860358   -1.611510    0.000018
     12          6           0        0.780815   -0.701918   -0.000037
     13          6           0       -0.591485   -1.223719   -0.000022
     14          8           0       -0.845291   -2.455810    0.000088
     15          1           0       -3.985710    0.820254    0.891035
     16          1           0       -4.889833   -0.434603    0.000173
     17          1           0       -3.986043    0.820294   -0.890872
     18          1           0       -2.153926    1.882382    0.000072
     19          1           0        2.581057    2.192965   -0.000117
     20          1           0        4.475236    0.563876   -0.000015
     21          1           0        3.986192   -1.884309    0.000081
     22          1           0        1.620871   -2.668865    0.000114
 ---------------------------------------------------------------------

 SCF Done:  E(UB3LYP) =  -649.968798101     A.U. after   19 cycles

 The electronic state is 2-A.
 Alpha  occ. eigenvalues --  -19.15427 -19.07699 -19.07336 -10.22797 -10.22332
 Alpha  occ. eigenvalues --  -10.22165 -10.21693 -10.17318 -10.17243 -10.17154
 Alpha  occ. eigenvalues --  -10.17118 -10.16936 -10.16895 -10.15730  -1.06976
 Alpha  occ. eigenvalues --   -0.99949  -0.99724  -0.85705  -0.80294  -0.74979
 Alpha  occ. eigenvalues --   -0.74408  -0.71386  -0.66195  -0.61896  -0.59977
 Alpha  occ. eigenvalues --   -0.56196  -0.52155  -0.51735  -0.49031  -0.46983
 Alpha  occ. eigenvalues --   -0.46219  -0.44690  -0.42817  -0.42047  -0.41522
 Alpha  occ. eigenvalues --   -0.41117  -0.40138  -0.39644  -0.37938  -0.35619
 Alpha  occ. eigenvalues --   -0.35547  -0.34318  -0.33267  -0.32847  -0.26577
 Alpha  occ. eigenvalues --   -0.25639  -0.24568  -0.23877  -0.23725  -0.14861
 Alpha virt. eigenvalues --   -0.03275  -0.00999  -0.00257   0.00520   0.01474
 Alpha virt. eigenvalues --    0.02288   0.02695   0.03595   0.04332   0.04724
 Alpha virt. eigenvalues --    0.05048   0.05459   0.06053   0.06483   0.06740

  Beta  occ. eigenvalues --  -19.15341 -19.07033 -19.06798 -10.22635 -10.22192
  Beta  occ. eigenvalues --  -10.21945 -10.21697 -10.17284 -10.17226 -10.17093
  Beta  occ. eigenvalues --  -10.17034 -10.16947 -10.16867 -10.15669  -1.06769
  Beta  occ. eigenvalues --   -0.98890  -0.98673  -0.85487  -0.79821  -0.74771
  Beta  occ. eigenvalues --   -0.74223  -0.71150  -0.65444  -0.61719  -0.59700
  Beta  occ. eigenvalues --   -0.55956  -0.51961  -0.51563  -0.48769  -0.46625
  Beta  occ. eigenvalues --   -0.46005  -0.44623  -0.42658  -0.41892  -0.40626
  Beta  occ. eigenvalues --   -0.40186  -0.39891  -0.39330  -0.35789  -0.35416
  Beta  occ. eigenvalues --   -0.34809  -0.34252  -0.33106  -0.31465  -0.24969
  Beta  occ. eigenvalues --   -0.24567  -0.23990  -0.23335  -0.22844
  Beta virt. eigenvalues --   -0.08293  -0.02521  -0.00237   0.00145   0.00522
  Beta virt. eigenvalues --    0.01493   0.02318   0.02701   0.03645   0.04355
  Beta virt. eigenvalues --    0.05059   0.05433   0.05488   0.06486   0.06756

 Mulliken charges and spin densities:
               1          2
     1  C   -0.330387  -0.000516
     2  O   -0.210018   0.018566
     3  C   -0.428774   0.127305
     4  C    0.319275   0.029398
     5  C   -0.317888   0.076569
     6  O   -0.499549   0.192369
     7  C    0.357510   0.046126
     8  C    0.216033   0.009423
     9  C   -0.386981   0.051419
    10  C   -0.410790   0.009808
    11  C    0.171168   0.065339
    12  C    0.185662   0.003028
    13  C   -0.550438   0.133108
    14  O   -0.497184   0.250506
    15  H    0.157913   0.001426
    16  H    0.187910  -0.000138
    17  H    0.157917   0.001426
    18  H    0.196928  -0.005618
    19  H    0.159673  -0.000933
    20  H    0.179591  -0.003713
    21  H    0.181807  -0.001343
    22  H    0.160623  -0.003556
 Sum of Mulliken charges =  -1.00000   1.00000

 Dipole moment (field-independent basis, Debye):
    X=              0.1947    Y=              0.1154    Z=             -0.0005  Tot=              0.2263
 Quadrupole moment (field-independent basis, Debye-Ang):
   XX=            -75.2634   YY=           -122.5923   ZZ=            -86.8554
   XY=            -12.2623   XZ=             -0.0009   YZ=             -0.0015

 Normal termination of Gaussian 16 at Sun Jan 21 08:24:08 2024.
