 Q-Chem 5.4, Q-Chem, Inc., Pleasanton, CA (2021)
 Q-Chem 5.4.0 for Intel X86 EM64T Linux

User input:
--------------------------------------------------------------
$molecule
0 1
C                 -3.4199760000     -0.7289220000     -0.3823230000
C                 -2.0325970000     -0.2644570000     -0.0651780000
C                 -1.7584680000      0.6980350000      0.8352780000
C                 -0.3932030000      1.1507830000      1.1434330000
O                 -0.2159800000      2.0435370000      1.9857690000
C                  0.7259650000      0.5238610000      0.4360480000
C                  2.0538270000      0.9271670000      0.7010140000
O                  2.3492850000      1.8815500000      1.5918570000
C                  3.1122360000      0.3118170000      0.0109570000
C                  2.8522040000     -0.6798500000     -0.9190400000
C                  1.5404720000     -1.0888620000     -1.1911370000
C                  0.4846900000     -0.4907380000     -0.5178180000
C                 -0.9125980000     -0.9281240000     -0.8094190000
O                 -1.1565560000     -1.7999820000     -1.6272870000
H                 -4.1605850000     -0.1884780000      0.2079130000
H                 -3.5179270000     -1.8007960000     -0.1895690000
H                 -3.6357810000     -0.5905060000     -1.4453290000
H                 -2.5447020000      1.1989620000      1.3909390000
H                  1.4977090000      2.1993530000      1.9765670000
H                  4.1228580000      0.6352890000      0.2285870000
H                  3.6782150000     -1.1460860000     -1.4440790000
H                  1.3309110000     -1.8635550000     -1.9171820000
$end

$rem
BASIS  =  6-311++G(d,p)
GUI  =  2
JOB_TYPE  =  SP
METHOD  =  B3LYP
SCF_CONVERGENCE  = 8
SOLVENT_METHOD = sm12
$end

$smx
solvent dimethylformamide
charges CM5
$end

--------------------------------------------------------------

             Standard Nuclear Orientation (Angstroms)
    I     Atom           X                Y                Z
 ----------------------------------------------------------------
    1      C      -3.4199760000    -0.7289220000    -0.3823230000
    2      C      -2.0325970000    -0.2644570000    -0.0651780000
    3      C      -1.7584680000     0.6980350000     0.8352780000
    4      C      -0.3932030000     1.1507830000     1.1434330000
    5      O      -0.2159800000     2.0435370000     1.9857690000
    6      C       0.7259650000     0.5238610000     0.4360480000
    7      C       2.0538270000     0.9271670000     0.7010140000
    8      O       2.3492850000     1.8815500000     1.5918570000
    9      C       3.1122360000     0.3118170000     0.0109570000
   10      C       2.8522040000    -0.6798500000    -0.9190400000
   11      C       1.5404720000    -1.0888620000    -1.1911370000
   12      C       0.4846900000    -0.4907380000    -0.5178180000
   13      C      -0.9125980000    -0.9281240000    -0.8094190000
   14      O      -1.1565560000    -1.7999820000    -1.6272870000
   15      H      -4.1605850000    -0.1884780000     0.2079130000
   16      H      -3.5179270000    -1.8007960000    -0.1895690000
   17      H      -3.6357810000    -0.5905060000    -1.4453290000
   18      H      -2.5447020000     1.1989620000     1.3909390000
   19      H       1.4977090000     2.1993530000     1.9765670000
   20      H       4.1228580000     0.6352890000     0.2285870000
   21      H       3.6782150000    -1.1460860000    -1.4440790000
   22      H       1.3309110000    -1.8635550000    -1.9171820000
 ----------------------------------------------------------------

   15    -649.8489252062      2.65e-09  Convergence criterion met
 Total energy in the final basis set =     -649.8682064776

                    Orbital Energies (a.u.)
 --------------------------------------------------------------

 Alpha MOs
 -- Occupied --
-19.1650 -19.1413 -19.1348 -10.2878 -10.2831 -10.2691 -10.2210 -10.2119
-10.2078 -10.2046 -10.2030 -10.1969 -10.1956 -10.1737  -1.0930  -1.0679
 -1.0624  -0.8904  -0.8487  -0.7914  -0.7734  -0.7297  -0.6914  -0.6589
 -0.6258  -0.6076  -0.5492  -0.5408  -0.5343  -0.4951  -0.4798  -0.4693
 -0.4670  -0.4622  -0.4394  -0.4324  -0.4205  -0.4144  -0.4052  -0.4030
 -0.4008  -0.3848  -0.3788  -0.3583  -0.3010  -0.2942  -0.2822  -0.2778
 -0.2529

          Ground-State Mulliken Net Atomic Charges

     Atom                 Charge (a.u.)
  ----------------------------------------
      1 C                     0.402054
      2 C                     0.931588
      3 C                     0.369157
      4 C                    -1.543390
      5 O                    -0.364030
      6 C                     0.479805
      7 C                    -1.041155
      8 O                    -0.323127
      9 C                     0.295429
     10 C                     0.361170
     11 C                    -0.139628
     12 C                    -0.079853
     13 C                    -1.078441
     14 O                    -0.278407
     15 H                     0.256671
     16 H                     0.192147
     17 H                     0.192336
     18 H                     0.271073
     19 H                     0.299957
     20 H                     0.251404
     21 H                     0.353623
     22 H                     0.191614
  ----------------------------------------
  Sum of atomic charges =     0.000000

                    Cartesian Multipole Moments
 -----------------------------------------------------------------
    Charge (ESU x 10^10)
                 0.0000
    Dipole Moment (Debye)
         X      -0.6288      Y      -0.9890      Z      -0.8881
       Tot       1.4705
    Quadrupole Moments (Debye-Ang)
        XX     -66.3013     XY      -5.5623     YY     -89.0408
        XZ      -6.7941     YZ      -6.4545     ZZ     -87.3890

 Total job time:  313.25s(wall), 2438.08s(cpu)
        *  Thank you very much for using Q-Chem.  Have a nice day.  *
