 Gaussian 16, Revision A.03,
 Gaussian 16:  ES64L-G16RevA.03 25-Dec-2016

 ----------------------------------------------------------------
 #P UB3LYP/6-311++G(d,p) SCRF=(PCM,Solvent=n,n-DiMethylFormamide)
 ----------------------------------------------------------------

 ------------------
 Quinone PCM in DMF
 ------------------
 Symbolic Z-matrix:
 Charge =  0 Multiplicity = 1

                         Standard orientation:
 ---------------------------------------------------------------------
 Center     Atomic      Atomic             Coordinates (Angstroms)
 Number     Number       Type             X           Y           Z
 ---------------------------------------------------------------------
      1          6           0        3.565896    0.784024    0.000245
      2          6           0        4.550585   -0.201300    0.000361
      3          6           0        4.197675   -1.552521    0.000261
      4          6           0        2.219404    0.423364    0.000038
      5          6           0        1.866236   -0.931906   -0.000054
      6          6           0        2.856587   -1.919579    0.000047
      7          6           0        1.172654    1.498903   -0.000092
      8          6           0       -0.229851    1.079169   -0.000042
      9          6           0       -0.624835   -0.236434   -0.000207
     10          6           0        0.444309   -1.323218   -0.000263
     11          8           0        1.505577    2.674598   -0.000203
     12          8           0        0.087878   -2.490458   -0.000522
     13          1           0        3.818679    1.836795    0.000313
     14          1           0        5.596555    0.084027    0.000541
     15          1           0        2.557752   -2.960375   -0.000051
     16         17           0       -1.375514    2.407877    0.000017
     17          1           0        4.967510   -2.315442    0.000341
     18          7           0       -1.855698   -0.782413   -0.000362
     19          6           0       -3.188074   -0.176157   -0.000287
     20          6           0       -4.251092   -1.274932    0.000682
     21          6           0       -5.670734   -0.703069    0.000285
     22          1           0       -1.816153   -1.796827   -0.000601
     23          1           0       -3.309742    0.459743   -0.880600
     24          1           0       -3.309151    0.460728    0.879357
     25          1           0       -4.109303   -1.912169    0.881228
     26          1           0       -4.109463   -1.913591   -0.878870
     27          1           0       -5.849754   -0.082741    0.883329
     28          1           0       -6.413618   -1.503938    0.001107
     29          1           0       -5.849892   -0.084408   -0.883895
 ---------------------------------------------------------------------

 SCF Done:  E(UB3LYP) =  -1168.24280913     A.U. after   15 cycles

 The electronic state is 1-A.
 Alpha  occ. eigenvalues -- -101.56181 -19.15030 -19.12212 -14.36334 -10.30050
 Alpha  occ. eigenvalues --  -10.27976 -10.26503 -10.24299 -10.21613 -10.21233
 Alpha  occ. eigenvalues --  -10.21179 -10.20270 -10.20151 -10.19896 -10.19830
 Alpha  occ. eigenvalues --  -10.17856 -10.16423  -9.47662  -7.24124  -7.23151
 Alpha  occ. eigenvalues --   -7.23096  -1.08774  -1.05996  -0.97186  -0.89512
 Alpha  occ. eigenvalues --   -0.87988  -0.82216  -0.79787  -0.78184  -0.75674
 Alpha  occ. eigenvalues --   -0.71056  -0.68412  -0.65171  -0.62754  -0.61700
 Alpha  occ. eigenvalues --   -0.59429  -0.56175  -0.54693  -0.52278  -0.49884
 Alpha  occ. eigenvalues --   -0.49282  -0.48892  -0.47077  -0.46475  -0.45496
 Alpha  occ. eigenvalues --   -0.45322  -0.45119  -0.43322  -0.42651  -0.41987
 Alpha  occ. eigenvalues --   -0.41660  -0.38986  -0.38688  -0.37466  -0.37282
 Alpha  occ. eigenvalues --   -0.36323  -0.35865  -0.34673  -0.33304  -0.32069
 Alpha  occ. eigenvalues --   -0.30370  -0.28908  -0.28118  -0.27992  -0.23282
 Alpha virt. eigenvalues --   -0.12300  -0.05701  -0.02605  -0.01111  -0.00168
 Alpha virt. eigenvalues --    0.00385   0.00964   0.01616   0.02034   0.02244
 Alpha virt. eigenvalues --    0.02461   0.02946   0.04039   0.04385   0.04613

  Beta  occ. eigenvalues -- -101.56181 -19.15030 -19.12212 -14.36334 -10.30050
  Beta  occ. eigenvalues --  -10.27976 -10.26503 -10.24299 -10.21613 -10.21233
  Beta  occ. eigenvalues --  -10.21179 -10.20270 -10.20151 -10.19896 -10.19830
  Beta  occ. eigenvalues --  -10.17856 -10.16423  -9.47662  -7.24124  -7.23151
  Beta  occ. eigenvalues --   -7.23096  -1.08774  -1.05996  -0.97186  -0.89512
  Beta  occ. eigenvalues --   -0.87988  -0.82216  -0.79787  -0.78184  -0.75674
  Beta  occ. eigenvalues --   -0.71056  -0.68412  -0.65171  -0.62754  -0.61700
  Beta  occ. eigenvalues --   -0.59429  -0.56175  -0.54693  -0.52278  -0.49884
  Beta  occ. eigenvalues --   -0.49282  -0.48892  -0.47077  -0.46475  -0.45496
  Beta  occ. eigenvalues --   -0.45322  -0.45119  -0.43322  -0.42651  -0.41987
  Beta  occ. eigenvalues --   -0.41660  -0.38986  -0.38688  -0.37466  -0.37282
  Beta  occ. eigenvalues --   -0.36323  -0.35865  -0.34673  -0.33304  -0.32069
  Beta  occ. eigenvalues --   -0.30370  -0.28908  -0.28118  -0.27992  -0.23282
  Beta virt. eigenvalues --   -0.12300  -0.05701  -0.02605  -0.01111  -0.00168
  Beta virt. eigenvalues --    0.00385   0.00964   0.01616   0.02034   0.02244
  Beta virt. eigenvalues --    0.02461   0.02946   0.04039   0.04385   0.04613

 Mulliken charges and spin densities:
               1          2
     1  C    0.106476  -0.000000
     2  C   -0.381176   0.000000
     3  C   -0.519704  -0.000000
     4  C    0.301427   0.000000
     5  C    0.480804   0.000000
     6  C    0.032026   0.000000
     7  C   -0.581735  -0.000000
     8  C   -0.114639  -0.000000
     9  C    0.079088  -0.000000
    10  C   -0.361834   0.000000
    11  O   -0.297930   0.000000
    12  O   -0.262703   0.000000
    13  H    0.195472  -0.000000
    14  H    0.205951   0.000000
    15  H    0.196509  -0.000000
    16  Cl   0.494779  -0.000000
    17  H    0.207958  -0.000000
    18  N   -0.069995   0.000000
    19  C   -0.254704   0.000000
    20  C   -0.288377  -0.000000
    21  C   -0.666459   0.000000
    22  H    0.360738  -0.000000
    23  H    0.188710  -0.000000
    24  H    0.188483  -0.000000
    25  H    0.155083   0.000000
    26  H    0.154926   0.000000
    27  H    0.145783  -0.000000
    28  H    0.159283  -0.000000
    29  H    0.145762  -0.000000
 Sum of Mulliken charges =  -0.00000   0.00000

 Dipole moment (field-independent basis, Debye):
    X=             -0.9865    Y=             -5.0428    Z=              0.0009  Tot=              5.1384
 Quadrupole moment (field-independent basis, Debye-Ang):
   XX=            -74.8718   YY=           -123.8074   ZZ=           -108.1843
   XY=             -4.7579   XZ=              0.0031   YZ=              0.0006

 Normal termination of Gaussian 16 at Sun Jan 21 07:54:15 2024.
