 Gaussian 16, Revision A.03,
 Gaussian 16:  ES64L-G16RevA.03 25-Dec-2016

 --------------------------------------
 #P UB3LYP/6-311++G(d,p) nosym opt freq
 --------------------------------------

 --------
 Oxidized
 --------
 Symbolic Z-matrix:
 Charge =  0 Multiplicity = 1

 SCF Done:  E(UB3LYP) =  -1168.23167877     A.U. after   16 cycles
 Optimization completed.
    -- Stationary point found.
 Normal termination of Gaussian 16 at Sun Jan  7 20:15:50 2024.

 ----------------------------------------------------------------------
 #P Geom=AllCheck Guess=TCheck SCRF=Check GenChk UB3LYP/6-311++G(d,p) F
 req
 ----------------------------------------------------------------------

 Structure from the checkpoint file:  "230.chk"
 --------
 Oxidized
 --------
 Charge =  0 Multiplicity = 1

                          Input orientation:
 ---------------------------------------------------------------------
 Center     Atomic      Atomic             Coordinates (Angstroms)
 Number     Number       Type             X           Y           Z
 ---------------------------------------------------------------------
      1          6           0        5.953381   -5.155041    1.111699
      2          6           0        6.889828   -4.963239    0.098411
      3          6           0        6.680503   -3.990940   -0.881978
      4          6           0        4.799417   -4.374047    1.150858
      5          6           0        4.590162   -3.399174    0.167334
      6          6           0        5.531756   -3.208284   -0.849157
      7          6           0        3.801869   -4.595105    2.250177
      8          6           0        2.603041   -3.754884    2.256072
      9          6           0        2.354212   -2.786781    1.313902
     10          6           0        3.372319   -2.568052    0.200446
     11          8           0        4.006771   -5.451732    3.097114
     12          8           0        3.146352   -1.706554   -0.633971
     13          1           0        6.097027   -5.903344    1.880877
     14          1           0        7.785848   -5.573090    0.072051
     15          1           0        5.346852   -2.448103   -1.597818
     16         17           0        1.499907   -4.089522    3.578615
     17          1           0        7.412079   -3.845508   -1.668325
     18          7           0        1.315352   -1.940769    1.179172
     19          6           0        0.101999   -1.756422    1.977021
     20          6           0       -0.749252   -0.643404    1.365567
     21          6           0       -2.036359   -0.401402    2.157527
     22          1           0        1.425297   -1.337480    0.370127
     23          1           0        0.366229   -1.501267    3.006197
     24          1           0       -0.469078   -2.687468    2.009883
     25          1           0       -0.995849   -0.906275    0.330373
     26          1           0       -0.160064    0.280107    1.326318
     27          1           0       -2.658636   -1.300502    2.189325
     28          1           0       -2.628875    0.396481    1.704122
     29          1           0       -1.819430   -0.109179    3.189109
 ---------------------------------------------------------------------

 SCF Done:  E(UB3LYP) =  -1168.23167877     A.U. after    1 cycles

 Alpha  occ. eigenvalues -- -101.55341 -19.14681 -19.11312 -14.36189 -10.29675
 Alpha  occ. eigenvalues --  -10.27149 -10.26132 -10.24047 -10.22361 -10.21197
 Alpha  occ. eigenvalues --  -10.21060 -10.20427 -10.20393 -10.20231 -10.19811
 Alpha  occ. eigenvalues --  -10.19088 -10.17703  -9.46810  -7.23285  -7.22296
 Alpha  occ. eigenvalues --   -7.22234  -1.08432  -1.04930  -0.97193  -0.89452
 Alpha  occ. eigenvalues --   -0.87437  -0.82279  -0.80398  -0.78180  -0.75865
 Alpha  occ. eigenvalues --   -0.71329  -0.68512  -0.65158  -0.62992  -0.62312
 Alpha  occ. eigenvalues --   -0.59452  -0.56239  -0.54732  -0.52068  -0.50104
 Alpha  occ. eigenvalues --   -0.49844  -0.49094  -0.46870  -0.46435  -0.45472
 Alpha  occ. eigenvalues --   -0.45387  -0.44081  -0.43223  -0.42779  -0.42210
 Alpha  occ. eigenvalues --   -0.41885  -0.39068  -0.39022  -0.38429  -0.37347
 Alpha  occ. eigenvalues --   -0.36863  -0.36444  -0.35043  -0.33101  -0.31312
 Alpha  occ. eigenvalues --   -0.29952  -0.28879  -0.28043  -0.26918  -0.22993
 Alpha virt. eigenvalues --   -0.11952  -0.05603  -0.02639  -0.01581  -0.00872
 Alpha virt. eigenvalues --    0.00242   0.00457   0.01194   0.01363   0.02290
 Alpha virt. eigenvalues --    0.02531   0.02587   0.03839   0.04385   0.04448

  Beta  occ. eigenvalues -- -101.55341 -19.14681 -19.11312 -14.36189 -10.29675
  Beta  occ. eigenvalues --  -10.27149 -10.26132 -10.24047 -10.22361 -10.21197
  Beta  occ. eigenvalues --  -10.21060 -10.20427 -10.20393 -10.20231 -10.19811
  Beta  occ. eigenvalues --  -10.19088 -10.17703  -9.46810  -7.23285  -7.22296
  Beta  occ. eigenvalues --   -7.22234  -1.08432  -1.04930  -0.97193  -0.89452
  Beta  occ. eigenvalues --   -0.87437  -0.82279  -0.80398  -0.78180  -0.75865
  Beta  occ. eigenvalues --   -0.71329  -0.68512  -0.65158  -0.62992  -0.62312
  Beta  occ. eigenvalues --   -0.59452  -0.56239  -0.54732  -0.52068  -0.50104
  Beta  occ. eigenvalues --   -0.49844  -0.49094  -0.46870  -0.46435  -0.45472
  Beta  occ. eigenvalues --   -0.45387  -0.44081  -0.43223  -0.42779  -0.42210
  Beta  occ. eigenvalues --   -0.41885  -0.39068  -0.39022  -0.38429  -0.37347
  Beta  occ. eigenvalues --   -0.36863  -0.36444  -0.35043  -0.33101  -0.31312
  Beta  occ. eigenvalues --   -0.29952  -0.28879  -0.28043  -0.26918  -0.22993
  Beta virt. eigenvalues --   -0.11952  -0.05603  -0.02639  -0.01581  -0.00872
  Beta virt. eigenvalues --    0.00242   0.00457   0.01194   0.01363   0.02290
  Beta virt. eigenvalues --    0.02531   0.02587   0.03839   0.04385   0.04448

 Mulliken charges and spin densities:
               1          2
     1  C    0.084476  -0.000000
     2  C   -0.329914  -0.000000
     3  C   -0.457901   0.000000
     4  C    0.345646   0.000000
     5  C    0.500647   0.000000
     6  C   -0.001968  -0.000000
     7  C   -0.644054  -0.000000
     8  C   -0.118924   0.000000
     9  C    0.062900  -0.000000
    10  C   -0.424047  -0.000000
    11  O   -0.206881   0.000000
    12  O   -0.229638   0.000000
    13  H    0.195642  -0.000000
    14  H    0.174947  -0.000000
    15  H    0.188390  -0.000000
    16  Cl   0.538253  -0.000000
    17  H    0.175977   0.000000
    18  N   -0.092302   0.000000
    19  C   -0.280293  -0.000000
    20  C   -0.274235  -0.000000
    21  C   -0.642589   0.000000
    22  H    0.345872   0.000000
    23  H    0.179334   0.000000
    24  H    0.179109   0.000000
    25  H    0.147478   0.000000
    26  H    0.147288   0.000000
    27  H    0.140999   0.000000
    28  H    0.154814  -0.000000
    29  H    0.140973   0.000000
 Sum of Mulliken charges =  -0.00000   0.00000

 Dipole moment (field-independent basis, Debye):
    X=             -0.4697    Y=              2.4174    Z=             -2.4817  Tot=              3.4962
 Quadrupole moment (field-independent basis, Debye-Ang):
   XX=            -89.2995   YY=           -125.0785   ZZ=           -119.7744
   XY=             -0.6139   XZ=            -15.1842   YZ=             20.4190

  Exact polarizability: 226.344 -58.185 171.134 -37.018 -36.163 173.711
 Approx polarizability: 307.019 -81.614 305.441 -26.913-105.420 307.097

                      1                      2                      3
                      A                      A                      A
 Frequencies --     11.8034                52.6055                58.9529
 Red. masses --      5.1932                 8.3767                 1.6736
 Frc consts  --      0.0004                 0.0137                 0.0034
 IR Inten    --      0.7141                 2.4563                 0.7535

                      4                      5                      6
                      A                      A                      A
 Frequencies --     84.4929                87.4222               119.9886
 Red. masses --      4.1387                 4.1321                 5.0190
 Frc consts  --      0.0174                 0.0186                 0.0426
 IR Inten    --      0.4164                 1.3863                 0.0039

                      7                      8                      9
                      A                      A                      A
 Frequencies --    145.0768               169.8568               213.9173
 Red. masses --      3.2320                 6.2414                 8.6678
 Frc consts  --      0.0401                 0.1061                 0.2337
 IR Inten    --      0.5926                 1.3478                 0.6801

                     10                     11                     12
                      A                      A                      A
 Frequencies --    235.7417               241.5314               253.5713
 Red. masses --      1.1166                 4.6572                 4.7084
 Frc consts  --      0.0366                 0.1601                 0.1784
 IR Inten    --      0.0465                 2.7319                 0.1472

                     13                     14                     15
                      A                      A                      A
 Frequencies --    271.9350               303.5356               335.7609
 Red. masses --      7.2957                 7.6246                 8.2970
 Frc consts  --      0.3179                 0.4139                 0.5511
 IR Inten    --      0.0960                 0.9846                 1.2588

                     16                     17                     18
                      A                      A                      A
 Frequencies --    394.8338               424.4768               453.3134
 Red. masses --      8.6720                 3.5827                 4.9105
 Frc consts  --      0.7965                 0.3803                 0.5945
 IR Inten    --     16.2715                 0.0018                 2.2864

                     19                     20                     21
                      A                      A                      A
 Frequencies --    459.4667               465.5368               510.7420
 Red. masses --      7.6487                 5.0028                 8.3916
 Frc consts  --      0.9514                 0.6388                 1.2897
 IR Inten    --     12.6590                 9.8537                 2.8118

                     22                     23                     24
                      A                      A                      A
 Frequencies --    554.4807               612.7014               626.7611
 Red. masses --      5.8525                 1.1304                 8.1293
 Frc consts  --      1.0601                 0.2500                 1.8815
 IR Inten    --     22.8611                35.1840                13.0663

                     25                     26                     27
                      A                      A                      A
 Frequencies --    678.5233               689.8568               728.6215
 Red. masses --      6.7870                 4.8492                 7.3659
 Frc consts  --      1.8410                 1.3597                 2.3040
 IR Inten    --      3.8758                11.3619                 1.1135

                     28                     29                     30
                      A                      A                      A
 Frequencies --    737.5589               765.7689               770.6385
 Red. masses --      2.4959                 1.0976                 5.5042
 Frc consts  --      0.8000                 0.3792                 1.9259
 IR Inten    --     51.0785                 1.6782                 1.6810

                     31                     32                     33
                      A                      A                      A
 Frequencies --    808.3951               823.5567               874.4615
 Red. masses --      2.0266                 8.3489                 5.3037
 Frc consts  --      0.7803                 3.3363                 2.3895
 IR Inten    --     16.8720                62.6273                 7.6090

                     34                     35                     36
                      A                      A                      A
 Frequencies --    904.3692               912.2123               922.6678
 Red. masses --      1.1551                 1.3325                 2.0265
 Frc consts  --      0.5566                 0.6533                 1.0165
 IR Inten    --      0.8409                 0.0594                 4.9030

                     37                     38                     39
                      A                      A                      A
 Frequencies --    997.4066              1008.2614              1015.7597
 Red. masses --      1.3736                 4.8998                 1.3235
 Frc consts  --      0.8051                 2.9348                 0.8046
 IR Inten    --      1.5979                20.6942                 0.2099

                     40                     41                     42
                      A                      A                      A
 Frequencies --   1042.6840              1056.3955              1091.1299
 Red. masses --      3.2738                 2.2798                 3.3987
 Frc consts  --      2.0971                 1.4990                 2.3840
 IR Inten    --     17.8071                 0.5262                39.6526

                     43                     44                     45
                      A                      A                      A
 Frequencies --   1110.2710              1141.3580              1163.8810
 Red. masses --      2.5704                 2.3449                 2.8558
 Frc consts  --      1.8668                 1.7997                 2.2792
 IR Inten    --      1.5442                63.0737                32.7961

                     46                     47                     48
                      A                      A                      A
 Frequencies --   1169.2422              1183.7895              1250.7465
 Red. masses --      1.5537                 1.1484                 2.1503
 Frc consts  --      1.2515                 0.9482                 1.9819
 IR Inten    --      0.0171                10.4061                37.7511

                     49                     50                     51
                      A                      A                      A
 Frequencies --   1263.3660              1275.2700              1307.1009
 Red. masses --      2.8348                 1.2109                 3.0901
 Frc consts  --      2.6658                 1.1603                 3.1106
 IR Inten    --    170.3776                 0.0860               248.9529

                     52                     53                     54
                      A                      A                      A
 Frequencies --   1319.1222              1329.9882              1341.6796
 Red. masses --      3.1418                 1.0739                 1.4328
 Frc consts  --      3.2211                 1.1192                 1.5196
 IR Inten    --     70.6399                 0.4655                18.5170

                     55                     56                     57
                      A                      A                      A
 Frequencies --   1364.8226              1407.8529              1418.4501
 Red. masses --      7.3353                 1.4838                 1.2273
 Frc consts  --      8.0504                 1.7328                 1.4549
 IR Inten    --     30.4349                20.4079                 5.4103

                     58                     59                     60
                      A                      A                      A
 Frequencies --   1482.6510              1496.2615              1501.3617
 Red. masses --      2.3898                 1.0498                 1.0384
 Frc consts  --      3.0952                 1.3848                 1.3791
 IR Inten    --      4.5120                10.9334                 8.9516

                     61                     62                     63
                      A                      A                      A
 Frequencies --   1505.5191              1509.1261              1522.1511
 Red. masses --      1.0829                 2.5807                 1.0892
 Frc consts  --      1.4461                 3.4630                 1.4869
 IR Inten    --      9.8117                 5.0035                32.5452

                     64                     65                     66
                      A                      A                      A
 Frequencies --   1559.8058              1610.0962              1627.7799
 Red. masses --      1.6003                 7.8556                 5.7466
 Frc consts  --      2.2941                11.9987                 8.9713
 IR Inten    --    304.2150               341.1004                81.9092

                     67                     68                     69
                      A                      A                      A
 Frequencies --   1637.0226              1699.8001              1722.3477
 Red. masses --      8.6609                12.5042                10.3142
 Frc consts  --     13.6749                21.2864                18.0271
 IR Inten    --    372.9660                72.2881               231.9641

                     70                     71                     72
                      A                      A                      A
 Frequencies --   3012.8044              3026.1270              3040.7068
 Red. masses --      1.0587                 1.0360                 1.1032
 Frc consts  --      5.6619                 5.5895                 6.0100
 IR Inten    --     15.4822                24.4537                 5.5620

                     73                     74                     75
                      A                      A                      A
 Frequencies --   3043.7954              3079.5347              3091.1455
 Red. masses --      1.0571                 1.1059                 1.1045
 Frc consts  --      5.7703                 6.1791                 6.2182
 IR Inten    --     29.9572                 0.0145                57.9211

                     76                     77                     78
                      A                      A                      A
 Frequencies --   3096.5807              3171.2130              3185.8167
 Red. masses --      1.1009                 1.0871                 1.0920
 Frc consts  --      6.2196                 6.4413                 6.5298
 IR Inten    --     31.0872                 3.8023                10.1363

                     79                     80                     81
                      A                      A                      A
 Frequencies --   3201.8812              3205.0120              3519.7782
 Red. masses --      1.0931                 1.0943                 1.0752
 Frc consts  --      6.6027                 6.6227                 7.8482
 IR Inten    --      1.6294                 8.1752                85.1082

 - Thermochemistry -
 -------------------
 Temperature   298.150 Kelvin.  Pressure   1.00000 Atm.
 Atom     1 has atomic number  6 and mass  12.00000

 Molecular mass:   249.05566 amu.
 Principal axes and moments of inertia in atomic units:
                           1         2         3
     Eigenvalues --  2291.868607008.244539266.57567
           X            0.87790  -0.06155   0.47487
           Y           -0.40755  -0.61667   0.67351
           Z           -0.25139   0.78481   0.56646
 This molecule is an asymmetric top.
 Rotational symmetry number  1.
 Warning -- assumption of classical behavior for rotation
           may cause significant error
 Rotational temperatures (Kelvin)      0.03779     0.01236     0.00935
 Rotational constants (GHZ):           0.78745     0.25752     0.19476
 Zero-point vibrational energy     589232.8 (Joules/Mol)
                                  140.83002 (Kcal/Mol)
 Warning -- explicit consideration of  23 degrees of freedom as
           vibrations may cause significant error
 Vibrational temperatures:     16.98    75.69    84.82   121.57   125.78
          (Kelvin)            172.64   208.73   244.39   307.78   339.18
                              347.51   364.83   391.25   436.72   483.08
                              568.08   610.73   652.22   661.07   669.80
                              734.84   797.77   881.54   901.77   976.24
                              992.55  1048.32  1061.18  1101.77  1108.78
                             1163.10  1184.91  1258.16  1301.19  1312.47
                             1327.51  1435.05  1450.66  1461.45  1500.19
                             1519.92  1569.89  1597.43  1642.16  1674.57
                             1682.28  1703.21  1799.55  1817.70  1834.83
                             1880.63  1897.92  1913.56  1930.38  1963.68
                             2025.59  2040.83  2133.20  2152.79  2160.12
                             2166.11  2171.30  2190.04  2244.21  2316.57
                             2342.01  2355.31  2445.63  2478.07  4334.75
                             4353.92  4374.90  4379.34  4430.76  4447.47
                             4455.29  4562.67  4583.68  4606.79  4611.30
                             5064.18

 Zero-point correction=                           0.224427 (Hartree/Particle)
 Thermal correction to Energy=                    0.240071
 Thermal correction to Enthalpy=                  0.241015
 Thermal correction to Gibbs Free Energy=         0.179301
 Sum of electronic and zero-point Energies=          -1168.007252
 Sum of electronic and thermal Energies=             -1167.991608
 Sum of electronic and thermal Enthalpies=           -1167.990664
 Sum of electronic and thermal Free Energies=        -1168.052378

                     E (Thermal)             CV                S
                      KCal/Mol        Cal/Mol-Kelvin    Cal/Mol-Kelvin
 Total                  150.647             58.153            129.887
 Electronic               0.000              0.000              0.000
 Translational            0.889              2.981             42.438
 Rotational               0.889              2.981             33.364
 Vibrational            148.869             52.191             54.085
 Vibration     1          0.593              1.987              7.682
 Vibration     2          0.596              1.977              4.717
 Vibration     3          0.596              1.974              4.492
 Vibration     4          0.601              1.960              3.784
 Vibration     5          0.601              1.958              3.717
 Vibration     6          0.609              1.933              3.101
 Vibration     7          0.616              1.908              2.736
 Vibration     8          0.625              1.880              2.437
 Vibration     9          0.644              1.820              2.010
 Vibration    10          0.655              1.786              1.835
 Vibration    11          0.658              1.777              1.792
 Vibration    12          0.665              1.757              1.706
 Vibration    13          0.675              1.725              1.584
 Vibration    14          0.695              1.667              1.397
 Vibration    15          0.717              1.604              1.232
 Vibration    16          0.762              1.481              0.982
 Vibration    17          0.786              1.417              0.877
 Vibration    18          0.812              1.354              0.786
 Vibration    19          0.817              1.340              0.768
 Vibration    20          0.823              1.327              0.750
 Vibration    21          0.866              1.226              0.632
 Vibration    22          0.910              1.130              0.535
 Vibration    23          0.972              1.005              0.428

 Optimization completed.
    -- Stationary point found.
 Normal termination of Gaussian 16 at Sun Jan  7 20:50:49 2024.
