 Q-Chem 5.4, Q-Chem, Inc., Pleasanton, CA (2021)
 Q-Chem 5.4.0 for Intel X86 EM64T Linux

User input:
--------------------------------------------------------------
$molecule
0 1
C                 -1.0743710000      1.5710550000      1.0141940000
C                 -2.3931890000      0.9035660000      0.9207090000
C                 -2.7191880000     -0.0453960000      0.0224490000
C                 -1.6521990000     -0.4540800000     -0.9603910000
C                 -0.3206070000      0.2018430000     -0.8860520000
C                 -0.0386070000      1.1411940000      0.0232270000
Br                 1.6586090000      1.9796260000      0.1212870000
C                 -4.0968450000     -0.7105610000     -0.0404350000
C                 -4.7429910000     -0.4406610000     -1.4229250000
C                 -5.0381760000     -0.1553040000      1.0443210000
C                 -3.9495720000     -2.2367020000      0.1849460000
O                 -0.8610750000      2.4202130000      1.8561760000
O                 -1.8335390000     -1.3026450000     -1.8177300000
H                 -3.0952980000      1.2586910000      1.6636740000
H                  0.3989410000     -0.1379210000     -1.6205880000
H                 -4.8529710000      0.6334400000     -1.5990070000
H                 -5.7413430000     -0.8865710000     -1.4476820000
H                 -4.1561560000     -0.8698630000     -2.2334360000
H                 -5.2116520000      0.9181510000      0.9281310000
H                 -4.6565010000     -0.3375430000      2.0527830000
H                 -6.0069160000     -0.6541910000      0.9653710000
H                 -3.3459190000     -2.7030670000     -0.5919800000
H                 -4.9402550000     -2.6999170000      0.1752400000
H                 -3.4934210000     -2.4450070000      1.1572280000
$end
$rem
MAX_SCF_CYCLES=200
BASIS  =  6-311++G(d,p)
GUI  =  2
JOB_TYPE  =  SP
METHOD  =  B3LYP
SOLVENT_METHOD = COSMO
$end
$solvent
dielectric 37.219
opticaldielectric 1.43
$end

--------------------------------------------------------------

             Standard Nuclear Orientation (Angstroms)
    I     Atom           X                Y                Z
 ----------------------------------------------------------------
    1      C       0.7731679433    -1.2095525410    -0.0000951993
    2      C      -0.7078309187    -1.2238417468    -0.0004369111
    3      C      -1.4930865578    -0.1297444856    -0.0003044344
    4      C      -0.8020986012     1.2096577020    -0.0001398383
    5      C       0.6836097073     1.2492715246     0.0001613244
    6      C       1.4262240873     0.1369692004     0.0000091852
    7      Br      3.3212044948     0.1836102552    -0.0000014510
    8      C      -3.0230702780    -0.1887987328     0.0000056444
    9      C      -3.5711269856     0.5111580418     1.2693848716
   10      C      -3.5285561564    -1.6433068405    -0.0003924402
   11      C      -3.5720030647     0.5121478170    -1.2684339535
   12      O       1.4089580868    -2.2445738133     0.0001056044
   13      O      -1.4103498428     2.2670163644    -0.0001827849
   14      H      -1.1164316813    -2.2258962381    -0.0005708997
   15      H       1.1152807379     2.2424442770     0.0003626168
   16      H      -3.1916370043     0.0291317987     2.1751616014
   17      H      -4.6619339599     0.4328173172     1.2819637675
   18      H      -3.3033444715     1.5661945736     1.2959968399
   19      H      -3.2014658671    -2.1926311416     0.8868247996
   20      H      -3.2016553110    -2.1921890722    -0.8879433386
   21      H      -4.6210643955    -1.6412481367    -0.0001970786
   22      H      -3.3038606753     1.5670976611    -1.2946589882
   23      H      -4.6628280564     0.4341645057    -1.2800352378
   24      H      -3.1934576367     0.0304554794    -2.1747853457
 ----------------------------------------------------------------

    9   -3112.3991539185      3.93e-06  Convergence criterion met
 Total energy in the final basis set =    -3112.3991539185
    5   -3112.4110371925      3.41e-06  Convergence criterion met
 Total energy in the final basis set =    -3112.4110371925

                    Orbital Energies (a.u.)
 --------------------------------------------------------------

 Alpha MOs
 -- Occupied --
******** -62.5042 -56.3248 -56.3210 -56.3206 -19.1517 -19.1487 -10.3002
-10.2965 -10.2661 -10.2234 -10.2194 -10.2084 -10.2049 -10.1607 -10.1594
-10.1594  -8.7130  -6.5447  -6.5318  -6.5307  -2.6556  -2.6521  -2.6513
 -2.6410  -2.6409  -1.0856  -1.0808  -0.8854  -0.8513  -0.8071  -0.7653
 -0.7112  -0.6916  -0.6896  -0.6414  -0.6143  -0.5581  -0.5373  -0.5052
 -0.4907  -0.4709  -0.4646  -0.4562  -0.4461  -0.4431  -0.4339  -0.4278
 -0.4076  -0.3896  -0.3835  -0.3695  -0.3613  -0.3570  -0.3437  -0.3401
 -0.3115  -0.3045  -0.2992  -0.2833  -0.2813

          Ground-State Mulliken Net Atomic Charges

     Atom                 Charge (a.u.)
  ----------------------------------------
      1 C                    -0.866964
      2 C                    -0.414666
      3 C                     1.222553
      4 C                    -0.597338
      5 C                    -0.480940
      6 C                     1.042382
      7 Br                   -0.103033
      8 C                     0.531503
      9 C                    -0.701519
     10 C                    -0.499860
     11 C                    -0.700894
     12 O                    -0.247254
     13 O                    -0.250980
     14 H                     0.261835
     15 H                     0.287579
     16 H                     0.158475
     17 H                     0.175296
     18 H                     0.178064
     19 H                     0.151397
     20 H                     0.151408
     21 H                     0.191189
     22 H                     0.178109
     23 H                     0.175133
     24 H                     0.158524
  ----------------------------------------
  Sum of atomic charges =     0.000000

                    Cartesian Multipole Moments
 -----------------------------------------------------------------
    Charge (ESU x 10^10)
                -0.0000
    Dipole Moment (Debye)
         X      -2.8524      Y       0.2691      Z      -0.0001
       Tot       2.8651
    Quadrupole Moments (Debye-Ang)
        XX     -87.3657     XY      13.0765     YY    -101.9177
        XZ      -0.0004     YZ       0.0026     ZZ     -89.6561

 Total job time:  41.99s(wall), 315.37s(cpu)
        *  Thank you very much for using Q-Chem.  Have a nice day.  *
