 Q-Chem 5.4, Q-Chem, Inc., Pleasanton, CA (2021)
 Q-Chem 5.4.0 for Intel X86 EM64T Linux

User input:
--------------------------------------------------------------
$molecule
0 1
C                 -2.0333110000      3.0491370000     -0.2439630000
C                 -2.9892750000      2.5002750000      0.6051810000
C                 -2.7043260000      1.3316720000      1.3138440000
C                 -0.7907470000      2.4260230000     -0.3823440000
C                 -0.5011370000      1.2501910000      0.3291180000
C                 -1.4655500000      0.7079160000      1.1766800000
C                  0.2325530000      2.9944550000     -1.2783880000
C                  1.5441920000      2.2931610000     -1.3856000000
C                  1.8439880000      1.1527270000     -0.7163060000
C                  0.8314550000      0.5693250000      0.1887000000
O                  0.0732750000      4.0115870000     -1.9440760000
O                  1.0648820000     -0.4548440000      0.8154700000
H                 -2.2310880000      3.9545390000     -0.8045970000
H                 -3.9544790000      2.9807350000      0.7157940000
H                 -3.4504120000      0.9056570000      1.9750490000
H                 -1.2283260000     -0.1990640000      1.7187150000
O                  2.4137580000      2.8893500000     -2.2175300000
H                  1.9519360000      3.6708660000     -2.5764830000
C                  3.1801760000      0.4746330000     -0.8344390000
C                  4.1698290000      0.9351370000      0.2589060000
C                  5.5204700000      0.1952910000      0.2438220000
C                  6.3472930000      0.5769200000      1.4799640000
C                  6.3207070000      0.4532770000     -1.0409440000
H                  3.5923670000      0.6797610000     -1.8238990000
H                  3.0296540000     -0.6040860000     -0.7415320000
H                  3.6987100000      0.7845150000      1.2355350000
H                  4.3473100000      2.0127340000      0.1544870000
H                  5.3081840000     -0.8809330000      0.3022210000
H                  7.2942080000      0.0296060000      1.5065160000
H                  5.8065050000      0.3566920000      2.4049880000
H                  6.5830220000      1.6469700000      1.4771800000
H                  7.2790940000     -0.0736140000     -1.0143980000
H                  6.5321860000      1.5219570000     -1.1588300000
H                  5.7887760000      0.1183700000     -1.9348310000
$end
$rem
MAX_SCF_CYCLES=200
BASIS  =  6-311++G(d,p)
GUI  =  2
JOB_TYPE  =  SP
METHOD  =  B3LYP
SOLVENT_METHOD = COSMO
$end
$solvent
dielectric 37.219
opticaldielectric 1.43
$end

--------------------------------------------------------------

             Standard Nuclear Orientation (Angstroms)
    I     Atom           X                Y                Z
 ----------------------------------------------------------------
    1      C       3.7962889268    -0.5861707385     0.4461318264
    2      C       4.6244190376     0.5318068748     0.4682400310
    3      C       4.1016277228     1.7931327944     0.1770728666
    4      C       2.4430524356    -0.4392553817     0.1322010554
    5      C       1.9141668933     0.8283210249    -0.1613345610
    6      C       2.7519665145     1.9418842671    -0.1371549342
    7      C       1.5526165197    -1.6137652662     0.1038622185
    8      C       0.1153028614    -1.4011511427    -0.2317405760
    9      C      -0.4165539558    -0.1894508792    -0.5272614819
   10      C       0.4602475324     1.0001584822    -0.5014632768
   11      O       1.9200658071    -2.7593832593     0.3396755666
   12      O       0.0180870271     2.1119730287    -0.7556550148
   13      H       4.1786643155    -1.5750022444     0.6678981907
   14      H       5.6748656683     0.4223514243     0.7117091038
   15      H       4.7484354254     2.6629863833     0.1949525005
   16      H       2.3303770776     2.9128153709    -0.3657266435
   17      O      -0.6176668638    -2.5264907839    -0.2239977727
   18      H      -0.0011070435    -3.2490707068     0.0010051543
   19      C      -1.8728506404    -0.0037148314    -0.8495460407
   20      C      -2.7093684027     0.3493262497     0.4004460840
   21      C      -4.1912092683     0.6496305001     0.1075369723
   22      C      -4.8834459992     1.1819585920     1.3703746982
   23      C      -4.9425340245    -0.5696375586    -0.4460479073
   24      H      -2.2511522934    -0.9191252847    -1.3077180278
   25      H      -1.9652227190     0.8079362475    -1.5759159116
   26      H      -2.2617524201     1.2268951171     0.8778946338
   27      H      -2.6437785792    -0.4736549213     1.1229542809
   28      H      -4.2236242817     1.4428969915    -0.6516806695
   29      H      -5.9278966362     1.4387587955     1.1701693965
   30      H      -4.3846779737     2.0781038752     1.7508684848
   31      H      -4.8739893997     0.4301767433     2.1674427878
   32      H      -5.9935976375    -0.3281054969    -0.6297650877
   33      H      -4.9123725574    -1.4011105741     0.2670021116
   34      H      -4.5194156283    -0.9240815268    -1.3891743846
 ----------------------------------------------------------------

    9    -807.1465256105      6.42e-06  Convergence criterion met
 Total energy in the final basis set =     -807.1465256105
    4    -807.1604399593      9.72e-06  Convergence criterion met
 Total energy in the final basis set =     -807.1604399593

                    Orbital Energies (a.u.)
 --------------------------------------------------------------

 Alpha MOs
 -- Occupied --
-19.1779 -19.1500 -19.1304 -10.2940 -10.2816 -10.2671 -10.2104 -10.2091
-10.2035 -10.2003 -10.1982 -10.1966 -10.1965 -10.1748 -10.1707 -10.1652
-10.1521 -10.1520  -1.1083  -1.0675  -1.0642  -0.8923  -0.8441  -0.8104
 -0.7834  -0.7792  -0.7363  -0.6941  -0.6804  -0.6602  -0.6463  -0.6114
 -0.6031  -0.5737  -0.5580  -0.5424  -0.5188  -0.4972  -0.4793  -0.4723
 -0.4688  -0.4649  -0.4519  -0.4505  -0.4421  -0.4298  -0.4247  -0.4174
 -0.4079  -0.4051  -0.3936  -0.3815  -0.3784  -0.3767  -0.3693  -0.3632
 -0.3503  -0.3294  -0.3233  -0.3198  -0.3038  -0.2898  -0.2801  -0.2799
 -0.2562

          Ground-State Mulliken Net Atomic Charges

     Atom                 Charge (a.u.)
  ----------------------------------------
      1 C                     0.243542
      2 C                    -0.420823
      3 C                    -0.418927
      4 C                     0.221455
      5 C                     0.001612
      6 C                     0.207856
      7 C                    -0.706133
      8 C                    -0.573551
      9 C                     1.968342
     10 C                    -0.881137
     11 O                    -0.328802
     12 O                    -0.292220
     13 H                     0.206268
     14 H                     0.229559
     15 H                     0.226658
     16 H                     0.202382
     17 O                    -0.225235
     18 H                     0.322759
     19 C                    -0.215526
     20 C                    -0.701143
     21 C                     0.406028
     22 C                    -0.650566
     23 C                    -0.662254
     24 H                     0.220887
     25 H                     0.219690
     26 H                     0.171038
     27 H                     0.175006
     28 H                     0.147320
     29 H                     0.158180
     30 H                     0.143195
     31 H                     0.148701
     32 H                     0.156349
     33 H                     0.152308
     34 H                     0.147181
  ----------------------------------------
  Sum of atomic charges =     0.000000

                    Cartesian Multipole Moments
 -----------------------------------------------------------------
    Charge (ESU x 10^10)
                -0.0000
    Dipole Moment (Debye)
         X       3.0074      Y      -0.0269      Z       0.7594
       Tot       3.1019
    Quadrupole Moments (Debye-Ang)
        XX     -87.5076     XY       8.3062     YY    -114.0668
        XZ       2.0541     YZ       2.4837     ZZ    -109.6144

 Total job time:  125.08s(wall), 558.02s(cpu)
        *  Thank you very much for using Q-Chem.  Have a nice day.  *
