 Gaussian 16, Revision A.03,
 Gaussian 16:  ES64L-G16RevA.03 25-Dec-2016

 ----------------------------------------------------------------------
 #P UB3LYP/6-311++G(d,p) nosym opt freq SCRF=(PCM,Solvent=n,n-DiMethylF
 ormamide)
 ----------------------------------------------------------------------

 -------
 Radical
 -------
 Symbolic Z-matrix:
 Charge = -1 Multiplicity = 2

 SCF Done:  E(UB3LYP) =  -859.022739503     A.U. after   19 cycles
 SCF Done:  E(UB3LYP) =  -859.023171162     A.U. after   15 cycles
 SCF Done:  E(UB3LYP) =  -859.023297416     A.U. after   15 cycles
 SCF Done:  E(UB3LYP) =  -859.023341702     A.U. after   14 cycles
 SCF Done:  E(UB3LYP) =  -859.023362264     A.U. after   13 cycles
 SCF Done:  E(UB3LYP) =  -859.023373355     A.U. after   11 cycles
 SCF Done:  E(UB3LYP) =  -859.023377921     A.U. after   12 cycles
 SCF Done:  E(UB3LYP) =  -859.023379125     A.U. after   12 cycles
 SCF Done:  E(UB3LYP) =  -859.023379630     A.U. after   10 cycles
 SCF Done:  E(UB3LYP) =  -859.023379759     A.U. after    9 cycles
 SCF Done:  E(UB3LYP) =  -859.023379797     A.U. after    9 cycles
 Optimization completed.
    -- Stationary point found.
 Normal termination of Gaussian 16 at Sat Feb 10 17:40:34 2024.

 ----------------------------------------------------------------------
 #P Geom=AllCheck Guess=TCheck SCRF=Check GenChk UB3LYP/6-311++G(d,p) F
 req
 ----------------------------------------------------------------------

 Structure from the checkpoint file:  "155-rad.chk"
 -------
 Radical
 -------
 Charge = -1 Multiplicity = 2

                          Input orientation:
 ---------------------------------------------------------------------
 Center     Atomic      Atomic             Coordinates (Angstroms)
 Number     Number       Type             X           Y           Z
 ---------------------------------------------------------------------
      1          6           0       -2.254103    3.231834    4.105806
      2          6           0       -3.478791    2.669336    4.378826
      3          6           0       -3.908837    1.531392    3.673585
      4          6           0       -3.105581    0.964640    2.691565
      5          6           0       -1.820601    1.527673    2.371878
      6          6           0       -1.410690    2.682613    3.113348
      7          6           0       -0.124538    3.345360    2.892029
      8          6           0       -0.938602    0.974255    1.344883
      9          6           0        0.751815    2.804259    1.872031
     10          6           0        0.360959    1.640220    1.141300
     11          6           0        2.034480    3.396144    1.589317
     12          6           0        2.874558    2.800052    0.642920
     13          6           0        2.474798    1.652509   -0.048785
     14          6           0        1.235454    1.083564    0.186031
     15          8           0        0.189578    4.359777    3.600206
     16          8           0       -1.231616   -0.028210    0.638230
     17          7           0        2.425146    4.564959    2.208245
     18          8           0       -3.502341   -0.140740    2.003049
     19          6           0       -4.768643   -0.724360    2.301521
     20          1           0       -1.906273    4.105845    4.639436
     21          1           0       -4.123663    3.095418    5.139953
     22          1           0       -4.872866    1.103066    3.906757
     23          1           0        3.842325    3.249822    0.443934
     24          1           0        3.146303    1.211435   -0.778483
     25          1           0        0.914497    0.200373   -0.349255
     26          1           0        1.863167    4.824143    3.014945
     27          1           0        3.411698    4.774449    2.219357
     28          1           0       -4.859366   -1.580189    1.634561
     29          1           0       -5.588795   -0.025895    2.108237
     30          1           0       -4.818777   -1.066914    3.339813
 ---------------------------------------------------------------------

 SCF Done:  E(UB3LYP) =  -859.023379797     A.U. after    1 cycles

 Alpha  occ. eigenvalues --  -19.15038 -19.07329 -19.06595 -14.30495 -10.23752
 Alpha  occ. eigenvalues --  -10.22326 -10.22235 -10.21766 -10.21538 -10.17546
 Alpha  occ. eigenvalues --  -10.17245 -10.17104 -10.16993 -10.16890 -10.16829
 Alpha  occ. eigenvalues --  -10.16583 -10.15975 -10.15970 -10.15373  -1.06660
 Alpha  occ. eigenvalues --   -0.99780  -0.99173  -0.91263  -0.85367  -0.83365
 Alpha  occ. eigenvalues --   -0.78130  -0.75658  -0.73841  -0.72593  -0.69739
 Alpha  occ. eigenvalues --   -0.66292  -0.63004  -0.62234  -0.57920  -0.55681
 Alpha  occ. eigenvalues --   -0.54719  -0.52777  -0.50606  -0.48457  -0.48264
 Alpha  occ. eigenvalues --   -0.46804  -0.46457  -0.46290  -0.44466  -0.43936
 Alpha  occ. eigenvalues --   -0.42370  -0.42008  -0.40908  -0.40261  -0.39278
 Alpha  occ. eigenvalues --   -0.38367  -0.37625  -0.37228  -0.36030  -0.35297
 Alpha  occ. eigenvalues --   -0.34944  -0.34172  -0.33176  -0.31925  -0.30620
 Alpha  occ. eigenvalues --   -0.26503  -0.24731  -0.24212  -0.22898  -0.22670
 Alpha  occ. eigenvalues --   -0.20844  -0.13552
 Alpha virt. eigenvalues --   -0.04054  -0.02013  -0.00342   0.00234   0.00934
 Alpha virt. eigenvalues --    0.01096   0.01728   0.01930   0.03492   0.03511
 Alpha virt. eigenvalues --    0.03860   0.03976   0.04896   0.05185   0.05742

  Beta  occ. eigenvalues --  -19.15035 -19.06824 -19.06054 -14.30470 -10.23753
  Beta  occ. eigenvalues --  -10.22124 -10.22083 -10.21765 -10.21531 -10.17489
  Beta  occ. eigenvalues --  -10.17142 -10.17045 -10.16998 -10.16797 -10.16782
  Beta  occ. eigenvalues --  -10.16512 -10.15963 -10.15893 -10.15348  -1.06646
  Beta  occ. eigenvalues --   -0.98900  -0.98222  -0.91171  -0.85125  -0.83210
  Beta  occ. eigenvalues --   -0.77748  -0.75513  -0.73649  -0.72367  -0.69636
  Beta  occ. eigenvalues --   -0.65607  -0.62821  -0.62000  -0.57844  -0.55519
  Beta  occ. eigenvalues --   -0.54512  -0.52647  -0.50520  -0.48264  -0.48145
  Beta  occ. eigenvalues --   -0.46751  -0.46293  -0.46172  -0.44359  -0.43821
  Beta  occ. eigenvalues --   -0.42265  -0.40982  -0.40631  -0.39948  -0.39075
  Beta  occ. eigenvalues --   -0.37897  -0.37476  -0.35964  -0.35378  -0.34846
  Beta  occ. eigenvalues --   -0.34435  -0.33979  -0.33097  -0.31322  -0.29963
  Beta  occ. eigenvalues --   -0.24501  -0.24205  -0.23757  -0.22216  -0.22182
  Beta  occ. eigenvalues --   -0.20125
  Beta virt. eigenvalues --   -0.07969  -0.02971  -0.00960  -0.00331   0.00238
  Beta virt. eigenvalues --    0.00940   0.01347   0.01737   0.01945   0.03514
  Beta virt. eigenvalues --    0.03532   0.03867   0.03985   0.04986   0.05254

 Mulliken charges and spin densities:
               1          2
     1  C   -0.222571   0.027472
     2  C   -0.451993   0.049460
     3  C   -0.177138   0.058844
     4  C   -0.009849   0.016520
     5  C    0.154227   0.029016
     6  C    0.254881   0.031994
     7  C   -0.446620   0.108315
     8  C   -0.541096   0.068054
     9  C    0.137082  -0.019094
    10  C    0.592384   0.060824
    11  C    0.187288   0.025846
    12  C   -0.180401   0.072926
    13  C   -0.465748   0.041293
    14  C   -0.137795   0.050510
    15  O   -0.478234   0.185076
    16  O   -0.472592   0.205095
    17  N   -0.421230   0.010680
    18  O   -0.151218   0.000021
    19  C   -0.278944  -0.000381
    20  H    0.156349  -0.001416
    21  H    0.191024  -0.003662
    22  H    0.180461  -0.003890
    23  H    0.156659  -0.005193
    24  H    0.181079  -0.003013
    25  H    0.155505  -0.002965
    26  H    0.307654  -0.002255
    27  H    0.269870  -0.000715
    28  H    0.195300  -0.000178
    29  H    0.158438   0.000427
    30  H    0.157229   0.000389
 Sum of Mulliken charges =  -1.00000   1.00000

 Dipole moment (field-independent basis, Debye):
    X=              1.7853    Y=            -10.0340    Z=             -8.1588  Tot=             13.0551
 Quadrupole moment (field-independent basis, Debye-Ang):
   XX=            -95.8313   YY=           -154.3089   ZZ=           -138.7823
   XY=              8.3970   XZ=             -3.8109   YZ=            -29.3129

  Exact polarizability: 447.271  79.501 319.778-112.065  91.220 296.653
 Approx polarizability: 451.863  78.415 373.814-102.561 119.953 335.725

                      1                      2                      3
                      A                      A                      A
 Frequencies --     39.5532                48.8192                90.7139
 Red. masses --      5.5711                 4.9610                 5.9034
 Frc consts  --      0.0051                 0.0070                 0.0286
 IR Inten    --     18.3236                 2.3461                 0.2078

                      4                      5                      6
                      A                      A                      A
 Frequencies --    112.1527               160.3045               167.6416
 Red. masses --      4.4043                 5.5575                 4.4891
 Frc consts  --      0.0326                 0.0841                 0.0743
 IR Inten    --      2.3836                 2.8541                16.6005

                      7                      8                      9
                      A                      A                      A
 Frequencies --    190.2039               228.7304               263.3805
 Red. masses --      3.3567                 2.9403                 4.0815
 Frc consts  --      0.0715                 0.0906                 0.1668
 IR Inten    --      0.4180                 6.1531                11.5483

                     10                     11                     12
                      A                      A                      A
 Frequencies --    270.1473               298.2576               319.1115
 Red. masses --      1.7956                 2.6153                 3.8379
 Frc consts  --      0.0772                 0.1371                 0.2303
 IR Inten    --      4.6055                11.0191                 0.7861

                     13                     14                     15
                      A                      A                      A
 Frequencies --    356.6166               376.8468               379.3433
 Red. masses --      6.4571                 6.2981                 1.7603
 Frc consts  --      0.4838                 0.5270                 0.1492
 IR Inten    --     19.9457                17.5873               269.9823

                     16                     17                     18
                      A                      A                      A
 Frequencies --    408.7462               419.7120               429.2770
 Red. masses --      3.4913                 6.5489                 5.0506
 Frc consts  --      0.3437                 0.6797                 0.5484
 IR Inten    --     57.4302                 3.2195               108.9256

                     19                     20                     21
                      A                      A                      A
 Frequencies --    474.0347               492.1909               494.9125
 Red. masses --      6.1213                 6.4698                 3.9660
 Frc consts  --      0.8104                 0.9234                 0.5723
 IR Inten    --      5.2855                 8.0840                 6.3907

                     22                     23                     24
                      A                      A                      A
 Frequencies --    545.7084               559.1181               578.0151
 Red. masses --      5.0244                 5.7975                 4.1170
 Frc consts  --      0.8816                 1.0678                 0.8104
 IR Inten    --      8.2535                 2.9485                 8.4579

                     25                     26                     27
                      A                      A                      A
 Frequencies --    594.5494               630.3459               646.4722
 Red. masses --      5.7474                 4.2160                 1.3296
 Frc consts  --      1.1970                 0.9870                 0.3274
 IR Inten    --     46.6422                22.3748               120.6258

                     28                     29                     30
                      A                      A                      A
 Frequencies --    671.5756               703.4586               711.2441
 Red. masses --      3.6925                 6.6516                 2.2946
 Frc consts  --      0.9812                 1.9393                 0.6839
 IR Inten    --     19.4620                 0.2330                88.9026

                     31                     32                     33
                      A                      A                      A
 Frequencies --    758.8631               765.1235               773.9407
 Red. masses --      1.4416                 5.7635                 6.2206
 Frc consts  --      0.4891                 1.9879                 2.1953
 IR Inten    --      2.0070                 8.2188                51.0085

                     34                     35                     36
                      A                      A                      A
 Frequencies --    794.4908               822.5326               844.3932
 Red. masses --      1.9958                 5.2191                 6.8338
 Frc consts  --      0.7423                 2.0804                 2.8708
 IR Inten    --    128.1950                 0.4184                68.7371

                     37                     38                     39
                      A                      A                      A
 Frequencies --    874.4095               877.8251               897.5572
 Red. masses --      1.4435                 1.4881                 6.5537
 Frc consts  --      0.6503                 0.6756                 3.1107
 IR Inten    --      0.0567                 0.2351                16.2411

                     40                     41                     42
                      A                      A                      A
 Frequencies --    948.0326               975.2153               979.9692
 Red. masses --      5.7184                 1.2870                 1.2906
 Frc consts  --      3.0281                 0.7212                 0.7302
 IR Inten    --     20.5053                 0.8855                 1.1341

                     43                     44                     45
                      A                      A                      A
 Frequencies --   1019.1464              1070.2406              1084.3119
 Red. masses --      4.2153                 2.2298                 4.1029
 Frc consts  --      2.5796                 1.5048                 2.8422
 IR Inten    --     62.1237                86.4035               249.4311

                     46                     47                     48
                      A                      A                      A
 Frequencies --   1104.5039              1140.6013              1160.2489
 Red. masses --      2.1603                 1.4955                 1.6639
 Frc consts  --      1.5528                 1.1463                 1.3197
 IR Inten    --    102.9103               139.3742               116.6614

                     49                     50                     51
                      A                      A                      A
 Frequencies --   1162.7042              1179.1181              1183.7858
 Red. masses --      1.2766                 1.1769                 2.3683
 Frc consts  --      1.0169                 0.9641                 1.9554
 IR Inten    --      1.3820                12.1148                18.2728

                     52                     53                     54
                      A                      A                      A
 Frequencies --   1200.9421              1222.8024              1235.7415
 Red. masses --      1.5546                 2.6943                 2.5598
 Frc consts  --      1.3210                 2.3736                 2.3031
 IR Inten    --     25.9456               219.4350                28.1850

                     55                     56                     57
                      A                      A                      A
 Frequencies --   1264.0309              1310.5438              1334.1146
 Red. masses --      3.9288                 2.7120                 7.1816
 Frc consts  --      3.6985                 2.7443                 7.5311
 IR Inten    --    234.3550                 3.3551                30.1989

                     58                     59                     60
                      A                      A                      A
 Frequencies --   1357.5445              1377.5109              1399.4762
 Red. masses --      6.0682                 4.9250                 3.5137
 Frc consts  --      6.5889                 5.5062                 4.0546
 IR Inten    --     83.9208                23.8196              1076.0826

                     61                     62                     63
                      A                      A                      A
 Frequencies --   1428.1019              1453.3640              1465.9903
 Red. masses --      2.8017                 3.4381                 1.6368
 Frc consts  --      3.3666                 4.2788                 2.0726
 IR Inten    --     95.1639                31.5775               120.0746

                     64                     65                     66
                      A                      A                      A
 Frequencies --   1480.6539              1484.1753              1495.6872
 Red. masses --      1.9572                 1.0458                 1.2534
 Frc consts  --      2.5281                 1.3572                 1.6520
 IR Inten    --     66.0734                12.2379               343.5436

                     67                     68                     69
                      A                      A                      A
 Frequencies --   1505.3701              1515.3702              1560.3795
 Red. masses --      2.4123                 4.6787                 3.4310
 Frc consts  --      3.2208                 6.3302                 4.9219
 IR Inten    --    274.5151              1214.0228               388.9821

                     70                     71                     72
                      A                      A                      A
 Frequencies --   1587.0816              1601.6543              1611.4366
 Red. masses --      1.4493                 5.7334                 5.8744
 Frc consts  --      2.1509                 8.6656                 8.9875
 IR Inten    --    367.0143                37.2377                 4.9970

                     73                     74                     75
                      A                      A                      A
 Frequencies --   1617.2176              3009.8079              3071.3995
 Red. masses --      6.3476                 1.0334                 1.1064
 Frc consts  --      9.7813                 5.5157                 6.1494
 IR Inten    --     69.8184               110.3163                56.1476

                     76                     77                     78
                      A                      A                      A
 Frequencies --   3130.6971              3149.4430              3164.6177
 Red. masses --      1.1004                 1.0863                 1.0887
 Frc consts  --      6.3545                 6.3485                 6.4238
 IR Inten    --     33.0932                34.0246                30.6534

                     79                     80                     81
                      A                      A                      A
 Frequencies --   3166.2041              3205.0709              3206.4419
 Red. masses --      1.0932                 1.0912                 1.0912
 Frc consts  --      6.4567                 6.6042                 6.6097
 IR Inten    --     48.6942                22.8949                14.4691

                     82                     83                     84
                      A                      A                      A
 Frequencies --   3216.5400              3435.8641              3646.2842
 Red. masses --      1.0909                 1.0580                 1.0919
 Frc consts  --      6.6497                 7.3588                 8.5531
 IR Inten    --     16.3731               189.8104                94.4867

 - Thermochemistry -
 -------------------
 Temperature   298.150 Kelvin.  Pressure   1.00000 Atm.
 Atom     1 has atomic number  6 and mass  12.00000

 Molecular mass:   253.07389 amu.
 Principal axes and moments of inertia in atomic units:
                           1         2         3
     Eigenvalues --  2477.828896223.246728687.06671
           X            0.89904  -0.11401   0.42277
           Y            0.36661   0.72395  -0.58437
           Z           -0.23945   0.68036   0.69265
 This molecule is an asymmetric top.
 Rotational symmetry number  1.
 Warning -- assumption of classical behavior for rotation
           may cause significant error
 Rotational temperatures (Kelvin)      0.03496     0.01392     0.00997
 Rotational constants (GHZ):           0.72836     0.29000     0.20775
 Zero-point vibrational energy     592090.2 (Joules/Mol)
                                  141.51296 (Kcal/Mol)
 Warning -- explicit consideration of  25 degrees of freedom as
           vibrations may cause significant error
 Vibrational temperatures:     56.91    70.24   130.52   161.36   230.64
          (Kelvin)            241.20   273.66   329.09   378.95   388.68
                              429.13   459.13   513.09   542.20   545.79
                              588.09   603.87   617.63   682.03   708.15
                              712.07   785.15   804.45   831.63   855.42
                              906.93   930.13   966.25  1012.12  1023.32
                             1091.83  1100.84  1113.53  1143.10  1183.44
                             1214.89  1258.08  1262.99  1291.38  1364.01
                             1403.12  1409.96  1466.32  1539.84  1560.08
                             1589.13  1641.07  1669.34  1672.87  1696.49
                             1703.20  1727.89  1759.34  1777.96  1818.66
                             1885.58  1919.49  1953.20  1981.93  2013.53
                             2054.72  2091.07  2109.23  2130.33  2135.40
                             2151.96  2165.89  2180.28  2245.04  2283.46
                             2304.42  2318.50  2326.82  4330.44  4419.06
                             4504.37  4531.35  4553.18  4555.46  4611.38
                             4613.35  4627.88  4943.44  5246.19

 Zero-point correction=                           0.225515 (Hartree/Particle)
 Thermal correction to Energy=                    0.240669
 Thermal correction to Enthalpy=                  0.241614
 Thermal correction to Gibbs Free Energy=         0.182721
 Sum of electronic and zero-point Energies=           -858.797865
 Sum of electronic and thermal Energies=              -858.782710
 Sum of electronic and thermal Enthalpies=            -858.781766
 Sum of electronic and thermal Free Energies=         -858.840659

                     E (Thermal)             CV                S
                      KCal/Mol        Cal/Mol-Kelvin    Cal/Mol-Kelvin
 Total                  151.022             60.997            123.951
 Electronic               0.000              0.000              1.377
 Translational            0.889              2.981             42.486
 Rotational               0.889              2.981             33.260
 Vibrational            149.245             55.036             46.828
 Vibration     1          0.594              1.981              5.281
 Vibration     2          0.595              1.978              4.865
 Vibration     3          0.602              1.956              3.645
 Vibration     4          0.607              1.939              3.231
 Vibration     5          0.622              1.891              2.546
 Vibration     6          0.624              1.882              2.462
 Vibration     7          0.634              1.853              2.226
 Vibration     8          0.651              1.797              1.889
 Vibration     9          0.670              1.740              1.639
 Vibration    10          0.674              1.728              1.595
 Vibration    11          0.691              1.677              1.427
 Vibration    12          0.705              1.637              1.315
 Vibration    13          0.732              1.562              1.137
 Vibration    14          0.747              1.519              1.052
 Vibration    15          0.749              1.514              1.042
 Vibration    16          0.773              1.451              0.931
 Vibration    17          0.782              1.427              0.893
 Vibration    18          0.791              1.406              0.861
 Vibration    19          0.831              1.308              0.726
 Vibration    20          0.848              1.267              0.678
 Vibration    21          0.851              1.261              0.671
 Vibration    22          0.901              1.149              0.553
 Vibration    23          0.915              1.120              0.526
 Vibration    24          0.935              1.079              0.489
 Vibration    25          0.952              1.043              0.459

 Optimization completed.
    -- Stationary point found.
 Normal termination of Gaussian 16 at Sat Feb 10 19:19:22 2024.
