 Q-Chem 5.4, Q-Chem, Inc., Pleasanton, CA (2021)
 Q-Chem 5.4.0 for Intel X86 EM64T Linux

User input:
--------------------------------------------------------------
$molecule
-1 2
C                 -1.7007020000      3.0824660000      0.2787380000
C                 -2.8744810000      2.3644840000      0.1415910000
C                 -2.8297390000      0.9818470000     -0.1293530000
C                 -0.4418760000      2.4561210000      0.1481810000
C                 -0.4008810000      1.0618400000     -0.1210560000
C                 -1.6057850000      0.3480590000     -0.2558010000
C                  0.7750370000      3.2591920000      0.3211680000
C                  2.0410820000      2.5504580000      0.1470740000
C                  2.0570850000      1.1871490000     -0.1213950000
C                  0.8891700000      0.3670140000     -0.2598120000
O                  0.7059030000      4.4851980000      0.6213590000
O                  0.9558770000     -0.8680280000     -0.5042170000
N                  3.2416270000      3.2746190000      0.3389830000
C                  3.4045260000      4.5140630000     -0.4155130000
C                  4.4744430000      2.5227770000      0.4355910000
H                 -1.7095080000      4.1452220000      0.4916050000
H                 -3.8328560000      2.8661390000      0.2433860000
H                 -3.7519780000      0.4180310000     -0.2365210000
H                 -1.5341530000     -0.7141510000     -0.4620190000
H                  2.9944270000      0.6608170000     -0.2545290000
H                  2.4786450000      5.0819880000     -0.3733490000
H                  3.6770450000      4.3178680000     -1.4696990000
H                  4.2062090000      5.1084920000      0.0366170000
H                  4.3699790000      1.7110980000      1.1582180000
H                  5.2659630000      3.1949550000      0.7818560000
H                  4.8038440000      2.0840710000     -0.5254700000
$end
$rem
MAX_SCF_CYCLES=200
BASIS  =  6-311++G(d,p)
GUI  =  2
JOB_TYPE  =  SP
METHOD  =  B3LYP
SOLVENT_METHOD = COSMO
$end
$solvent
dielectric 37.219
opticaldielectric 1.43
$end

--------------------------------------------------------------

             Standard Nuclear Orientation (Angstroms)
    I     Atom           X                Y                Z
 ----------------------------------------------------------------
    1      C       1.9467075732    -1.7162981933     0.0807510659
    2      C       3.2985544549    -1.4315731106     0.0215376514
    3      C       3.7361658430    -0.0942296023    -0.0627605423
    4      C       0.9814422046    -0.6859748910     0.0544309450
    5      C       1.4264914712     0.6607022358    -0.0266894944
    6      C       2.8060775963     0.9305629582    -0.0845729466
    7      C      -0.4410387855    -1.0398055640     0.1385527032
    8      C      -1.3836662296     0.0753282685     0.0801353863
    9      C      -0.9257165986     1.3845353048    -0.0047303956
   10      C       0.4554839505     1.7665025115    -0.0515516221
   11      O      -0.8032312117    -2.2435205959     0.2722375076
   12      O       0.8213279037     2.9705393792    -0.1287901673
   13      N      -2.7644467751    -0.2131205911     0.1932232106
   14      C      -3.3169220520    -1.2127879709    -0.7164239327
   15      C      -3.6694509522     0.8955522202     0.4082739611
   16      H       1.5861596006    -2.7360913099     0.1505176731
   17      H       4.0249055013    -2.2393794316     0.0406611133
   18      H       4.7981915887     0.1291205636    -0.1087415600
   19      H       3.1072045240     1.9704639187    -0.1468277206
   20      H      -1.6229323088     2.2121939152    -0.0519695671
   21      H      -2.6418670192    -2.0634021924    -0.7646772603
   22      H      -3.4737956983    -0.7998612282    -1.7307953490
   23      H      -4.2866795319    -1.5507297302    -0.3345485564
   24      H      -3.3167322029     1.5212326086     1.2304897739
   25      H      -4.6529206471     0.4955494891     0.6747543518
   26      H      -3.7999507713     1.5415122674    -0.4807207709
 ----------------------------------------------------------------

   11    -669.3332611050      5.53e-06  Convergence criterion met
 Total energy in the final basis set =     -669.3332611050
    5    -669.4204580113      6.04e-06  Convergence criterion met
 Total energy in the final basis set =     -669.4204580113

                    Orbital Energies (a.u.)
 --------------------------------------------------------------

 Alpha MOs
 -- Occupied --
-19.0769 -19.0743 -14.3226 -10.2226 -10.2217 -10.2042 -10.1844 -10.1777
-10.1721 -10.1704 -10.1701 -10.1696 -10.1679 -10.1673 -10.1518  -1.0039
 -0.9985  -0.9333  -0.8557  -0.7961  -0.7485  -0.7381  -0.7082  -0.6815
 -0.6427  -0.6128  -0.5841  -0.5561  -0.5107  -0.5051  -0.4826  -0.4619
 -0.4574  -0.4437  -0.4277  -0.4205  -0.4155  -0.4134  -0.4043  -0.3939
 -0.3861  -0.3805  -0.3720  -0.3631  -0.3507  -0.3498  -0.3359  -0.2904
 -0.2594  -0.2560  -0.2459  -0.2389  -0.2133  -0.1486

 Beta MOs
 -- Occupied --
-19.0707 -19.0692 -14.3217 -10.2202 -10.2201 -10.2028 -10.1844 -10.1777
-10.1717 -10.1702 -10.1693 -10.1690 -10.1680 -10.1670 -10.1512  -0.9933
 -0.9892  -0.9308  -0.8537  -0.7916  -0.7464  -0.7363  -0.7073  -0.6756
 -0.6385  -0.6110  -0.5815  -0.5535  -0.5086  -0.5031  -0.4801  -0.4601
 -0.4546  -0.4429  -0.4254  -0.4189  -0.4108  -0.4017  -0.4014  -0.3915
 -0.3826  -0.3761  -0.3650  -0.3507  -0.3485  -0.3420  -0.3346  -0.2749
 -0.2493  -0.2463  -0.2407  -0.2336  -0.2041

          Ground-State Mulliken Net Atomic Charges

     Atom                 Charge (a.u.)    Spin (a.u.)
  --------------------------------------------------------
      1 C                     0.182938       0.071078
      2 C                    -0.480773       0.011805
      3 C                    -0.416978       0.052877
      4 C                    -0.015091      -0.009101
      5 C                     0.665732       0.059334
      6 C                     0.102096       0.006967
      7 C                    -0.757000       0.175975
      8 C                    -0.581062       0.084344
      9 C                     0.430976       0.016521
     10 C                    -0.229860       0.091018
     11 O                    -0.511325       0.233836
     12 O                    -0.545564       0.178677
     13 N                     0.053836       0.029537
     14 C                    -0.415108       0.007203
     15 C                    -0.398491      -0.002784
     16 H                     0.181194      -0.003180
     17 H                     0.198021      -0.001292
     18 H                     0.203237      -0.003808
     19 H                     0.169267      -0.000783
     20 H                     0.198424      -0.005964
     21 H                     0.179283      -0.002430
     22 H                     0.145199       0.003958
     23 H                     0.158774       0.001172
     24 H                     0.162673       0.000234
     25 H                     0.170613      -0.000112
     26 H                     0.148989       0.004917
  --------------------------------------------------------
  Sum of atomic charges =    -1.000000

                    Cartesian Multipole Moments
 -----------------------------------------------------------------
    Charge (ESU x 10^10)
                -4.8032
    Dipole Moment (Debye)
         X      -2.0302      Y      -2.3213      Z      -0.8905
       Tot       3.2098
    Quadrupole Moments (Debye-Ang)
        XX     -84.0651     XY     -12.9432     YY    -127.2729
        XZ       1.9567     YZ       4.1434     ZZ     -95.6658

 Total job time:  64.66s(wall), 480.21s(cpu)
        *  Thank you very much for using Q-Chem.  Have a nice day.  *
