 Q-Chem 5.4, Q-Chem, Inc., Pleasanton, CA (2021)
 Q-Chem 5.4.0 for Intel X86 EM64T Linux

User input:
--------------------------------------------------------------
$molecule
0 1
C                  3.4559990000      2.7435680000     -0.0320500000
C                  2.7431020000      1.4257560000      0.0135080000
C                  1.3938630000      1.3128640000     -0.0238880000
C                  0.6995250000      0.0406640000      0.0199980000
C                  1.5333760000     -1.1423590000      0.1078210000
C                  2.8864930000     -1.0974390000      0.1487160000
C                  3.7440110000     -2.3235680000      0.2394050000
C                  3.5817950000      0.2089280000      0.1032600000
O                  4.8084050000      0.2804920000      0.1378560000
C                 -0.6994590000     -0.0408710000     -0.0201890000
C                 -1.3939010000     -1.3130240000      0.0236660000
C                 -2.7431640000     -1.4257800000     -0.0133590000
C                 -3.4562510000     -2.7434450000      0.0321790000
C                 -3.5817740000     -0.2088510000     -0.1027890000
O                 -4.8083970000     -0.2802790000     -0.1371360000
C                 -2.8863310000      1.0974370000     -0.1486530000
C                 -1.5332040000      1.1422240000     -0.1079340000
C                 -3.7437580000      2.3235720000     -0.2394770000
H                  4.0799600000      2.8753200000      0.8565570000
H                  2.7506490000      3.5738320000     -0.0973060000
H                  4.1352890000      2.7851090000     -0.8882870000
H                  0.8152220000      2.2240400000     -0.0898870000
H                  1.0617980000     -2.1148860000      0.1430720000
H                  3.1373840000     -3.2303660000      0.2679870000
H                  4.4282410000     -2.3793980000     -0.6120850000
H                  4.3742000000     -2.2881850000      1.1326580000
H                 -0.8153050000     -2.2242570000      0.0892980000
H                 -4.1360390000     -2.7845860000      0.8880490000
H                 -4.0799150000     -2.8753300000     -0.8566260000
H                 -2.7511280000     -3.5738400000      0.0980370000
H                 -1.0615330000      2.1147150000     -0.1432420000
H                 -3.1371590000      3.2303990000     -0.2675190000
H                 -4.3733910000      2.2884210000     -1.1331670000
H                 -4.4286020000      2.3791240000      0.6115260000
$end
$rem
MAX_SCF_CYCLES=200
BASIS  =  6-311++G(d,p)
GUI  =  2
JOB_TYPE  =  SP
METHOD  =  B3LYP
SOLVENT_METHOD = PCM
$end
$pcm
theory = CPCM
$end
$solvent
dielectric 37.219
opticaldielectric 1.43
$end

--------------------------------------------------------------

             Standard Nuclear Orientation (Angstroms)
    I     Atom           X                Y                Z
 ----------------------------------------------------------------
    1      C       3.4559990000     2.7435680000    -0.0320500000
    2      C       2.7431020000     1.4257560000     0.0135080000
    3      C       1.3938630000     1.3128640000    -0.0238880000
    4      C       0.6995250000     0.0406640000     0.0199980000
    5      C       1.5333760000    -1.1423590000     0.1078210000
    6      C       2.8864930000    -1.0974390000     0.1487160000
    7      C       3.7440110000    -2.3235680000     0.2394050000
    8      C       3.5817950000     0.2089280000     0.1032600000
    9      O       4.8084050000     0.2804920000     0.1378560000
   10      C      -0.6994590000    -0.0408710000    -0.0201890000
   11      C      -1.3939010000    -1.3130240000     0.0236660000
   12      C      -2.7431640000    -1.4257800000    -0.0133590000
   13      C      -3.4562510000    -2.7434450000     0.0321790000
   14      C      -3.5817740000    -0.2088510000    -0.1027890000
   15      O      -4.8083970000    -0.2802790000    -0.1371360000
   16      C      -2.8863310000     1.0974370000    -0.1486530000
   17      C      -1.5332040000     1.1422240000    -0.1079340000
   18      C      -3.7437580000     2.3235720000    -0.2394770000
   19      H       4.0799600000     2.8753200000     0.8565570000
   20      H       2.7506490000     3.5738320000    -0.0973060000
   21      H       4.1352890000     2.7851090000    -0.8882870000
   22      H       0.8152220000     2.2240400000    -0.0898870000
   23      H       1.0617980000    -2.1148860000     0.1430720000
   24      H       3.1373840000    -3.2303660000     0.2679870000
   25      H       4.4282410000    -2.3793980000    -0.6120850000
   26      H       4.3742000000    -2.2881850000     1.1326580000
   27      H      -0.8153050000    -2.2242570000     0.0892980000
   28      H      -4.1360390000    -2.7845860000     0.8880490000
   29      H      -4.0799150000    -2.8753300000    -0.8566260000
   30      H      -2.7511280000    -3.5738400000     0.0980370000
   31      H      -1.0615330000     2.1147150000    -0.1432420000
   32      H      -3.1371590000     3.2303990000    -0.2675190000
   33      H      -4.3733910000     2.2884210000    -1.1331670000
   34      H      -4.4286020000     2.3791240000     0.6115260000
 ----------------------------------------------------------------

    9    -769.9969996616      1.27e-06  Convergence criterion met
 Total energy in the final basis set =     -769.9969996616

                    Orbital Energies (a.u.)
 --------------------------------------------------------------

 Alpha MOs
 -- Occupied --
-19.1199 -19.1199 -10.2634 -10.2634 -10.2239 -10.2234 -10.2008 -10.2008
-10.2008 -10.2008 -10.1954 -10.1954 -10.1954 -10.1954 -10.1686 -10.1686
-10.1686 -10.1686  -1.0506  -1.0506  -0.8903  -0.8590  -0.8077  -0.8034
 -0.7955  -0.7364  -0.7092  -0.6973  -0.6909  -0.6726  -0.6288  -0.6028
 -0.5791  -0.5748  -0.5243  -0.5229  -0.4807  -0.4790  -0.4748  -0.4514
 -0.4473  -0.4398  -0.4368  -0.4281  -0.4182  -0.4180  -0.4180  -0.4169
 -0.4136  -0.3928  -0.3893  -0.3854  -0.3844  -0.3819  -0.3804  -0.3751
 -0.3712  -0.3544  -0.3230  -0.2751  -0.2711  -0.2678  -0.2657  -0.2338

          Ground-State Mulliken Net Atomic Charges

     Atom                 Charge (a.u.)
  ----------------------------------------
      1 C                    -0.236513
      2 C                     0.415435
      3 C                    -0.676248
      4 C                     1.480170
      5 C                    -0.676285
      6 C                     0.419871
      7 C                    -0.230558
      8 C                    -1.412423
      9 O                    -0.331195
     10 C                     1.479304
     11 C                    -0.676451
     12 C                     0.415868
     13 C                    -0.234973
     14 C                    -1.412593
     15 O                    -0.331223
     16 C                     0.418669
     17 C                    -0.676897
     18 C                    -0.230471
     19 H                     0.191065
     20 H                     0.182244
     21 H                     0.191081
     22 H                     0.059564
     23 H                     0.059617
     24 H                     0.182500
     25 H                     0.191162
     26 H                     0.190976
     27 H                     0.059466
     28 H                     0.191022
     29 H                     0.191161
     30 H                     0.182350
     31 H                     0.059716
     32 H                     0.182404
     33 H                     0.191077
     34 H                     0.191107
  ----------------------------------------
  Sum of atomic charges =     0.000000

                    Cartesian Multipole Moments
 -----------------------------------------------------------------
    Charge (ESU x 10^10)
                 0.0000
    Dipole Moment (Debye)
         X      -0.0006      Y      -0.0006      Z      -0.0018
       Tot       0.0020
    Quadrupole Moments (Debye-Ang)
        XX    -162.4439     XY      -4.3686     YY     -87.3931
        XZ      -1.4599     YZ      -1.2369     ZZ    -108.6301

 Total job time:  64.83s(wall), 459.27s(cpu)
        *  Thank you very much for using Q-Chem.  Have a nice day.  *
