 Q-Chem 5.4, Q-Chem, Inc., Pleasanton, CA (2021)
 Q-Chem 5.4.0 for Intel X86 EM64T Linux

User input:
--------------------------------------------------------------
$molecule
-1 2
C                 -7.1480420000      3.8761700000      0.8642420000
C                 -8.1092280000      3.1332580000      0.2042580000
C                 -7.7583980000      2.3745350000     -0.9307770000
C                 -5.8091920000      3.8880410000      0.4164620000
C                 -5.4526160000      3.1216220000     -0.7302030000
C                 -6.4487320000      2.3747450000     -1.3830160000
C                 -4.8035140000      4.6663330000      1.1080870000
C                 -3.4618120000      4.6148990000      0.5748470000
C                 -3.0841370000      3.8906610000     -0.5361330000
C                 -4.0657660000      3.0957860000     -1.2422680000
O                 -5.0123390000      5.3849090000      2.1403980000
O                 -3.7618150000      2.4095740000     -2.2530000000
O                 -2.5681870000      5.3692760000      1.2790000000
C                 -1.6603290000      3.8874110000     -1.0294250000
C                 -0.8311040000      2.7097280000     -0.4820070000
C                  0.6073310000      2.6886780000     -1.0102820000
C                  1.4426520000      1.5210620000     -0.4726970000
C                  2.8828330000      1.4944400000     -0.9978960000
C                  3.7133450000      0.3236760000     -0.4596000000
C                  5.1537780000      0.2942260000     -0.9833980000
C                  5.9779980000     -0.8798410000     -0.4422160000
C                  7.4201100000     -0.9058300000     -0.9665160000
C                  8.2207370000     -2.0850390000     -0.4129360000
S                  9.9399890000     -2.0738840000     -1.0642670000
C                 10.6002680000     -3.5695890000     -0.2272800000
C                 12.0635090000     -3.7998850000     -0.6064360000
C                 12.6608580000     -5.0401940000      0.0709260000
C                 14.1284420000     -5.2844910000     -0.2989240000
C                 14.7325460000     -6.5214840000      0.3752030000
C                 16.2001830000     -6.7666700000      0.0067800000
C                 16.8052140000     -8.0030870000      0.6813220000
C                 18.2728130000     -8.2484710000      0.3136500000
C                 18.8790260000     -9.4845120000      0.9878970000
C                 20.3454280000     -9.7211430000      0.6145620000
H                 -7.3934550000      4.4676290000      1.7391560000
H                 -9.1356030000      3.1335300000      0.5599410000
H                 -8.5140230000      1.7913050000     -1.4486650000
H                 -6.1505710000      1.7998970000     -2.2525540000
H                 -3.1383900000      5.7539140000      1.9812520000
H                 -1.1737970000      4.8279370000     -0.7510950000
H                 -1.6775080000      3.8188090000     -2.1219310000
H                 -1.3355220000      1.7760500000     -0.7527540000
H                 -0.8179780000      2.7605030000      0.6134140000
H                  1.1030810000      3.6350130000     -0.7533970000
H                  0.5869930000      2.6427620000     -2.1073280000
H                  0.9467230000      0.5761440000     -0.7303300000
H                  1.4595390000      1.5648500000      0.6243900000
H                  3.3798220000      2.4389340000     -0.7393560000
H                  2.8665110000      1.4512350000     -2.0949460000
H                  3.2157010000     -0.6201480000     -0.7182680000
H                  3.7288570000      0.3666530000      0.6374170000
H                  5.6532080000      1.2365750000     -0.7234730000
H                  5.1396130000      0.2506340000     -2.0801250000
H                  5.4794580000     -1.8218970000     -0.7041930000
H                  5.9913550000     -0.8362970000      0.6544350000
H                  7.9228090000      0.0309150000     -0.7006970000
H                  7.4105780000     -0.9554810000     -2.0611670000
H                  7.7494380000     -3.0311000000     -0.6951500000
H                  8.2637890000     -2.0366650000      0.6791440000
H                  9.9915820000     -4.4307910000     -0.5189760000
H                 10.5041990000     -3.4357090000      0.8544390000
H                 12.6511800000     -2.9159650000     -0.3338140000
H                 12.1433150000     -3.9035030000     -1.6944970000
H                 12.0679080000     -5.9232570000     -0.1994830000
H                 12.5748960000     -4.9363770000      1.1601270000
H                 14.7206030000     -4.4002660000     -0.0302600000
H                 14.2141410000     -5.3875730000     -1.3882860000
H                 14.1398670000     -7.4055930000      0.1065080000
H                 14.6458100000     -6.4181930000      1.4646670000
H                 16.7926450000     -5.8822610000      0.2749200000
H                 16.2868970000     -6.8703140000     -1.0826340000
H                 16.2127930000     -8.8875520000      0.4130280000
H                 16.7181670000     -7.8994190000      1.7707730000
H                 18.8661820000     -7.3644120000      0.5817830000
H                 18.3608820000     -8.3527910000     -0.7757990000
H                 18.2870700000    -10.3681420000      0.7195860000
H                 18.7918480000     -9.3804500000      2.0763730000
H                 20.4606040000     -9.8640000000     -0.4646790000
H                 20.7471290000    -10.6088770000      1.1114010000
H                 20.9692270000     -8.8687830000      0.9022960000
$end
$rem
MAX_SCF_CYCLES=200
BASIS  =  6-311++G(d,p)
GUI  =  2
THRESH = 14
SCF_CONVERGENCE = 8
SCF_ALGORITHM = RCA_DIIS
scf_guess = GWH
JOB_TYPE  =  SP
METHOD  =  B3LYP
SOLVENT_METHOD = PCM
$end
$pcm
theory = CPCM
$end
$solvent
dielectric 37.219
opticaldielectric 1.43
$end

--------------------------------------------------------------

             Standard Nuclear Orientation (Angstroms)
    I     Atom           X                Y                Z
 ----------------------------------------------------------------
    1      C      -7.1480420000     3.8761700000     0.8642420000
    2      C      -8.1092280000     3.1332580000     0.2042580000
    3      C      -7.7583980000     2.3745350000    -0.9307770000
    4      C      -5.8091920000     3.8880410000     0.4164620000
    5      C      -5.4526160000     3.1216220000    -0.7302030000
    6      C      -6.4487320000     2.3747450000    -1.3830160000
    7      C      -4.8035140000     4.6663330000     1.1080870000
    8      C      -3.4618120000     4.6148990000     0.5748470000
    9      C      -3.0841370000     3.8906610000    -0.5361330000
   10      C      -4.0657660000     3.0957860000    -1.2422680000
   11      O      -5.0123390000     5.3849090000     2.1403980000
   12      O      -3.7618150000     2.4095740000    -2.2530000000
   13      O      -2.5681870000     5.3692760000     1.2790000000
   14      C      -1.6603290000     3.8874110000    -1.0294250000
   15      C      -0.8311040000     2.7097280000    -0.4820070000
   16      C       0.6073310000     2.6886780000    -1.0102820000
   17      C       1.4426520000     1.5210620000    -0.4726970000
   18      C       2.8828330000     1.4944400000    -0.9978960000
   19      C       3.7133450000     0.3236760000    -0.4596000000
   20      C       5.1537780000     0.2942260000    -0.9833980000
   21      C       5.9779980000    -0.8798410000    -0.4422160000
   22      C       7.4201100000    -0.9058300000    -0.9665160000
   23      C       8.2207370000    -2.0850390000    -0.4129360000
   24      S       9.9399890000    -2.0738840000    -1.0642670000
   25      C      10.6002680000    -3.5695890000    -0.2272800000
   26      C      12.0635090000    -3.7998850000    -0.6064360000
   27      C      12.6608580000    -5.0401940000     0.0709260000
   28      C      14.1284420000    -5.2844910000    -0.2989240000
   29      C      14.7325460000    -6.5214840000     0.3752030000
   30      C      16.2001830000    -6.7666700000     0.0067800000
   31      C      16.8052140000    -8.0030870000     0.6813220000
   32      C      18.2728130000    -8.2484710000     0.3136500000
   33      C      18.8790260000    -9.4845120000     0.9878970000
   34      C      20.3454280000    -9.7211430000     0.6145620000
   35      H      -7.3934550000     4.4676290000     1.7391560000
   36      H      -9.1356030000     3.1335300000     0.5599410000
   37      H      -8.5140230000     1.7913050000    -1.4486650000
   38      H      -6.1505710000     1.7998970000    -2.2525540000
   39      H      -3.1383900000     5.7539140000     1.9812520000
   40      H      -1.1737970000     4.8279370000    -0.7510950000
   41      H      -1.6775080000     3.8188090000    -2.1219310000
   42      H      -1.3355220000     1.7760500000    -0.7527540000
   43      H      -0.8179780000     2.7605030000     0.6134140000
   44      H       1.1030810000     3.6350130000    -0.7533970000
   45      H       0.5869930000     2.6427620000    -2.1073280000
   46      H       0.9467230000     0.5761440000    -0.7303300000
   47      H       1.4595390000     1.5648500000     0.6243900000
   48      H       3.3798220000     2.4389340000    -0.7393560000
   49      H       2.8665110000     1.4512350000    -2.0949460000
   50      H       3.2157010000    -0.6201480000    -0.7182680000
   51      H       3.7288570000     0.3666530000     0.6374170000
   52      H       5.6532080000     1.2365750000    -0.7234730000
   53      H       5.1396130000     0.2506340000    -2.0801250000
   54      H       5.4794580000    -1.8218970000    -0.7041930000
   55      H       5.9913550000    -0.8362970000     0.6544350000
   56      H       7.9228090000     0.0309150000    -0.7006970000
   57      H       7.4105780000    -0.9554810000    -2.0611670000
   58      H       7.7494380000    -3.0311000000    -0.6951500000
   59      H       8.2637890000    -2.0366650000     0.6791440000
   60      H       9.9915820000    -4.4307910000    -0.5189760000
   61      H      10.5041990000    -3.4357090000     0.8544390000
   62      H      12.6511800000    -2.9159650000    -0.3338140000
   63      H      12.1433150000    -3.9035030000    -1.6944970000
   64      H      12.0679080000    -5.9232570000    -0.1994830000
   65      H      12.5748960000    -4.9363770000     1.1601270000
   66      H      14.7206030000    -4.4002660000    -0.0302600000
   67      H      14.2141410000    -5.3875730000    -1.3882860000
   68      H      14.1398670000    -7.4055930000     0.1065080000
   69      H      14.6458100000    -6.4181930000     1.4646670000
   70      H      16.7926450000    -5.8822610000     0.2749200000
   71      H      16.2868970000    -6.8703140000    -1.0826340000
   72      H      16.2127930000    -8.8875520000     0.4130280000
   73      H      16.7181670000    -7.8994190000     1.7707730000
   74      H      18.8661820000    -7.3644120000     0.5817830000
   75      H      18.3608820000    -8.3527910000    -0.7757990000
   76      H      18.2870700000   -10.3681420000     0.7195860000
   77      H      18.7918480000    -9.3804500000     2.0763730000
   78      H      20.4606040000    -9.8640000000    -0.4646790000
   79      H      20.7471290000   -10.6088770000     1.1114010000
   80      H      20.9692270000    -8.8687830000     0.9022960000
 ----------------------------------------------------------------

   98   -1795.3823172738      8.37E-09 Convergence criterion met
 Total energy in the final basis set = -1795.38231727

                    Orbital Energies (a.u.)
 --------------------------------------------------------------

 Alpha MOs
 -- Occupied --
-88.8340 -19.1435 -19.0871 -19.0757 -10.2241 -10.2219 -10.2214 -10.1905
-10.1905 -10.1747 -10.1726 -10.1718 -10.1708 -10.1705 -10.1690 -10.1659
-10.1656 -10.1625 -10.1600 -10.1596 -10.1578 -10.1570 -10.1567 -10.1564
-10.1559 -10.1555 -10.1553 -10.1551 -10.1550 -10.1544 -10.1544 -10.1540
-10.1536 -10.1515  -7.9203  -5.8841  -5.8808  -5.8741  -1.0635  -1.0013
 -0.9970  -0.8584  -0.8205  -0.8136  -0.8093  -0.8024  -0.7943  -0.7824
 -0.7716  -0.7574  -0.7508  -0.7438  -0.7284  -0.7106  -0.6925  -0.6760
 -0.6623  -0.6438  -0.6256  -0.6159  -0.6039  -0.5896  -0.5787  -0.5783
 -0.5757  -0.5705  -0.5700  -0.5684  -0.5677  -0.5653  -0.5366  -0.5043
 -0.4852  -0.4843  -0.4819  -0.4729  -0.4699  -0.4602  -0.4526  -0.4510
 -0.4450  -0.4384  -0.4363  -0.4297  -0.4265  -0.4252  -0.4234  -0.4211
 -0.4177  -0.4175  -0.4133  -0.4045  -0.4003  -0.3977  -0.3922  -0.3919
 -0.3877  -0.3849  -0.3817  -0.3761  -0.3719  -0.3659  -0.3627  -0.3610
 -0.3562  -0.3527  -0.3475  -0.3440  -0.3415  -0.3395  -0.3380  -0.3359
 -0.3335  -0.3286  -0.3266  -0.3239  -0.3238  -0.3218  -0.3196  -0.3180
 -0.3173  -0.3159  -0.3157  -0.3140  -0.3095  -0.2996  -0.2912  -0.2676
 -0.2612  -0.2579  -0.2411  -0.2276  -0.2248  -0.1518

 Beta MOs
 -- Occupied --
-88.8340 -19.1430 -19.0809 -19.0704 -10.2227 -10.2205 -10.2188 -10.1905
-10.1905 -10.1746 -10.1718 -10.1715 -10.1700 -10.1699 -10.1692 -10.1659
-10.1656 -10.1617 -10.1600 -10.1596 -10.1578 -10.1570 -10.1568 -10.1564
-10.1559 -10.1555 -10.1553 -10.1551 -10.1550 -10.1544 -10.1543 -10.1539
-10.1536 -10.1515  -7.9203  -5.8841  -5.8808  -5.8741  -1.0613  -0.9921
 -0.9865  -0.8561  -0.8205  -0.8119  -0.8087  -0.8019  -0.7937  -0.7819
 -0.7709  -0.7566  -0.7486  -0.7433  -0.7279  -0.7101  -0.6913  -0.6725
 -0.6582  -0.6428  -0.6250  -0.6143  -0.6029  -0.5887  -0.5786  -0.5780
 -0.5754  -0.5703  -0.5693  -0.5683  -0.5670  -0.5643  -0.5348  -0.5020
 -0.4850  -0.4832  -0.4807  -0.4727  -0.4694  -0.4591  -0.4519  -0.4507
 -0.4447  -0.4376  -0.4296  -0.4281  -0.4255  -0.4248  -0.4221  -0.4206
 -0.4166  -0.4138  -0.4107  -0.4029  -0.3989  -0.3965  -0.3919  -0.3901
 -0.3842  -0.3810  -0.3780  -0.3749  -0.3690  -0.3627  -0.3624  -0.3587
 -0.3548  -0.3480  -0.3458  -0.3412  -0.3389  -0.3380  -0.3348  -0.3335
 -0.3284  -0.3279  -0.3264  -0.3238  -0.3236  -0.3213  -0.3196  -0.3179
 -0.3173  -0.3157  -0.3157  -0.3139  -0.3094  -0.2993  -0.2910  -0.2558
 -0.2508  -0.2483  -0.2362  -0.2248  -0.2189

          Ground-State Mulliken Net Atomic Charges

     Atom                 Charge (a.u.)    Spin (a.u.)
  --------------------------------------------------------
      1 C                     0.031699       0.074917
      2 C                    -0.392045      -0.000904
      3 C                    -0.462353       0.071512
      4 C                     0.461031      -0.004580
      5 C                    -0.094116       0.058227
      6 C                     0.081543       0.004685
      7 C                    -0.854719       0.171370
      8 C                    -0.588042       0.058911
      9 C                     1.911955       0.051876
     10 C                    -0.666351       0.081781
     11 O                    -0.541034       0.226059
     12 O                    -0.479998       0.193876
     13 O                    -0.297716       0.016409
     14 C                    -0.390794       0.012398
     15 C                    -0.719136      -0.001920
     16 C                    -0.286803       0.001098
     17 C                    -0.091821      -0.003529
     18 C                    -0.110217      -0.001072
     19 C                    -0.265132      -0.000052
     20 C                    -0.128151       0.000303
     21 C                    -0.330313      -0.000018
     22 C                    -0.234373       0.000013
     23 C                    -0.788659       0.000012
     24 S                    -0.420405       0.000003
     25 C                    -0.747875       0.000008
     26 C                    -0.004061      -0.000005
     27 C                     0.015540      -0.000003
     28 C                     0.016369      -0.000001
     29 C                     0.028114       0.000001
     30 C                    -0.000047      -0.000000
     31 C                    -0.270109       0.000000
     32 C                    -0.464189      -0.000000
     33 C                    -0.287466       0.000000
     34 C                    -0.709248      -0.000000
     35 H                     0.174329      -0.004112
     36 H                     0.199295      -0.000659
     37 H                     0.194646      -0.005048
     38 H                     0.173469      -0.000379
     39 H                     0.302980      -0.003548
     40 H                     0.218733      -0.000549
     41 H                     0.201167       0.002518
     42 H                     0.178274      -0.001656
     43 H                     0.172013       0.002054
     44 H                     0.119122      -0.000374
     45 H                     0.121520       0.000475
     46 H                     0.130163      -0.000039
     47 H                     0.130122      -0.000041
     48 H                     0.136385      -0.000009
     49 H                     0.136998       0.000002
     50 H                     0.134950       0.000004
     51 H                     0.135200      -0.000004
     52 H                     0.137674      -0.000011
     53 H                     0.137578       0.000005
     54 H                     0.144536      -0.000001
     55 H                     0.144539       0.000001
     56 H                     0.133510       0.000003
     57 H                     0.134200      -0.000002
     58 H                     0.191188      -0.000001
     59 H                     0.191078       0.000001
     60 H                     0.200564       0.000000
     61 H                     0.200788      -0.000000
     62 H                     0.137795      -0.000000
     63 H                     0.137890       0.000000
     64 H                     0.143472      -0.000000
     65 H                     0.142848      -0.000000
     66 H                     0.137719       0.000000
     67 H                     0.137505       0.000000
     68 H                     0.133534      -0.000000
     69 H                     0.133137      -0.000000
     70 H                     0.132898      -0.000000
     71 H                     0.132637      -0.000000
     72 H                     0.132624      -0.000000
     73 H                     0.132236       0.000000
     74 H                     0.129133      -0.000000
     75 H                     0.128845       0.000000
     76 H                     0.135412       0.000000
     77 H                     0.135197      -0.000000
     78 H                     0.144597       0.000000
     79 H                     0.151759       0.000000
     80 H                     0.144663       0.000000
  --------------------------------------------------------
  Sum of atomic charges =    -1.000000

                    Cartesian Multipole Moments
 -----------------------------------------------------------------
    Charge (ESU x 10^10)
                -4.8032
    Dipole Moment (Debye)
         X      18.7942      Y     -20.2854      Z       2.3090
       Tot      27.7498
    Quadrupole Moments (Debye-Ang)
        XX    -331.9701     XY      67.0528     YY    -301.4216
        XZ      19.8799     YZ     -11.4149     ZZ    -249.7891

 Total job time:  7972.17s(wall), 47706.12s(cpu)
        *  Thank you very much for using Q-Chem.  Have a nice day.  *
