 Gaussian 16, Revision A.03,
 Gaussian 16:  ES64L-G16RevA.03 25-Dec-2016

 --------------------------------------
 #P UB3LYP/6-311++G(d,p) nosym opt freq
 --------------------------------------

 -------
 Radical
 -------
 Symbolic Z-matrix:
 Charge = -1 Multiplicity = 2

 SCF Done:  E(UB3LYP) =  -766.867071285     A.U. after   22 cycles
 SCF Done:  E(UB3LYP) =  -766.888140955     A.U. after   17 cycles
 SCF Done:  E(UB3LYP) =  -766.890214692     A.U. after   18 cycles
 SCF Done:  E(UB3LYP) =  -766.889716534     A.U. after   18 cycles
 SCF Done:  E(UB3LYP) =  -766.891519300     A.U. after   16 cycles
 SCF Done:  E(UB3LYP) =  -766.891604359     A.U. after   14 cycles
 SCF Done:  E(UB3LYP) =  -766.891606539     A.U. after   13 cycles
 SCF Done:  E(UB3LYP) =  -766.891609596     A.U. after   12 cycles
 SCF Done:  E(UB3LYP) =  -766.891612439     A.U. after   11 cycles
 SCF Done:  E(UB3LYP) =  -766.891613397     A.U. after   11 cycles
 SCF Done:  E(UB3LYP) =  -766.926028062     A.U. after   16 cycles
 SCF Done:  E(UB3LYP) =  -766.926974684     A.U. after   15 cycles
 SCF Done:  E(UB3LYP) =  -766.927637552     A.U. after   16 cycles
 SCF Done:  E(UB3LYP) =  -766.927203573     A.U. after   17 cycles
 SCF Done:  E(UB3LYP) =  -766.927776411     A.U. after   15 cycles
 SCF Done:  E(UB3LYP) =  -766.927807675     A.U. after   13 cycles
 SCF Done:  E(UB3LYP) =  -766.927814668     A.U. after   13 cycles
 SCF Done:  E(UB3LYP) =  -766.927815754     A.U. after   13 cycles
 SCF Done:  E(UB3LYP) =  -766.927815858     A.U. after    9 cycles
 Optimization completed.
    -- Stationary point found.
 Normal termination of Gaussian 16 at Mon Dec 18 02:41:47 2023.

 ----------------------------------------------------------------------
 #P Geom=AllCheck Guess=TCheck SCRF=Check GenChk UB3LYP/6-311++G(d,p) F
 req
 ----------------------------------------------------------------------

 Structure from the checkpoint file:  "051-rad.chk"
 -------
 Radical
 -------
 Charge = -1 Multiplicity = 2

                          Input orientation:
 ---------------------------------------------------------------------
 Center     Atomic      Atomic             Coordinates (Angstroms)
 Number     Number       Type             X           Y           Z
 ---------------------------------------------------------------------
      1          6           0        3.432063    5.955416    0.611507
      2          6           0        2.137021    5.431242    1.033981
      3          6           0        1.992785    4.096572    1.347681
      4          6           0        3.109308    3.181575    1.250428
      5          6           0        4.401906    3.693520    0.839907
      6          6           0        4.552865    5.027440    0.532321
      7          8           0        3.590185    7.175757    0.322421
      8          8           0        2.962894    1.933820    1.524554
      9          6           0        5.863886    5.627704    0.093269
     10          6           0        5.543005    2.703339    0.766956
     11          6           0        0.998239    6.421112    1.111025
     12          6           0        0.682453    3.502998    1.816420
     13          6           0        0.004171    2.540897    0.787695
     14          6           0       -0.224564    1.123197    1.304493
     15          8           0       -1.317126    0.588363    1.288131
     16          8           0        0.852565    0.501191    1.769278
     17          1           0        6.665286    4.889546    0.050074
     18          1           0        6.163522    6.433928    0.771222
     19          1           0        5.761690    6.094763   -0.892008
     20          1           0        5.183971    1.717857    1.061547
     21          1           0        6.367767    2.984661    1.431595
     22          1           0        5.955095    2.631614   -0.246177
     23          1           0        1.333120    7.376334    0.706411
     24          1           0        0.671516    6.588502    2.144860
     25          1           0        0.122616    6.085064    0.545667
     26          1           0       -0.020802    4.298158    2.062562
     27          1           0        0.865455    2.956118    2.746602
     28          1           0        0.633089    2.466219   -0.105127
     29          1           0       -0.965614    2.926282    0.471528
     30          1           0        1.682994    1.090540    1.691497
 ---------------------------------------------------------------------

 SCF Done:  E(UB3LYP) =  -766.927815858     A.U. after    2 cycles

 Alpha  occ. eigenvalues --  -19.01788 -18.98010 -18.96796 -18.95657 -10.17550
 Alpha  occ. eigenvalues --  -10.10618 -10.09807 -10.07087 -10.06754 -10.05758
 Alpha  occ. eigenvalues --  -10.05600 -10.05501 -10.05460 -10.05152 -10.05049
 Alpha  occ. eigenvalues --  -10.05035  -0.96668  -0.89190  -0.87993  -0.87798
 Alpha  occ. eigenvalues --   -0.72247  -0.69240  -0.65608  -0.61759  -0.60188
 Alpha  occ. eigenvalues --   -0.57163  -0.52818  -0.52029  -0.47462  -0.43997
 Alpha  occ. eigenvalues --   -0.43110  -0.40340  -0.38857  -0.35315  -0.33780
 Alpha  occ. eigenvalues --   -0.33136  -0.32729  -0.31692  -0.30754  -0.30445
 Alpha  occ. eigenvalues --   -0.29580  -0.29089  -0.28342  -0.27910  -0.27794
 Alpha  occ. eigenvalues --   -0.27451  -0.26148  -0.25565  -0.25282  -0.24448
 Alpha  occ. eigenvalues --   -0.24321  -0.22650  -0.21809  -0.18883  -0.15893
 Alpha  occ. eigenvalues --   -0.15006  -0.13846  -0.12165  -0.11759  -0.04493
 Alpha virt. eigenvalues --    0.07910   0.08539   0.09981   0.10240   0.10914
 Alpha virt. eigenvalues --    0.11248   0.11431   0.11544   0.12523   0.13194
 Alpha virt. eigenvalues --    0.13477   0.13605   0.14334   0.14535   0.14726

  Beta  occ. eigenvalues --  -19.01789 -18.98008 -18.96216 -18.94911 -10.17550
  Beta  occ. eigenvalues --  -10.10368 -10.09710 -10.07082 -10.06759 -10.05579
  Beta  occ. eigenvalues --  -10.05554 -10.05418 -10.05349 -10.05164 -10.05064
  Beta  occ. eigenvalues --  -10.05041  -0.96660  -0.88792  -0.87253  -0.86583
  Beta  occ. eigenvalues --   -0.71754  -0.69086  -0.65438  -0.61482  -0.59970
  Beta  occ. eigenvalues --   -0.56978  -0.52316  -0.51706  -0.47388  -0.43675
  Beta  occ. eigenvalues --   -0.42715  -0.40263  -0.38744  -0.35231  -0.33486
  Beta  occ. eigenvalues --   -0.32995  -0.32184  -0.31566  -0.30558  -0.30098
  Beta  occ. eigenvalues --   -0.29229  -0.28900  -0.28046  -0.27810  -0.27536
  Beta  occ. eigenvalues --   -0.27369  -0.26034  -0.25300  -0.24216  -0.23931
  Beta  occ. eigenvalues --   -0.22416  -0.21885  -0.21643  -0.18827  -0.15210
  Beta  occ. eigenvalues --   -0.13358  -0.12651  -0.11458  -0.11083
  Beta virt. eigenvalues --    0.02665   0.07919   0.08550   0.10072   0.10368
  Beta virt. eigenvalues --    0.11091   0.11364   0.11517   0.12040   0.12661
  Beta virt. eigenvalues --    0.13237   0.13513   0.13632   0.14343   0.14862

 Mulliken charges and spin densities:
               1          2
     1  C   -1.435616   0.037545
     2  C    0.946542   0.148730
     3  C    1.119169   0.044573
     4  C   -1.320128   0.158160
     5  C    0.499973  -0.008431
     6  C    0.850366   0.113613
     7  O   -0.360655   0.276796
     8  O   -0.464245   0.211083
     9  C   -0.491457  -0.004586
    10  C   -0.661521  -0.001498
    11  C   -0.668999  -0.001184
    12  C   -0.403992  -0.001682
    13  C   -0.418574  -0.000818
    14  C   -0.100702   0.001677
    15  O   -0.334564   0.000769
    16  O   -0.338395   0.002244
    17  H    0.130702   0.000042
    18  H    0.156547   0.005753
    19  H    0.156395   0.005698
    20  H    0.190911  -0.001419
    21  H    0.126917   0.002274
    22  H    0.128760   0.002187
    23  H    0.192224  -0.002413
    24  H    0.143876   0.006880
    25  H    0.138350   0.005615
    26  H    0.158011   0.000065
    27  H    0.191113   0.002820
    28  H    0.187458   0.001419
    29  H    0.178662  -0.000028
    30  H    0.502873  -0.005882
 Sum of Mulliken charges =  -1.00000   1.00000

 Dipole moment (field-independent basis, Debye):
    X=             -9.4648    Y=            -15.6057    Z=             -5.2763  Tot=             18.9989
 Quadrupole moment (field-independent basis, Debye-Ang):
   XX=           -146.2847   YY=           -206.6754   ZZ=           -106.3932
   XY=            -59.6534   XZ=             -6.3929   YZ=             -6.1057

  Exact polarizability: 200.850  19.754 216.691 -15.937 -20.183 111.728
 Approx polarizability: 261.841  18.175 349.200 -16.209 -39.275 177.894

 ******    1 imaginary frequencies (negative Signs) ******

                      1                      2                      3
                      A                      A                      A
 Frequencies --    -64.3214                45.5178                63.3706
 Red. masses --      1.0257                 5.4784                 4.4874
 Frc consts  --      0.0025                 0.0067                 0.0106
 IR Inten    --      0.0008                 3.5137                 0.8731

                      4                      5                      6
                      A                      A                      A
 Frequencies --     88.1985                98.5817               108.2383
 Red. masses --      1.7817                 1.4568                 3.2390
 Frc consts  --      0.0082                 0.0083                 0.0224
 IR Inten    --      1.1834                 2.3186                 8.1621

                      7                      8                      9
                      A                      A                      A
 Frequencies --    114.9632               122.9782               140.9685
 Red. masses --      1.4612                 3.9502                 2.9526
 Frc consts  --      0.0114                 0.0352                 0.0346
 IR Inten    --      2.9842                 3.8474                 0.7457

                     10                     11                     12
                      A                      A                      A
 Frequencies --    185.5983               209.0004               230.8602
 Red. masses --      4.8067                 6.1433                 4.3076
 Frc consts  --      0.0976                 0.1581                 0.1353
 IR Inten    --      2.6343                16.7310                 1.5018

                     13                     14                     15
                      A                      A                      A
 Frequencies --    299.4709               328.1742               347.5299
 Red. masses --      2.7143                 2.6393                 4.1924
 Frc consts  --      0.1434                 0.1675                 0.2983
 IR Inten    --      4.5634                 0.3756                 0.7258

                     16                     17                     18
                      A                      A                      A
 Frequencies --    353.5662               366.8895               400.9255
 Red. masses --      2.4742                 4.5409                 4.8886
 Frc consts  --      0.1822                 0.3601                 0.4630
 IR Inten    --      4.9147                 1.8455                 1.0184

                     19                     20                     21
                      A                      A                      A
 Frequencies --    438.0360               448.2891               457.2053
 Red. masses --      7.9295                 4.6793                 2.6822
 Frc consts  --      0.8964                 0.5540                 0.3303
 IR Inten    --     35.0809                10.6145                 5.1649

                     22                     23                     24
                      A                      A                      A
 Frequencies --    478.8957               551.4115               579.0433
 Red. masses --      6.9733                 4.7776                 5.1867
 Frc consts  --      0.9423                 0.8559                 1.0246
 IR Inten    --     11.3977                 0.8303                14.8854

                     25                     26                     27
                      A                      A                      A
 Frequencies --    608.2021               626.2132               674.0440
 Red. masses --      5.1141                 4.0819                 3.2386
 Frc consts  --      1.1146                 0.9431                 0.8669
 IR Inten    --      7.7846                40.4477                 3.0695

                     28                     29                     30
                      A                      A                      A
 Frequencies --    706.4892               725.1455               779.2979
 Red. masses --      4.1184                 5.5657                 6.0412
 Frc consts  --      1.2111                 1.7243                 2.1616
 IR Inten    --     11.1167                 5.9205                 0.3504

                     31                     32                     33
                      A                      A                      A
 Frequencies --    818.2667               868.5384               874.6927
 Red. masses --      2.9171                 3.2521                 2.6971
 Frc consts  --      1.1508                 1.4454                 1.2158
 IR Inten    --      7.1708                 5.8277                 3.4590

                     34                     35                     36
                      A                      A                      A
 Frequencies --    947.7669               973.0870              1000.8647
 Red. masses --      2.7135                 1.7289                 3.6054
 Frc consts  --      1.4361                 0.9645                 2.1279
 IR Inten    --      5.7463                 4.3862                 3.2603

                     37                     38                     39
                      A                      A                      A
 Frequencies --   1021.5824              1030.3650              1031.3104
 Red. masses --      1.9594                 1.4278                 3.1513
 Frc consts  --      1.2048                 0.8931                 1.9748
 IR Inten    --     15.3273                 0.1581                 2.0132

                     40                     41                     42
                      A                      A                      A
 Frequencies --   1044.8297              1055.7163              1077.0490
 Red. masses --      1.5155                 1.5285                 1.6228
 Frc consts  --      0.9748                 1.0037                 1.1092
 IR Inten    --      1.1019                 0.2224                22.5653

                     43                     44                     45
                      A                      A                      A
 Frequencies --   1082.2844              1118.4099              1160.3120
 Red. masses --      1.2687                 2.5151                 3.2114
 Frc consts  --      0.8756                 1.8536                 2.5474
 IR Inten    --     44.8223                74.5922                 3.7217

                     46                     47                     48
                      A                      A                      A
 Frequencies --   1189.6612              1232.4123              1254.0816
 Red. masses --      1.6042                 2.0287                 1.9895
 Frc consts  --      1.3377                 1.8155                 1.8435
 IR Inten    --     61.0882                 6.6755                 5.2716

                     49                     50                     51
                      A                      A                      A
 Frequencies --   1299.4602              1314.4047              1327.5427
 Red. masses --      3.4342                 2.6072                 1.4927
 Frc consts  --      3.4167                 2.6539                 1.5500
 IR Inten    --     55.2308                 9.0820                16.2102

                     52                     53                     54
                      A                      A                      A
 Frequencies --   1351.7518              1382.1661              1385.6797
 Red. masses --      1.3843                 1.3313                 1.3467
 Frc consts  --      1.4903                 1.4985                 1.5236
 IR Inten    --      7.2334                14.6182                65.2427

                     55                     56                     57
                      A                      A                      A
 Frequencies --   1401.5465              1440.2188              1462.2168
 Red. masses --      1.2722                 2.6300                 2.1490
 Frc consts  --      1.4724                 3.2141                 2.7071
 IR Inten    --      3.8159                 1.6710               325.6851

                     58                     59                     60
                      A                      A                      A
 Frequencies --   1470.9800              1471.5660              1480.9191
 Red. masses --      1.0479                 1.3657                 1.2609
 Frc consts  --      1.3359                 1.7425                 1.6292
 IR Inten    --      7.3232                30.5204                16.6854

                     61                     62                     63
                      A                      A                      A
 Frequencies --   1484.2327              1492.9055              1500.1608
 Red. masses --      1.2134                 1.3197                 1.1521
 Frc consts  --      1.5749                 1.7329                 1.5276
 IR Inten    --     89.6090                 9.9729                62.8708

                     64                     65                     66
                      A                      A                      A
 Frequencies --   1507.5603              1507.8125              1511.9713
 Red. masses --      1.0498                 1.1021                 4.7125
 Frc consts  --      1.4058                 1.4763                 6.3473
 IR Inten    --      2.6909                18.0549               197.7439

                     67                     68                     69
                      A                      A                      A
 Frequencies --   1526.7247              1544.5987              1634.3078
 Red. masses --      1.3196                 4.1842                 7.5810
 Frc consts  --      1.8122                 5.8815                11.9301
 IR Inten    --    207.4322                38.5421                29.9377

                     70                     71                     72
                      A                      A                      A
 Frequencies --   1771.6006              2734.5121              2999.1597
 Red. masses --      6.3345                 1.0905                 1.0440
 Frc consts  --     11.7138                 4.8045                 5.5330
 IR Inten    --    611.3277              2779.1177                91.0115

                     73                     74                     75
                      A                      A                      A
 Frequencies --   3002.9887              3018.0919              3033.9741
 Red. masses --      1.0412                 1.0386                 1.0689
 Frc consts  --      5.5322                 5.5742                 5.7973
 IR Inten    --     52.1632                63.6873                13.6118

                     76                     77                     78
                      A                      A                      A
 Frequencies --   3040.7840              3041.9804              3042.3962
 Red. masses --      1.0996                 1.0825                 1.0773
 Frc consts  --      5.9902                 5.9020                 5.8753
 IR Inten    --     35.7644                61.1799                 7.7330

                     79                     80                     81
                      A                      A                      A
 Frequencies --   3052.7997              3090.0371              3108.3383
 Red. masses --      1.0983                 1.0965                 1.0950
 Frc consts  --      6.0306                 6.1686                 6.2336
 IR Inten    --     23.5376                 3.9352                42.9132

                     82                     83                     84
                      A                      A                      A
 Frequencies --   3110.0827              3113.6766              3120.8201
 Red. masses --      1.0977                 1.0951                 1.0944
 Frc consts  --      6.2558                 6.2554                 6.2800
 IR Inten    --     30.3574                 5.6223                 4.5445

 - Thermochemistry -
 -------------------
 Temperature   298.150 Kelvin.  Pressure   1.00000 Atm.
 Atom     1 has atomic number  6 and mass  12.00000

 Molecular mass:   222.08921 amu.
 Principal axes and moments of inertia in atomic units:
                           1         2         3
     Eigenvalues --  1930.515205493.381267192.78879
           X            0.70439  -0.70266   0.10048
           Y            0.69465   0.71151   0.10595
           Z           -0.14594  -0.00484   0.98928
 This molecule is an asymmetric top.
 Rotational symmetry number  1.
 Warning -- assumption of classical behavior for rotation
           may cause significant error
 Rotational temperatures (Kelvin)      0.04487     0.01577     0.01204
 Rotational constants (GHZ):           0.93485     0.32853     0.25091
    1 imaginary frequencies ignored.
 Zero-point vibrational energy     622885.4 (Joules/Mol)
                                  148.87318 (Kcal/Mol)
 Warning -- explicit consideration of  24 degrees of freedom as
           vibrations may cause significant error
 Vibrational temperatures:     65.49    91.18   126.90   141.84   155.73
          (Kelvin)            165.41   176.94   202.82   267.03   300.70
                              332.16   430.87   472.17   500.02   508.70
                              527.87   576.84   630.24   644.99   657.82
                              689.02   793.36   833.11   875.07   900.98
                              969.80  1016.48  1043.32  1121.24  1177.30
                             1249.63  1258.49  1363.63  1400.06  1440.02
                             1469.83  1482.47  1483.83  1503.28  1518.94
                             1549.63  1557.17  1609.14  1669.43  1711.66
                             1773.17  1804.34  1869.63  1891.14  1910.04
                             1944.87  1988.63  1993.68  2016.51  2072.15
                             2103.80  2116.41  2117.26  2130.71  2135.48
                             2147.96  2158.40  2169.04  2169.41  2175.39
                             2196.62  2222.33  2351.40  2548.94  3934.35
                             4315.12  4320.63  4342.36  4365.21  4375.01
                             4376.73  4377.33  4392.30  4445.87  4472.21
                             4474.72  4479.89  4490.16

 Zero-point correction=                           0.237245 (Hartree/Particle)
 Thermal correction to Energy=                    0.252698
 Thermal correction to Enthalpy=                  0.253642
 Thermal correction to Gibbs Free Energy=         0.193617
 Sum of electronic and zero-point Energies=           -766.690571
 Sum of electronic and thermal Energies=              -766.675118
 Sum of electronic and thermal Enthalpies=            -766.674174
 Sum of electronic and thermal Free Energies=         -766.734199

                     E (Thermal)             CV                S
                      KCal/Mol        Cal/Mol-Kelvin    Cal/Mol-Kelvin
 Total                  158.570             57.473            126.333
 Electronic               0.000              0.000              1.377
 Translational            0.889              2.981             42.096
 Rotational               0.889              2.981             32.700
 Vibrational            156.793             51.511             50.159
 Vibration     1          0.595              1.979              5.003
 Vibration     2          0.597              1.972              4.349
 Vibration     3          0.601              1.957              3.700
 Vibration     4          0.604              1.950              3.482
 Vibration     5          0.606              1.943              3.300
 Vibration     6          0.608              1.937              3.183
 Vibration     7          0.610              1.930              3.053
 Vibration     8          0.615              1.912              2.791
 Vibration     9          0.632              1.860              2.271
 Vibration    10          0.642              1.827              2.052
 Vibration    11          0.653              1.794              1.872
 Vibration    12          0.692              1.675              1.420
 Vibration    13          0.711              1.619              1.269
 Vibration    14          0.725              1.580              1.177
 Vibration    15          0.730              1.568              1.150
 Vibration    16          0.740              1.540              1.093
 Vibration    17          0.767              1.468              0.959
 Vibration    18          0.798              1.387              0.833
 Vibration    19          0.807              1.365              0.801
 Vibration    20          0.815              1.345              0.774
 Vibration    21          0.835              1.297              0.713
 Vibration    22          0.907              1.137              0.541
 Vibration    23          0.936              1.077              0.487
 Vibration    24          0.967              1.014              0.436

                           ! Non-Optimized Parameters !
 Normal termination of Gaussian 16 at Mon Dec 18 04:02:52 2023.
