 Q-Chem 5.4, Q-Chem, Inc., Pleasanton, CA (2021)
 Q-Chem 5.4.0 for Intel X86 EM64T Linux

User input:
--------------------------------------------------------------
$molecule
0 1
C                  2.5611520000     -0.9114090000     -0.1425140000
C                  1.3133130000     -0.0959360000     -0.0072950000
C                  1.2609480000      1.2268610000      0.2365470000
Cl                 2.6864550000      2.2046480000      0.4354950000
C                 -0.0252260000      1.9856640000      0.3606760000
O                 -0.0491980000      3.1748040000      0.5765730000
C                 -1.2775590000      1.1845590000      0.2017060000
C                 -1.2885320000     -0.1392570000     -0.0384780000
C                 -2.5365810000     -0.9530850000     -0.1988140000
C                  0.0256920000     -0.8485020000     -0.1552560000
O                  0.0568750000     -2.0474580000     -0.3720390000
Cl                -2.7520930000      2.0915180000      0.3507730000
H                  2.5994650000     -1.6697390000      0.6448210000
H                  2.5521070000     -1.4547720000     -1.0904590000
H                  3.4534050000     -0.2932000000     -0.0861300000
H                 -3.1603240000     -0.8799610000      0.6963790000
H                 -3.1343870000     -0.5782680000     -1.0344020000
H                 -2.2855120000     -1.9964660000     -0.3775840000
$end
$rem
MAX_SCF_CYCLES=200
BASIS  =  6-311++G(d,p)
GUI  =  2
JOB_TYPE  =  SP
METHOD  =  B3LYP
SOLVENT_METHOD = COSMO
$end
$solvent
dielectric 37.219
opticaldielectric 1.43
$end

--------------------------------------------------------------

             Standard Nuclear Orientation (Angstroms)
    I     Atom           X                Y                Z
 ----------------------------------------------------------------
    1      C       2.5333765865     1.7937309378     0.0041565232
    2      C       1.3024882189     0.9420875953     0.0040834945
    3      C       1.2774480614    -0.4037792627     0.0012010687
    4      Cl      2.7230332797    -1.3722726034    -0.0034847396
    5      C       0.0070556007    -1.1984719679     0.0014454852
    6      O       0.0075941598    -2.4072891541     0.0023572431
    7      C      -1.2616477006    -0.4074160395     0.0004080061
    8      C      -1.2998948993     0.9375122873    -0.0011762517
    9      C      -2.5645640264     1.7414141585    -0.0031084559
   10      C      -0.0004621503     1.6827114818     0.0005514159
   11      O       0.0060189120     2.9014886390    -0.0011735240
   12      Cl     -2.7173253845    -1.3561249079     0.0006889124
   13      H       2.5692674991     2.3991865158    -0.9060984206
   14      H       2.5010041280     2.4979896517     0.8389598370
   15      H       3.4373350265     1.1936610378     0.0693653647
   16      H      -3.1740363230     1.4962970084    -0.8773132712
   17      H      -3.1673976024     1.5104782324     0.8796867529
   18      H      -2.3349096650     2.8048142231    -0.0119086685
 ----------------------------------------------------------------

   10   -1379.4625148249      2.93e-06  Convergence criterion met
 Total energy in the final basis set =    -1379.4625148249
    5   -1379.4743641655      5.31e-06  Convergence criterion met
 Total energy in the final basis set =    -1379.4743641655

                    Orbital Energies (a.u.)
 --------------------------------------------------------------

 Alpha MOs
 -- Occupied --
********-101.5764 -19.1560 -19.1523 -10.3096 -10.3002 -10.2709 -10.2696
-10.2334 -10.2327 -10.1802 -10.1792  -9.4919  -9.4911  -7.2565  -7.2557
 -7.2471  -7.2462  -7.2459  -7.2451  -1.0950  -1.0855  -0.9182  -0.9054
 -0.8399  -0.8065  -0.7533  -0.7045  -0.6850  -0.6079  -0.6051  -0.5620
 -0.5093  -0.4881  -0.4820  -0.4610  -0.4602  -0.4446  -0.4424  -0.4364
 -0.4257  -0.4062  -0.4016  -0.3914  -0.3807  -0.3680  -0.3423  -0.3336
 -0.3105  -0.3005  -0.2947  -0.2750

          Ground-State Mulliken Net Atomic Charges

     Atom                 Charge (a.u.)
  ----------------------------------------
      1 C                    -0.533698
      2 C                     0.492013
      3 C                     0.318790
      4 Cl                    0.395763
      5 C                    -1.128005
      6 O                    -0.199559
      7 C                     0.250141
      8 C                     0.573631
      9 C                    -0.635543
     10 C                    -0.901908
     11 O                    -0.249391
     12 Cl                    0.469080
     13 H                     0.211950
     14 H                     0.201930
     15 H                     0.139067
     16 H                     0.198914
     17 H                     0.201018
     18 H                     0.195806
  ----------------------------------------
  Sum of atomic charges =     0.000000

                    Cartesian Multipole Moments
 -----------------------------------------------------------------
    Charge (ESU x 10^10)
                 0.0000
    Dipole Moment (Debye)
         X      -0.0850      Y       3.2745      Z      -0.0108
       Tot       3.2757
    Quadrupole Moments (Debye-Ang)
        XX     -75.2789     XY       0.3430     YY    -100.5197
        XZ      -0.0299     YZ       0.0029     ZZ     -81.3453

 Total job time:  21.21s(wall), 157.98s(cpu)
        *  Thank you very much for using Q-Chem.  Have a nice day.  *
