 Q-Chem 5.4, Q-Chem, Inc., Pleasanton, CA (2021)
 Q-Chem 5.4.0 for Intel X86 EM64T Linux

User input:
--------------------------------------------------------------
$molecule
-2 1
C                 -2.2347270000      3.2377730000      4.0998050000
C                 -3.4582550000      2.6862760000      4.3756490000
C                 -3.8926800000      1.5322970000      3.6715340000
C                 -3.0848650000      0.9694400000      2.6928060000
C                 -1.7970950000      1.5172300000      2.3557230000
C                 -1.3745000000      2.6869280000      3.1101590000
C                 -0.1108660000      3.3509770000      2.9045020000
C                 -0.9330590000      0.9469130000      1.3313700000
C                  0.7373220000      2.8144310000      1.8671690000
C                  0.3458130000      1.6373370000      1.1325490000
C                  2.0189120000      3.4054150000      1.5618060000
C                  2.8635100000      2.8167130000      0.6282080000
C                  2.4716780000      1.6447850000     -0.0616950000
C                  1.2368260000      1.0834510000      0.1790860000
O                  0.2234020000      4.3789290000      3.6339980000
O                 -1.2136180000     -0.0809320000      0.6393260000
N                  2.3871500000      4.6081780000      2.1875220000
O                 -3.4973750000     -0.1451140000      2.0009700000
C                 -4.7489220000     -0.7086280000      2.3005770000
H                 -1.8706170000      4.1160880000      4.6196700000
H                 -4.1061030000      3.1196090000      5.1354010000
H                 -4.8631340000      1.1101880000      3.8975360000
H                  3.8178390000      3.2941320000      0.4091590000
H                  3.1467850000      1.1996080000     -0.7908940000
H                  0.8986570000      0.1936230000     -0.3391800000
H                  1.7362990000      4.7923570000      2.9742190000
H                  3.3724120000      4.6594390000      2.4092890000
H                 -4.8431980000     -1.5914090000      1.6631790000
H                 -5.5841340000     -0.0245950000      2.0838030000
H                 -4.8327590000     -1.0246090000      3.3519920000
$end

$rem
BASIS  =  6-311++G(d,p)
GUI  =  2
JOB_TYPE  =  SP
METHOD  =  B3LYP
SCF_CONVERGENCE  = 8
SOLVENT_METHOD = sm12
$end

$smx
solvent dimethylformamide
charges CM5
$end

--------------------------------------------------------------

             Standard Nuclear Orientation (Angstroms)
    I     Atom           X                Y                Z
 ----------------------------------------------------------------
    1      C      -2.2347270000     3.2377730000     4.0998050000
    2      C      -3.4582550000     2.6862760000     4.3756490000
    3      C      -3.8926800000     1.5322970000     3.6715340000
    4      C      -3.0848650000     0.9694400000     2.6928060000
    5      C      -1.7970950000     1.5172300000     2.3557230000
    6      C      -1.3745000000     2.6869280000     3.1101590000
    7      C      -0.1108660000     3.3509770000     2.9045020000
    8      C      -0.9330590000     0.9469130000     1.3313700000
    9      C       0.7373220000     2.8144310000     1.8671690000
   10      C       0.3458130000     1.6373370000     1.1325490000
   11      C       2.0189120000     3.4054150000     1.5618060000
   12      C       2.8635100000     2.8167130000     0.6282080000
   13      C       2.4716780000     1.6447850000    -0.0616950000
   14      C       1.2368260000     1.0834510000     0.1790860000
   15      O       0.2234020000     4.3789290000     3.6339980000
   16      O      -1.2136180000    -0.0809320000     0.6393260000
   17      N       2.3871500000     4.6081780000     2.1875220000
   18      O      -3.4973750000    -0.1451140000     2.0009700000
   19      C      -4.7489220000    -0.7086280000     2.3005770000
   20      H      -1.8706170000     4.1160880000     4.6196700000
   21      H      -4.1061030000     3.1196090000     5.1354010000
   22      H      -4.8631340000     1.1101880000     3.8975360000
   23      H       3.8178390000     3.2941320000     0.4091590000
   24      H       3.1467850000     1.1996080000    -0.7908940000
   25      H       0.8986570000     0.1936230000    -0.3391800000
   26      H       1.7362990000     4.7923570000     2.9742190000
   27      H       3.3724120000     4.6594390000     2.4092890000
   28      H      -4.8431980000    -1.5914090000     1.6631790000
   29      H      -5.5841340000    -0.0245950000     2.0838030000
   30      H      -4.8327590000    -1.0246090000     3.3519920000
 ----------------------------------------------------------------

   18    -858.8331259027      4.86e-09  Convergence criterion met
 Total energy in the final basis set =     -859.1212203241

                    Orbital Energies (a.u.)
 --------------------------------------------------------------

 Alpha MOs
 -- Occupied --
-19.1410 -19.0323 -19.0214 -14.2984 -10.2299 -10.2170 -10.2089 -10.1906
-10.1879 -10.1695 -10.1682 -10.1604 -10.1598 -10.1573 -10.1560 -10.1550
-10.1545 -10.1514 -10.1491  -1.0585  -0.9524  -0.9469  -0.8995  -0.8377
 -0.8238  -0.7676  -0.7474  -0.7255  -0.7174  -0.6891  -0.6492  -0.6192
 -0.6129  -0.5698  -0.5463  -0.5364  -0.5182  -0.4953  -0.4727  -0.4697
 -0.4601  -0.4585  -0.4524  -0.4364  -0.4284  -0.4119  -0.3980  -0.3939
 -0.3829  -0.3754  -0.3701  -0.3640  -0.3521  -0.3392  -0.3377  -0.3327
 -0.3235  -0.3196  -0.3048  -0.2930  -0.2361  -0.2343  -0.2186  -0.2146
 -0.2039  -0.1920  -0.1138

          Ground-State Mulliken Net Atomic Charges

     Atom                 Charge (a.u.)
  ----------------------------------------
      1 C                    -1.011053
      2 C                     1.519140
      3 C                     2.829058
      4 C                     0.268087
      5 C                     0.110224
      6 C                    -2.117307
      7 C                    -2.921723
      8 C                    -2.355689
      9 C                    -2.500620
     10 C                    -0.860356
     11 C                    -0.728257
     12 C                     2.686246
     13 C                     1.272115
     14 C                    -0.851342
     15 O                    -0.295376
     16 O                    -0.290997
     17 N                    -0.203601
     18 O                    -0.032949
     19 C                     0.345124
     20 H                     0.086350
     21 H                     0.387199
     22 H                     0.419630
     23 H                     0.321747
     24 H                     0.375410
     25 H                     0.078281
     26 H                     0.293202
     27 H                     0.384758
     28 H                     0.335488
     29 H                     0.229141
     30 H                     0.228071
  ----------------------------------------
  Sum of atomic charges =    -2.000000

                    Cartesian Multipole Moments
 -----------------------------------------------------------------
    Charge (ESU x 10^10)
                -9.6064
    Dipole Moment (Debye)
         X       2.5058      Y     -21.8350      Z     -18.6071
       Tot      28.7970
    Quadrupole Moments (Debye-Ang)
        XX    -140.0179     XY       1.5887     YY    -204.9876
        XZ      14.0059     YZ     -60.3111     ZZ    -183.5032

 Total job time:  922.24s(wall), 7060.16s(cpu)
        *  Thank you very much for using Q-Chem.  Have a nice day.  *
