 Gaussian 16, Revision A.03,
 Gaussian 16:  ES64L-G16RevA.03 25-Dec-2016

 ----------------------------------------------------------------------
 #P UB3LYP/6-311++G(d,p) nosym opt freq SCRF=(PCM,Solvent=n,n-DiMethylF
 ormamide)
 ----------------------------------------------------------------------

 -------
 Radical
 -------
 Symbolic Z-matrix:
 Charge = -1 Multiplicity = 2

 SCF Done:  E(UB3LYP) =  -499.703770623     A.U. after   18 cycles
 SCF Done:  E(UB3LYP) =  -499.704056127     A.U. after   14 cycles
 SCF Done:  E(UB3LYP) =  -499.704088650     A.U. after   12 cycles
 SCF Done:  E(UB3LYP) =  -499.704091027     A.U. after   12 cycles
 SCF Done:  E(UB3LYP) =  -499.704091946     A.U. after    9 cycles
 SCF Done:  E(UB3LYP) =  -499.704092429     A.U. after    9 cycles
 SCF Done:  E(UB3LYP) =  -499.704092657     A.U. after    9 cycles
 SCF Done:  E(UB3LYP) =  -499.704092996     A.U. after    9 cycles
 SCF Done:  E(UB3LYP) =  -499.704093208     A.U. after    9 cycles
 Optimization completed.
    -- Stationary point found.
 Normal termination of Gaussian 16 at Sat Feb 10 10:23:02 2024.

 ----------------------------------------------------------------------
 #P Geom=AllCheck Guess=TCheck SCRF=Check GenChk UB3LYP/6-311++G(d,p) F
 req
 ----------------------------------------------------------------------

 Structure from the checkpoint file:  "049-rad.chk"
 -------
 Radical
 -------
 Charge = -1 Multiplicity = 2

                          Input orientation:
 ---------------------------------------------------------------------
 Center     Atomic      Atomic             Coordinates (Angstroms)
 Number     Number       Type             X           Y           Z
 ---------------------------------------------------------------------
      1          6           0        3.011836   -1.104957   -0.136892
      2          6           0        1.689967   -0.394808   -0.013344
      3          6           0        1.611064    0.922064    0.357970
      4          6           0        0.365395    1.635830    0.487693
      5          8           0        0.346875    2.863200    0.834505
      6          6           0       -0.852931    0.889593    0.205360
      7          6           0       -0.795494   -0.438223   -0.172706
      8          6           0       -2.058259   -1.209620   -0.469597
      9          6           0        0.474936   -1.141808   -0.299596
     10          8           0        0.533486   -2.365776   -0.646984
     11          6           0       -2.174313    1.605954    0.334716
     12          1           0        3.169745   -1.478613   -1.153993
     13          1           0        3.838649   -0.438093    0.117550
     14          1           0        3.056110   -1.978817    0.521121
     15          1           0        2.516423    1.484713    0.572477
     16          1           0       -2.726984   -1.237930    0.398237
     17          1           0       -1.815748   -2.233582   -0.750387
     18          1           0       -2.627168   -0.751800   -1.286863
     19          1           0       -2.836779    1.106056    1.050224
     20          1           0       -2.014264    2.629976    0.670347
     21          1           0       -2.712546    1.636639   -0.619836
 ---------------------------------------------------------------------

 SCF Done:  E(UB3LYP) =  -499.704093208     A.U. after    2 cycles

 Alpha  occ. eigenvalues --  -19.06882 -19.06844 -10.21015 -10.20963 -10.16527
 Alpha  occ. eigenvalues --  -10.16201 -10.16095 -10.15490 -10.15067 -10.15059
 Alpha  occ. eigenvalues --  -10.15028  -0.98794  -0.98457  -0.82367  -0.78082
 Alpha  occ. eigenvalues --   -0.71874  -0.70406  -0.65692  -0.63189  -0.55801
 Alpha  occ. eigenvalues --   -0.53623  -0.48737  -0.44798  -0.43242  -0.41809
 Alpha  occ. eigenvalues --   -0.41002  -0.40304  -0.39071  -0.38954  -0.38444
 Alpha  occ. eigenvalues --   -0.37926  -0.37054  -0.36551  -0.35517  -0.34123
 Alpha  occ. eigenvalues --   -0.33497  -0.26719  -0.23769  -0.23249  -0.22887
 Alpha  occ. eigenvalues --   -0.15360
 Alpha virt. eigenvalues --   -0.00466   0.00228   0.00730   0.01583   0.03024
 Alpha virt. eigenvalues --    0.03037   0.03634   0.03787   0.04412   0.04532
 Alpha virt. eigenvalues --    0.06204   0.06516   0.06636   0.07452   0.08225

  Beta  occ. eigenvalues --  -19.06200 -19.06161 -10.20857 -10.20789 -10.16398
  Beta  occ. eigenvalues --  -10.16115 -10.15993 -10.15500 -10.15067 -10.15035
  Beta  occ. eigenvalues --  -10.14978  -0.97594  -0.97230  -0.81817  -0.77872
  Beta  occ. eigenvalues --   -0.71571  -0.70173  -0.65258  -0.62624  -0.55438
  Beta  occ. eigenvalues --   -0.53210  -0.48546  -0.44386  -0.42603  -0.41369
  Beta  occ. eigenvalues --   -0.40708  -0.40148  -0.38738  -0.38629  -0.38231
  Beta  occ. eigenvalues --   -0.37827  -0.36454  -0.35407  -0.33850  -0.33298
  Beta  occ. eigenvalues --   -0.32876  -0.23680  -0.23134  -0.22401  -0.22276
  Beta virt. eigenvalues --   -0.08157  -0.00441   0.00737   0.01487   0.01608
  Beta virt. eigenvalues --    0.03033   0.03264   0.03659   0.04441   0.04537
  Beta virt. eigenvalues --    0.05854   0.06231   0.06644   0.06658   0.07462

 Mulliken charges and spin densities:
               1          2
     1  C   -0.300429   0.008752
     2  C    0.943353   0.089064
     3  C   -0.477249   0.033983
     4  C   -0.916014   0.102406
     5  O   -0.522032   0.240259
     6  C    0.932046   0.109609
     7  C    0.281911   0.041044
     8  C   -0.578489  -0.008032
     9  C   -0.926161   0.117957
    10  O   -0.505294   0.247740
    11  C   -0.491165   0.006701
    12  H    0.160053   0.004772
    13  H    0.149386  -0.000154
    14  H    0.159510   0.004567
    15  H    0.143276  -0.007644
    16  H    0.145435   0.002851
    17  H    0.182766  -0.001853
    18  H    0.145753   0.002839
    19  H    0.145974   0.003335
    20  H    0.177740  -0.001860
    21  H    0.149630   0.003664
 Sum of Mulliken charges =  -1.00000   1.00000

 Dipole moment (field-independent basis, Debye):
    X=             -2.4127    Y=             -1.7250    Z=             -0.6205  Tot=              3.0301
 Quadrupole moment (field-independent basis, Debye-Ang):
   XX=            -67.6261   YY=           -108.9427   ZZ=            -73.0768
   XY=              0.0328   XZ=              0.1549   YZ=            -11.1308

  Exact polarizability: 186.760 -10.337 253.296   1.957  42.093 115.842
 Approx polarizability: 185.375  -9.130 287.595   1.448  48.142 130.841

                      1                      2                      3
                      A                      A                      A
 Frequencies --     81.0430                94.6502               121.3476
 Red. masses --      1.0320                 3.8077                 1.2130
 Frc consts  --      0.0040                 0.0201                 0.0105
 IR Inten    --      0.0228                23.3574                 1.1391

                      4                      5                      6
                      A                      A                      A
 Frequencies --    131.0483               164.1491               185.2028
 Red. masses --      2.4611                 1.3533                 2.2920
 Frc consts  --      0.0249                 0.0215                 0.0463
 IR Inten    --      0.0882                 0.5487                 0.8805

                      7                      8                      9
                      A                      A                      A
 Frequencies --    274.0896               285.6288               314.9796
 Red. masses --      3.3797                 2.6517                 2.5242
 Frc consts  --      0.1496                 0.1275                 0.1475
 IR Inten    --      0.6893                 7.8558                 1.7424

                     10                     11                     12
                      A                      A                      A
 Frequencies --    333.1223               378.6595               394.6169
 Red. masses --      4.0706                 4.6621                 9.4666
 Frc consts  --      0.2661                 0.3939                 0.8685
 IR Inten    --      2.9940                 0.4924                33.8710

                     13                     14                     15
                      A                      A                      A
 Frequencies --    435.0086               485.2289               513.5519
 Red. masses --      5.3497                 7.5184                 3.4306
 Frc consts  --      0.5965                 1.0430                 0.5331
 IR Inten    --      1.0540                 1.3741                 0.5114

                     16                     17                     18
                      A                      A                      A
 Frequencies --    572.5778               646.2810               677.0444
 Red. masses --      5.4884                 3.4149                 3.7131
 Frc consts  --      1.0602                 0.8404                 1.0028
 IR Inten    --     11.0271                 1.0347                 5.5568

                     19                     20                     21
                      A                      A                      A
 Frequencies --    707.8896               758.9468               847.4150
 Red. masses --      5.4804                 5.3178                 2.3220
 Frc consts  --      1.6181                 1.8047                 0.9824
 IR Inten    --     40.2995                 3.3335                14.3363

                     22                     23                     24
                      A                      A                      A
 Frequencies --    867.0526               933.5967               998.2777
 Red. masses --      1.4599                 2.7341                 1.6385
 Frc consts  --      0.6466                 1.4041                 0.9621
 IR Inten    --     41.1499                12.4015                42.5144

                     25                     26                     27
                      A                      A                      A
 Frequencies --   1022.7766              1033.6484              1046.1628
 Red. masses --      1.4140                 1.6593                 1.5095
 Frc consts  --      0.8715                 1.0445                 0.9734
 IR Inten    --      0.2157                16.9136                 2.4651

                     28                     29                     30
                      A                      A                      A
 Frequencies --   1055.0630              1107.5388              1130.1173
 Red. masses --      1.5257                 2.5428                 4.3194
 Frc consts  --      1.0006                 1.8377                 3.2503
 IR Inten    --      0.1643                58.5482                13.3409

                     31                     32                     33
                      A                      A                      A
 Frequencies --   1208.0515              1229.0080              1323.0599
 Red. masses --      1.9155                 7.0203                 2.3165
 Frc consts  --      1.6471                 6.2476                 2.3891
 IR Inten    --    101.1505                10.7743                 6.3682

                     34                     35                     36
                      A                      A                      A
 Frequencies --   1380.7982              1388.9646              1397.4052
 Red. masses --      1.3591                 1.2680                 1.3339
 Frc consts  --      1.5268                 1.4413                 1.5346
 IR Inten    --     43.4190                 6.0902                58.9586

                     37                     38                     39
                      A                      A                      A
 Frequencies --   1426.5255              1460.7791              1464.2413
 Red. masses --      3.0584                 1.1324                 1.7752
 Frc consts  --      3.6669                 1.4237                 2.2424
 IR Inten    --    101.2556                43.0459               258.4238

                     40                     41                     42
                      A                      A                      A
 Frequencies --   1467.7899              1477.8864              1481.3634
 Red. masses --      1.2631                 1.9498                 1.2306
 Frc consts  --      1.6033                 2.5091                 1.5910
 IR Inten    --     92.6387               448.0950                 4.9744

                     43                     44                     45
                      A                      A                      A
 Frequencies --   1481.5834              1493.4558              1493.9314
 Red. masses --      1.4570                 1.0473                 2.0059
 Frc consts  --      1.8843                 1.3763                 2.6377
 IR Inten    --     35.9803                26.8424               488.6271

                     46                     47                     48
                      A                      A                      A
 Frequencies --   1530.7157              1638.7739              3005.8132
 Red. masses --      5.0319                 7.1897                 1.0407
 Frc consts  --      6.9465                11.3763                 5.5397
 IR Inten    --     30.1886                12.8568               150.8718

                     49                     50                     51
                      A                      A                      A
 Frequencies --   3007.3056              3015.3706              3040.9183
 Red. masses --      1.0416                 1.0364                 1.0992
 Frc consts  --      5.5500                 5.5520                 5.9885
 IR Inten    --     12.2949                66.8463                87.4727

                     52                     53                     54
                      A                      A                      A
 Frequencies --   3046.0523              3057.8177              3093.8695
 Red. masses --      1.0994                 1.0992                 1.1013
 Frc consts  --      6.0099                 6.0555                 6.2111
 IR Inten    --      0.3345                39.9413                36.9121

                     55                     56                     57
                      A                      A                      A
 Frequencies --   3118.7039              3120.8720              3136.4903
 Red. masses --      1.0953                 1.0954                 1.0894
 Frc consts  --      6.2767                 6.2861                 6.3145
 IR Inten    --     13.9712                16.7510                50.4224

 - Thermochemistry -
 -------------------
 Temperature   298.150 Kelvin.  Pressure   1.00000 Atm.
 Atom     1 has atomic number  6 and mass  12.00000

 Molecular mass:   150.06808 amu.
 Principal axes and moments of inertia in atomic units:
                           1         2         3
     Eigenvalues --  1203.787121659.010852829.53504
           X           -0.63125   0.77352  -0.05649
           Y            0.75474   0.59588  -0.27440
           Z            0.17859   0.21585   0.95995
 This molecule is an asymmetric top.
 Rotational symmetry number  1.
 Warning -- assumption of classical behavior for rotation
           may cause significant error
 Rotational temperatures (Kelvin)      0.07195     0.05221     0.03061
 Rotational constants (GHZ):           1.49922     1.08784     0.63782
 Zero-point vibrational energy     434150.3 (Joules/Mol)
                                  103.76441 (Kcal/Mol)
 Warning -- explicit consideration of  16 degrees of freedom as
           vibrations may cause significant error
 Vibrational temperatures:    116.60   136.18   174.59   188.55   236.17
          (Kelvin)            266.47   394.35   410.96   453.19   479.29
                              544.81   567.77   625.88   698.14   738.89
                              823.81   929.85   974.12  1018.50  1091.96
                             1219.24  1247.50  1343.24  1436.30  1471.55
                             1487.19  1505.19  1518.00  1593.50  1625.99
                             1738.12  1768.27  1903.59  1986.66  1998.41
                             2010.55  2052.45  2101.74  2106.72  2111.82
                             2126.35  2131.35  2131.67  2148.75  2149.43
                             2202.36  2357.83  4324.69  4326.84  4338.45
                             4375.20  4382.59  4399.52  4451.39  4487.12
                             4490.24  4512.71

 Zero-point correction=                           0.165359 (Hartree/Particle)
 Thermal correction to Energy=                    0.176470
 Thermal correction to Enthalpy=                  0.177414
 Thermal correction to Gibbs Free Energy=         0.128237
 Sum of electronic and zero-point Energies=           -499.538734
 Sum of electronic and thermal Energies=              -499.527624
 Sum of electronic and thermal Enthalpies=            -499.526679
 Sum of electronic and thermal Free Energies=         -499.575857

                     E (Thermal)             CV                S
                      KCal/Mol        Cal/Mol-Kelvin    Cal/Mol-Kelvin
 Total                  110.736             41.025            103.502
 Electronic               0.000              0.000              1.377
 Translational            0.889              2.981             40.928
 Rotational               0.889              2.981             30.114
 Vibrational            108.959             35.063             31.083
 Vibration     1          0.600              1.962              3.865
 Vibration     2          0.603              1.953              3.562
 Vibration     3          0.609              1.931              3.079
 Vibration     4          0.612              1.922              2.931
 Vibration     5          0.623              1.886              2.501
 Vibration     6          0.631              1.860              2.275
 Vibration     7          0.676              1.721              1.570
 Vibration     8          0.683              1.700              1.500
 Vibration     9          0.702              1.645              1.336
 Vibration    10          0.715              1.609              1.245
 Vibration    11          0.749              1.516              1.045
 Vibration    12          0.762              1.482              0.983
 Vibration    13          0.796              1.394              0.842
 Vibration    14          0.841              1.283              0.696
 Vibration    15          0.869              1.220              0.625
 Vibration    16          0.929              1.091              0.499

                           ! Non-Optimized Parameters !
 Normal termination of Gaussian 16 at Sat Feb 10 10:39:04 2024.
