 Gaussian 16, Revision A.03,
 Gaussian 16:  ES64L-G16RevA.03 25-Dec-2016

 --------------------------------------
 #P UB3LYP/6-311++G(d,p) nosym opt freq
 --------------------------------------

 -------
 Radical
 -------
 Symbolic Z-matrix:
 Charge = -1 Multiplicity = 2

 SCF Done:  E(UB3LYP) =  -1004.20827984     A.U. after   32 cycles
 SCF Done:  E(UB3LYP) =  -1004.25333938     A.U. after   24 cycles
 SCF Done:  E(UB3LYP) =  -1004.28256597     A.U. after   24 cycles
 SCF Done:  E(UB3LYP) =  -1004.30479256     A.U. after   22 cycles
 SCF Done:  E(UB3LYP) =  -1004.32610352     A.U. after   22 cycles
 SCF Done:  E(UB3LYP) =  -1004.32786462     A.U. after   20 cycles
 SCF Done:  E(UB3LYP) =  -1004.33197362     A.U. after   20 cycles
 SCF Done:  E(UB3LYP) =  -1004.33406972     A.U. after   20 cycles
 SCF Done:  E(UB3LYP) =  -1004.33524580     A.U. after   19 cycles
 SCF Done:  E(UB3LYP) =  -1004.33591943     A.U. after   19 cycles
 SCF Done:  E(UB3LYP) =  -1004.33641402     A.U. after   18 cycles
 SCF Done:  E(UB3LYP) =  -1004.33647016     A.U. after   15 cycles
 SCF Done:  E(UB3LYP) =  -1004.33648986     A.U. after   17 cycles
 SCF Done:  E(UB3LYP) =  -1004.33650336     A.U. after   16 cycles
 SCF Done:  E(UB3LYP) =  -1004.33651132     A.U. after   16 cycles
 SCF Done:  E(UB3LYP) =  -1004.33652195     A.U. after   17 cycles
 SCF Done:  E(UB3LYP) =  -1004.33652366     A.U. after   15 cycles
 SCF Done:  E(UB3LYP) =  -1004.33652423     A.U. after   13 cycles
 SCF Done:  E(UB3LYP) =  -1004.33652440     A.U. after   12 cycles
 Optimization completed.
    -- Stationary point found.
 Normal termination of Gaussian 16 at Thu Dec 21 10:02:11 2023.

 ----------------------------------------------------------------------
 #P Geom=AllCheck Guess=TCheck SCRF=Check GenChk UB3LYP/6-311++G(d,p) F
 req
 ----------------------------------------------------------------------

 Structure from the checkpoint file:  "176-rad.chk"
 -------
 Radical
 -------
 Charge = -1 Multiplicity = 2

                          Input orientation:
 ---------------------------------------------------------------------
 Center     Atomic      Atomic             Coordinates (Angstroms)
 Number     Number       Type             X           Y           Z
 ---------------------------------------------------------------------
      1          7           0       -2.930667   -2.545380   -0.211630
      2          6           0       -2.598176   -1.225116    0.084053
      3          6           0       -3.600930   -0.347575    0.500601
      4          6           0       -3.343943    1.002124    0.710760
      5          6           0       -2.071040    1.544399    0.518516
      6          7           0       -1.894011    2.918747    0.651186
      7          6           0       -0.997813    0.672847    0.155235
      8          6           0        0.358620    1.206260    0.058418
      9          8           0        0.631904    2.435578    0.172036
     10          6           0        1.436151    0.261052   -0.188441
     11          6           0        1.169075   -1.106248   -0.481387
     12          6           0        2.223918   -1.967940   -0.844039
     13          6           0        3.524217   -1.514607   -0.925509
     14          6           0        3.816024   -0.173721   -0.608888
     15          6           0        2.792295    0.664400   -0.226806
     16          7           0        3.237860    2.002226    0.237257
     17          8           0        3.179150    2.232262    1.436466
     18          8           0        3.756030    2.743413   -0.592953
     19          6           0       -0.186609   -1.647278   -0.415181
     20          8           0       -0.368452   -2.881419   -0.641341
     21          6           0       -1.265913   -0.729761   -0.069278
     22          1           0       -3.700796   -2.923028    0.319475
     23          1           0       -2.112057   -3.142505   -0.330367
     24          1           0       -4.610840   -0.728593    0.627114
     25          1           0       -4.155127    1.664593    1.000806
     26          1           0       -2.502427    3.368871    1.318093
     27          1           0       -0.912990    3.198034    0.656885
     28          1           0        1.967053   -2.997238   -1.062063
     29          1           0        4.326723   -2.183953   -1.216014
     30          1           0        4.832770    0.199557   -0.633004
 ---------------------------------------------------------------------

 SCF Done:  E(UB3LYP) =  -1004.33652440     A.U. after    1 cycles

 Alpha  occ. eigenvalues --  -19.04295 -19.04284 -18.96312 -18.96132 -14.43393
 Alpha  occ. eigenvalues --  -14.19488 -14.19257 -10.12165 -10.11588 -10.11549
 Alpha  occ. eigenvalues --  -10.10020 -10.09948 -10.08478 -10.07760 -10.07685
 Alpha  occ. eigenvalues --  -10.07101 -10.06911 -10.06446 -10.06392 -10.06132
 Alpha  occ. eigenvalues --  -10.06076  -1.11736  -0.94380  -0.89286  -0.88972
 Alpha  occ. eigenvalues --   -0.80491  -0.79467  -0.77125  -0.71702  -0.69038
 Alpha  occ. eigenvalues --   -0.67785  -0.63892  -0.60899  -0.58643  -0.55826
 Alpha  occ. eigenvalues --   -0.52990  -0.52517  -0.47268  -0.45771  -0.45216
 Alpha  occ. eigenvalues --   -0.42902  -0.41906  -0.41243  -0.40279  -0.39647
 Alpha  occ. eigenvalues --   -0.37960  -0.36944  -0.36470  -0.35687  -0.34135
 Alpha  occ. eigenvalues --   -0.33524  -0.31645  -0.30931  -0.29518  -0.28765
 Alpha  occ. eigenvalues --   -0.28398  -0.27667  -0.27447  -0.27028  -0.25164
 Alpha  occ. eigenvalues --   -0.24766  -0.24263  -0.22674  -0.20227  -0.19573
 Alpha  occ. eigenvalues --   -0.19413  -0.16611  -0.15413  -0.15003  -0.14299
 Alpha  occ. eigenvalues --   -0.13240  -0.12633  -0.08253  -0.02461
 Alpha virt. eigenvalues --    0.03425   0.06071   0.07399   0.07892   0.08088
 Alpha virt. eigenvalues --    0.08573   0.10216   0.10521   0.11359   0.12166
 Alpha virt. eigenvalues --    0.12702   0.14131   0.14711   0.14814   0.15223

  Beta  occ. eigenvalues --  -19.04282 -19.04264 -18.95821 -18.95611 -14.43373
  Beta  occ. eigenvalues --  -14.19435 -14.19201 -10.12165 -10.11450 -10.11410
  Beta  occ. eigenvalues --  -10.09986 -10.09916 -10.08446 -10.07677 -10.07551
  Beta  occ. eigenvalues --  -10.07136 -10.06791 -10.06452 -10.06395 -10.06029
  Beta  occ. eigenvalues --  -10.05973  -1.11700  -0.94348  -0.88437  -0.88109
  Beta  occ. eigenvalues --   -0.80334  -0.79331  -0.76933  -0.71508  -0.68864
  Beta  occ. eigenvalues --   -0.67443  -0.63717  -0.60596  -0.58474  -0.55291
  Beta  occ. eigenvalues --   -0.52762  -0.52300  -0.47174  -0.45620  -0.45038
  Beta  occ. eigenvalues --   -0.42801  -0.41819  -0.41122  -0.40244  -0.39531
  Beta  occ. eigenvalues --   -0.37836  -0.36776  -0.36316  -0.35565  -0.34013
  Beta  occ. eigenvalues --   -0.33381  -0.30869  -0.30683  -0.29044  -0.28597
  Beta  occ. eigenvalues --   -0.28143  -0.27504  -0.27180  -0.25495  -0.24900
  Beta  occ. eigenvalues --   -0.24605  -0.23174  -0.21881  -0.20094  -0.19468
  Beta  occ. eigenvalues --   -0.19175  -0.15625  -0.14512  -0.14102  -0.13519
  Beta  occ. eigenvalues --   -0.12792  -0.12168  -0.07208
  Beta virt. eigenvalues --    0.02758   0.03812   0.06788   0.07407   0.08039
  Beta virt. eigenvalues --    0.08481   0.09130   0.10226   0.10539   0.11689
  Beta virt. eigenvalues --    0.12248   0.12731   0.14203   0.14918   0.15021

 Mulliken charges and spin densities:
               1          2
     1  N   -0.383465   0.022540
     2  C   -0.076613   0.034647
     3  C   -0.391911   0.080136
     4  C   -0.293438   0.082072
     5  C   -0.128466   0.034401
     6  N   -0.379384   0.024113
     7  C    0.456603  -0.003855
     8  C   -0.557742   0.061061
     9  O   -0.317571   0.193424
    10  C    0.317570   0.082039
    11  C    0.550750   0.070555
    12  C   -0.225704  -0.007732
    13  C   -0.435280   0.072692
    14  C   -0.017215   0.020442
    15  C   -0.276051   0.015444
    16  N   -0.201098   0.006032
    17  O    0.013584   0.003814
    18  O   -0.001849   0.007711
    19  C   -0.533485   0.060284
    20  O   -0.373436   0.179468
    21  C    0.524782  -0.011807
    22  H    0.210026  -0.001437
    23  H    0.300925  -0.002800
    24  H    0.109891  -0.006223
    25  H    0.114307  -0.006314
    26  H    0.209862  -0.001730
    27  H    0.309565  -0.002718
    28  H    0.163929   0.000945
    29  H    0.143376  -0.004919
    30  H    0.167536  -0.002284
 Sum of Mulliken charges =  -1.00000   1.00000

 Dipole moment (field-independent basis, Debye):
    X=             -3.5052    Y=             -3.3017    Z=              1.4603  Tot=              5.0319
 Quadrupole moment (field-independent basis, Debye-Ang):
   XX=           -142.8208   YY=           -156.2349   ZZ=           -131.2796
   XY=            -19.1013   XZ=             -8.3799   YZ=             -2.9494

  Exact polarizability: 380.266  15.499 277.190 -37.470  33.444 132.681
 Approx polarizability: 591.654  25.796 506.630 -67.522  59.930 236.894

                      1                      2                      3
                      A                      A                      A
 Frequencies --     26.8146                49.7290                71.0035
 Red. masses --     10.6408                 6.4883                 7.4732
 Frc consts  --      0.0045                 0.0095                 0.0222
 IR Inten    --      0.8072                 6.5490                 3.7601

                      4                      5                      6
                      A                      A                      A
 Frequencies --    102.5175               127.2156               151.0959
 Red. masses --     10.6986                 4.3314                 8.9033
 Frc consts  --      0.0662                 0.0413                 0.1198
 IR Inten    --      2.7332                 3.0959                 0.2798

                      7                      8                      9
                      A                      A                      A
 Frequencies --    171.8552               182.5532               233.3347
 Red. masses --      5.9725                 8.8208                 5.7515
 Frc consts  --      0.1039                 0.1732                 0.1845
 IR Inten    --      0.7231                 0.2334                 1.1212

                     10                     11                     12
                      A                      A                      A
 Frequencies --    250.6488               317.7461               324.8575
 Red. masses --      5.5682                 3.1552                 4.8486
 Frc consts  --      0.2061                 0.1877                 0.3015
 IR Inten    --      7.8335                33.9960                19.9582

                     13                     14                     15
                      A                      A                      A
 Frequencies --    326.8503               367.3032               383.6997
 Red. masses --      3.3522                 7.4854                 2.2792
 Frc consts  --      0.2110                 0.5950                 0.1977
 IR Inten    --     54.8242                11.8086                66.9975

                     16                     17                     18
                      A                      A                      A
 Frequencies --    397.3978               399.6914               408.8218
 Red. masses --      4.3404                 2.8411                 3.6526
 Frc consts  --      0.4039                 0.2674                 0.3597
 IR Inten    --     28.1358                56.9642                27.5836

                     19                     20                     21
                      A                      A                      A
 Frequencies --    409.5642               419.5055               444.3931
 Red. masses --      2.7973                 4.0979                 5.7580
 Frc consts  --      0.2765                 0.4249                 0.6700
 IR Inten    --     49.3973                28.1333                59.7213

                     22                     23                     24
                      A                      A                      A
 Frequencies --    472.0962               488.5585               498.6336
 Red. masses --      4.3473                 3.7155                 4.7530
 Frc consts  --      0.5709                 0.5225                 0.6963
 IR Inten    --      8.4039                 0.0051                 0.7635

                     25                     26                     27
                      A                      A                      A
 Frequencies --    520.7889               573.5841               601.3264
 Red. masses --      7.1287                 3.9842                 5.1953
 Frc consts  --      1.1392                 0.7723                 1.1068
 IR Inten    --      3.8554                23.8154                34.9631

                     28                     29                     30
                      A                      A                      A
 Frequencies --    609.4877               664.4990               703.8194
 Red. masses --      4.1794                 4.4718                 6.0216
 Frc consts  --      0.9147                 1.1634                 1.7575
 IR Inten    --     19.0889                 5.1971                11.6393

                     31                     32                     33
                      A                      A                      A
 Frequencies --    712.1583               715.9847               724.5310
 Red. masses --      2.2520                 3.0901                 2.5443
 Frc consts  --      0.6729                 0.9333                 0.7869
 IR Inten    --     44.9194                38.6945               101.1013

                     34                     35                     36
                      A                      A                      A
 Frequencies --    737.4951               746.6569               764.8315
 Red. masses --      1.7393                 4.1173                 2.7741
 Frc consts  --      0.5574                 1.3524                 0.9561
 IR Inten    --    131.7997                 7.9871                25.1503

                     37                     38                     39
                      A                      A                      A
 Frequencies --    780.0898               790.1858               802.3346
 Red. masses --      2.5488                 3.5419                 2.0507
 Frc consts  --      0.9139                 1.3030                 0.7778
 IR Inten    --     20.0421                16.0343                54.9752

                     40                     41                     42
                      A                      A                      A
 Frequencies --    817.5262               853.7606               885.0462
 Red. masses --      3.9275                 9.9126                 1.3849
 Frc consts  --      1.5466                 4.2571                 0.6391
 IR Inten    --      5.5487                17.7371                 0.6751

                     43                     44                     45
                      A                      A                      A
 Frequencies --    900.5227               904.7859               951.9169
 Red. masses --      4.1975                 1.6091                 7.1160
 Frc consts  --      2.0056                 0.7761                 3.7991
 IR Inten    --      5.5822                 0.2867                 3.0042

                     46                     47                     48
                      A                      A                      A
 Frequencies --    966.9303               988.7164              1053.3227
 Red. masses --      5.4523                 1.3158                 2.6960
 Frc consts  --      3.0034                 0.7578                 1.7624
 IR Inten    --     22.9949                 1.0834                12.4929

                     49                     50                     51
                      A                      A                      A
 Frequencies --   1085.5973              1143.9636              1151.1230
 Red. masses --      1.8022                 1.7089                 1.5355
 Frc consts  --      1.2514                 1.3176                 1.1988
 IR Inten    --     24.2539                74.2924                34.1967

                     52                     53                     54
                      A                      A                      A
 Frequencies --   1162.5617              1184.8039              1189.3379
 Red. masses --      2.0859                 1.8068                 1.5270
 Frc consts  --      1.6611                 1.4944                 1.2726
 IR Inten    --     30.8864                24.3525                34.1800

                     55                     56                     57
                      A                      A                      A
 Frequencies --   1231.8914              1239.2538              1277.9568
 Red. masses --      2.9967                 2.9711                 5.4056
 Frc consts  --      2.6794                 2.6883                 5.2015
 IR Inten    --     60.8443                34.1462                12.0027

                     58                     59                     60
                      A                      A                      A
 Frequencies --   1304.8078              1348.3657              1355.8911
 Red. masses --      2.3127                 6.6147                 8.2788
 Frc consts  --      2.3198                 7.0856                 8.9674
 IR Inten    --      2.9119               267.5227               156.3608

                     61                     62                     63
                      A                      A                      A
 Frequencies --   1371.8581              1384.3642              1415.8864
 Red. masses --      3.6082                13.4627                 2.8396
 Frc consts  --      4.0009                15.2013                 3.3540
 IR Inten    --     41.0498               301.1965               271.8687

                     64                     65                     66
                      A                      A                      A
 Frequencies --   1425.4309              1453.1014              1473.9178
 Red. masses --      3.4061                 3.5525                 3.2702
 Frc consts  --      4.0775                 4.4196                 4.1858
 IR Inten    --     79.0654                 9.3651                48.3026

                     67                     68                     69
                      A                      A                      A
 Frequencies --   1504.3879              1529.6443              1559.2421
 Red. masses --      3.4237                 5.3820                 3.7423
 Frc consts  --      4.5653                 7.4195                 5.3607
 IR Inten    --      5.9534               800.2104                79.2718

                     70                     71                     72
                      A                      A                      A
 Frequencies --   1573.4615              1592.5201              1603.4161
 Red. masses --     13.0339                 2.7664                 2.0500
 Frc consts  --     19.0124                 4.1337                 3.1052
 IR Inten    --    329.8065               128.9901                 1.8049

                     73                     74                     75
                      A                      A                      A
 Frequencies --   1611.6293              1618.5708              1635.5481
 Red. masses --      1.7506                 2.9481                 6.7769
 Frc consts  --      2.6790                 4.5504                10.6809
 IR Inten    --     32.8471               108.7073                96.8215

                     76                     77                     78
                      A                      A                      A
 Frequencies --   3127.6394              3147.9438              3159.7131
 Red. masses --      1.0849                 1.0935                 1.0868
 Frc consts  --      6.2526                 6.3846                 6.3929
 IR Inten    --     35.9493                59.4056                18.9388

                     79                     80                     81
                      A                      A                      A
 Frequencies --   3186.9060              3196.0353              3389.0099
 Red. masses --      1.0918                 1.0931                 1.0604
 Frc consts  --      6.5331                 6.5785                 7.1760
 IR Inten    --      6.9794                16.8808                59.2815

                     82                     83                     84
                      A                      A                      A
 Frequencies --   3392.4725              3626.7371              3628.9242
 Red. masses --      1.0604                 1.0874                 1.0875
 Frc consts  --      7.1906                 8.4270                 8.4380
 IR Inten    --     68.3698                17.2040                20.3745

 - Thermochemistry -
 -------------------
 Temperature   298.150 Kelvin.  Pressure   1.00000 Atm.
 Atom     1 has atomic number  7 and mass  14.00307

 Molecular mass:   283.05931 amu.
 Principal axes and moments of inertia in atomic units:
                           1         2         3
     Eigenvalues --  3451.179726751.034429922.57211
           X            0.95708  -0.26382   0.11999
           Y            0.28537   0.93015  -0.23107
           Z           -0.05065   0.25539   0.96551
 This molecule is an asymmetric top.
 Rotational symmetry number  1.
 Warning -- assumption of classical behavior for rotation
           may cause significant error
 Rotational temperatures (Kelvin)      0.02510     0.01283     0.00873
 Rotational constants (GHZ):           0.52293     0.26733     0.18188
 Zero-point vibrational energy     556742.7 (Joules/Mol)
                                  133.06469 (Kcal/Mol)
 Warning -- explicit consideration of  28 degrees of freedom as
           vibrations may cause significant error
 Vibrational temperatures:     38.58    71.55   102.16   147.50   183.03
          (Kelvin)            217.39   247.26   262.65   335.72   360.63
                              457.17   467.40   470.26   528.47   552.06
                              571.77   575.07   588.20   589.27   603.57
                              639.38   679.24   702.93   717.42   749.30
                              825.26   865.17   876.92   956.07  1012.64
                             1024.64  1030.14  1042.44  1061.09  1074.27
                             1100.42  1122.38  1136.90  1154.38  1176.24
                             1228.37  1273.38  1295.65  1301.79  1369.60
                             1391.20  1422.54  1515.50  1561.93  1645.91
                             1656.21  1672.67  1704.67  1711.19  1772.42
                             1783.01  1838.69  1877.33  1940.00  1950.82
                             1973.80  1991.79  2037.14  2050.88  2090.69
                             2120.64  2164.48  2200.82  2243.40  2263.86
                             2291.28  2306.96  2318.78  2328.76  2353.19
                             4499.98  4529.19  4546.12  4585.25  4598.38
                             4876.03  4881.01  5218.07  5221.21

 Zero-point correction=                           0.212052 (Hartree/Particle)
 Thermal correction to Energy=                    0.228475
 Thermal correction to Enthalpy=                  0.229419
 Thermal correction to Gibbs Free Energy=         0.167336
 Sum of electronic and zero-point Energies=          -1004.124472
 Sum of electronic and thermal Energies=             -1004.108049
 Sum of electronic and thermal Enthalpies=           -1004.107105
 Sum of electronic and thermal Free Energies=        -1004.169188

                     E (Thermal)             CV                S
                      KCal/Mol        Cal/Mol-Kelvin    Cal/Mol-Kelvin
 Total                  143.370             65.753            130.665
 Electronic               0.000              0.000              1.377
 Translational            0.889              2.981             42.819
 Rotational               0.889              2.981             33.802
 Vibrational            141.593             59.792             52.666
 Vibration     1          0.593              1.984              6.052
 Vibration     2          0.595              1.978              4.828
 Vibration     3          0.598              1.968              4.125
 Vibration     4          0.605              1.947              3.406
 Vibration     5          0.611              1.926              2.988
 Vibration     6          0.619              1.901              2.658
 Vibration     7          0.626              1.877              2.415
 Vibration     8          0.630              1.864              2.302
 Vibration     9          0.654              1.790              1.853
 Vibration    10          0.663              1.762              1.726
 Vibration    11          0.704              1.640              1.322
 Vibration    12          0.709              1.626              1.286
 Vibration    13          0.711              1.622              1.276
 Vibration    14          0.740              1.539              1.091
 Vibration    15          0.753              1.505              1.025
 Vibration    16          0.764              1.476              0.972
 Vibration    17          0.766              1.471              0.964
 Vibration    18          0.773              1.451              0.931
 Vibration    19          0.774              1.449              0.928
 Vibration    20          0.782              1.428              0.894
 Vibration    21          0.804              1.373              0.813
 Vibration    22          0.829              1.312              0.732
 Vibration    23          0.844              1.275              0.687
 Vibration    24          0.854              1.253              0.662
 Vibration    25          0.876              1.204              0.608
 Vibration    26          0.930              1.088              0.497
 Vibration    27          0.960              1.029              0.447
 Vibration    28          0.968              1.012              0.434

                           ! Non-Optimized Parameters !
 Normal termination of Gaussian 16 at Thu Dec 21 11:35:36 2023.
