 Q-Chem 5.4, Q-Chem, Inc., Pleasanton, CA (2021)
 Q-Chem 5.4.0 for Intel X86 EM64T Linux

User input:
--------------------------------------------------------------
$molecule
-1 2
C                 -0.5680230000      2.0890170000     -0.0875010000
C                 -1.8041910000      1.3012570000     -0.0651660000
C                 -1.7498390000     -0.0784790000      0.0001810000
C                 -0.4650970000     -0.7708900000      0.0472800000
C                  0.7665360000      0.0131650000      0.0233930000
C                  0.7215360000      1.3933010000     -0.0408780000
O                 -0.6136530000      3.3567890000     -0.1471290000
O                 -0.4194350000     -2.0396400000      0.1078100000
C                  1.9319270000      2.3319590000     -0.0715790000
C                  2.7760300000      2.3283650000      1.2190170000
C                  2.7989090000      2.2130590000     -1.3413520000
C                  2.0814770000     -0.7663140000      0.0723850000
C                  2.2558610000     -1.5601870000      1.3839140000
C                  2.2804460000     -1.6781990000     -1.1563530000
C                 -3.0789510000      2.1492830000     -0.1204050000
C                 -3.9427270000      2.0865740000      1.1555710000
C                 -3.9127840000      1.9653000000     -1.4045080000
C                 -3.0053710000     -0.9513950000      0.0261790000
C                 -3.1151860000     -1.8745910000     -1.2052900000
C                 -3.1455970000     -1.7567890000      1.3348440000
H                  1.4755590000      3.3225980000     -0.1202980000
H                  3.5121650000      3.1417290000      1.1898750000
H                  3.3229700000      1.3955970000      1.3803580000
H                  2.1351780000      2.4907740000      2.0903500000
H                  3.3443830000      1.2680960000     -1.4102660000
H                  3.5379490000      3.0237990000     -1.3704740000
H                  2.1742370000      2.3001310000     -2.2349320000
H                  2.8917930000     -0.0401530000      0.0462450000
H                  2.1757660000     -0.8977220000      2.2517210000
H                  3.2453300000     -2.0345940000      1.4122290000
H                  1.4905010000     -2.3318190000      1.4669100000
H                  1.5163040000     -2.4550380000     -1.1824200000
H                  3.2699150000     -2.1521610000     -1.1213690000
H                  2.2178070000     -1.0990990000     -2.0832400000
H                 -2.6949900000      3.1703870000     -0.1642700000
H                 -4.7373520000      2.8421070000      1.1102750000
H                 -3.3309500000      2.2996320000      2.0368320000
H                 -4.4204810000      1.1156980000      1.3118280000
H                 -4.7062210000      2.7220710000     -1.4501880000
H                 -4.3895270000      0.9842560000     -1.4785260000
H                 -3.2801700000      2.0929420000     -2.2875630000
H                 -3.8656440000     -0.2859340000     -0.0148210000
H                 -4.0685100000     -2.4184660000     -1.1887020000
H                 -2.2967480000     -2.5943980000     -1.2159540000
H                 -3.0765450000     -1.2920250000     -2.1313060000
H                 -4.0986360000     -2.3013320000      1.3454170000
H                 -3.1293430000     -1.0910350000      2.2036880000
H                 -2.3282720000     -2.4713370000      1.4321870000
$end
$rem
MAX_SCF_CYCLES=200
BASIS  =  6-311++G(d,p)
GUI  =  2
JOB_TYPE  =  SP
METHOD  =  B3LYP
SOLVENT_METHOD = PCM
$end
$pcm
theory = CPCM
$end
$solvent
dielectric 37.219
opticaldielectric 1.43
$end

--------------------------------------------------------------

             Standard Nuclear Orientation (Angstroms)
    I     Atom           X                Y                Z
 ----------------------------------------------------------------
    1      C      -0.5680230000     2.0890170000    -0.0875010000
    2      C      -1.8041910000     1.3012570000    -0.0651660000
    3      C      -1.7498390000    -0.0784790000     0.0001810000
    4      C      -0.4650970000    -0.7708900000     0.0472800000
    5      C       0.7665360000     0.0131650000     0.0233930000
    6      C       0.7215360000     1.3933010000    -0.0408780000
    7      O      -0.6136530000     3.3567890000    -0.1471290000
    8      O      -0.4194350000    -2.0396400000     0.1078100000
    9      C       1.9319270000     2.3319590000    -0.0715790000
   10      C       2.7760300000     2.3283650000     1.2190170000
   11      C       2.7989090000     2.2130590000    -1.3413520000
   12      C       2.0814770000    -0.7663140000     0.0723850000
   13      C       2.2558610000    -1.5601870000     1.3839140000
   14      C       2.2804460000    -1.6781990000    -1.1563530000
   15      C      -3.0789510000     2.1492830000    -0.1204050000
   16      C      -3.9427270000     2.0865740000     1.1555710000
   17      C      -3.9127840000     1.9653000000    -1.4045080000
   18      C      -3.0053710000    -0.9513950000     0.0261790000
   19      C      -3.1151860000    -1.8745910000    -1.2052900000
   20      C      -3.1455970000    -1.7567890000     1.3348440000
   21      H       1.4755590000     3.3225980000    -0.1202980000
   22      H       3.5121650000     3.1417290000     1.1898750000
   23      H       3.3229700000     1.3955970000     1.3803580000
   24      H       2.1351780000     2.4907740000     2.0903500000
   25      H       3.3443830000     1.2680960000    -1.4102660000
   26      H       3.5379490000     3.0237990000    -1.3704740000
   27      H       2.1742370000     2.3001310000    -2.2349320000
   28      H       2.8917930000    -0.0401530000     0.0462450000
   29      H       2.1757660000    -0.8977220000     2.2517210000
   30      H       3.2453300000    -2.0345940000     1.4122290000
   31      H       1.4905010000    -2.3318190000     1.4669100000
   32      H       1.5163040000    -2.4550380000    -1.1824200000
   33      H       3.2699150000    -2.1521610000    -1.1213690000
   34      H       2.2178070000    -1.0990990000    -2.0832400000
   35      H      -2.6949900000     3.1703870000    -0.1642700000
   36      H      -4.7373520000     2.8421070000     1.1102750000
   37      H      -3.3309500000     2.2996320000     2.0368320000
   38      H      -4.4204810000     1.1156980000     1.3118280000
   39      H      -4.7062210000     2.7220710000    -1.4501880000
   40      H      -4.3895270000     0.9842560000    -1.4785260000
   41      H      -3.2801700000     2.0929420000    -2.2875630000
   42      H      -3.8656440000    -0.2859340000    -0.0148210000
   43      H      -4.0685100000    -2.4184660000    -1.1887020000
   44      H      -2.2967480000    -2.5943980000    -1.2159540000
   45      H      -3.0765450000    -1.2920250000    -2.1313060000
   46      H      -4.0986360000    -2.3013320000     1.3454170000
   47      H      -3.1293430000    -1.0910350000     2.2036880000
   48      H      -2.3282720000    -2.4713370000     1.4321870000
 ----------------------------------------------------------------

    8    -853.5935949416      5.91e-06  Convergence criterion met
 Total energy in the final basis set =     -853.5935949416

                    Orbital Energies (a.u.)
 --------------------------------------------------------------

 Alpha MOs
 -- Occupied --
-19.0661 -19.0580 -10.2079 -10.2046 -10.1600 -10.1600 -10.1572 -10.1572
-10.1564 -10.1564 -10.1558 -10.1557 -10.1470 -10.1470 -10.1470 -10.1470
-10.1413 -10.1413 -10.1413 -10.1413  -0.9902  -0.9834  -0.8250  -0.8074
 -0.7749  -0.7725  -0.7531  -0.7021  -0.6746  -0.6744  -0.6679  -0.6675
 -0.6614  -0.6222  -0.5929  -0.5668  -0.5508  -0.5280  -0.5176  -0.4797
 -0.4567  -0.4480  -0.4332  -0.4290  -0.4215  -0.4208  -0.4196  -0.4127
 -0.4014  -0.4007  -0.3997  -0.3959  -0.3952  -0.3898  -0.3886  -0.3740
 -0.3721  -0.3685  -0.3665  -0.3467  -0.3401  -0.3347  -0.3329  -0.3296
 -0.3285  -0.3278  -0.3270  -0.3230  -0.3192  -0.3107  -0.2981  -0.2974
 -0.2588  -0.2308  -0.2258  -0.2127  -0.1473

 Beta MOs
 -- Occupied --
-19.0599 -19.0516 -10.2059 -10.2028 -10.1601 -10.1601 -10.1573 -10.1572
-10.1555 -10.1554 -10.1547 -10.1547 -10.1469 -10.1469 -10.1469 -10.1469
-10.1412 -10.1412 -10.1412 -10.1412  -0.9791  -0.9719  -0.8208  -0.8063
 -0.7745  -0.7715  -0.7507  -0.7004  -0.6744  -0.6743  -0.6677  -0.6673
 -0.6525  -0.6203  -0.5911  -0.5646  -0.5503  -0.5263  -0.5140  -0.4781
 -0.4556  -0.4456  -0.4330  -0.4282  -0.4214  -0.4194  -0.4130  -0.4119
 -0.4004  -0.4000  -0.3974  -0.3955  -0.3900  -0.3860  -0.3831  -0.3739
 -0.3712  -0.3684  -0.3541  -0.3389  -0.3342  -0.3332  -0.3322  -0.3274
 -0.3272  -0.3267  -0.3258  -0.3185  -0.3148  -0.3092  -0.2973  -0.2965
 -0.2302  -0.2254  -0.2189  -0.2076

          Ground-State Mulliken Net Atomic Charges

     Atom                 Charge (a.u.)    Spin (a.u.)
  --------------------------------------------------------
      1 C                    -1.193933       0.135495
      2 C                     0.518828       0.055141
      3 C                     0.285896       0.083526
      4 C                    -0.610415       0.126248
      5 C                     0.290458       0.083570
      6 C                     0.520405       0.055168
      7 O                    -0.449624       0.231148
      8 O                    -0.417635       0.242245
      9 C                     0.206128      -0.004341
     10 C                    -0.748161       0.003320
     11 C                    -0.747252       0.003377
     12 C                     0.666430      -0.025433
     13 C                    -0.765619       0.010602
     14 C                    -0.765367       0.010544
     15 C                     0.202321      -0.004375
     16 C                    -0.747313       0.003329
     17 C                    -0.747704       0.003326
     18 C                     0.671422      -0.025424
     19 C                    -0.765591       0.010524
     20 C                    -0.766128       0.010617
     21 H                     0.196214      -0.002759
     22 H                     0.155096       0.000126
     23 H                     0.153043       0.000022
     24 H                     0.157284      -0.000056
     25 H                     0.153588       0.000007
     26 H                     0.154940       0.000125
     27 H                     0.157087      -0.000066
     28 H                     0.143419      -0.001113
     29 H                     0.129992      -0.000018
     30 H                     0.157857       0.000244
     31 H                     0.167629      -0.000535
     32 H                     0.167460      -0.000540
     33 H                     0.157956       0.000263
     34 H                     0.129682      -0.000014
     35 H                     0.196175      -0.002757
     36 H                     0.155086       0.000128
     37 H                     0.157365      -0.000061
     38 H                     0.153252       0.000027
     39 H                     0.154927       0.000115
     40 H                     0.153327       0.000009
     41 H                     0.157233      -0.000065
     42 H                     0.143636      -0.001111
     43 H                     0.158027       0.000263
     44 H                     0.167117      -0.000538
     45 H                     0.129960      -0.000007
     46 H                     0.158023       0.000253
     47 H                     0.130072      -0.000011
     48 H                     0.167406      -0.000538
  --------------------------------------------------------
  Sum of atomic charges =    -1.000000

                    Cartesian Multipole Moments
 -----------------------------------------------------------------
    Charge (ESU x 10^10)
                -4.8032
    Dipole Moment (Debye)
         X       2.4733      Y      -2.9180      Z       0.0802
       Tot       3.8260
    Quadrupole Moments (Debye-Ang)
        XX    -133.6204     XY       2.8759     YY    -172.1685
        XZ      -0.0801     YZ       1.7324     ZZ    -134.8615

 Total job time:  178.37s(wall), 1041.49s(cpu)
        *  Thank you very much for using Q-Chem.  Have a nice day.  *
