 Gaussian 16, Revision A.03,
 Gaussian 16:  ES64L-G16RevA.03 25-Dec-2016

 ----------------------------------------------------------------
 #P UB3LYP/6-311++G(d,p) SCRF=(PCM,Solvent=n,n-DiMethylFormamide)
 ----------------------------------------------------------------

 -------
 Reduced
 -------
 Symbolic Z-matrix:
 Charge = -2 Multiplicity = 1

                         Standard orientation:
 ---------------------------------------------------------------------
 Center     Atomic      Atomic             Coordinates (Angstroms)
 Number     Number       Type             X           Y           Z
 ---------------------------------------------------------------------
      1          6           0       -0.695198    1.309338   -0.729286
      2          6           0        0.727226    1.201917   -0.741614
      3          6           0        1.401200   -0.016927   -0.701992
      4          6           0        0.686067   -1.275904   -0.736429
      5          6           0       -0.737738   -1.167002   -0.761149
      6          6           0       -1.409819    0.052805   -0.726416
      7          8           0       -1.338263    2.439058   -0.738829
      8          8           0        1.329642   -2.401954   -0.780030
      9          7           0       -2.840368    0.172629   -0.769664
     10          7           0        2.833411   -0.136666   -0.763065
     11          6           0       -3.638037   -0.178504    0.441957
     12          6           0       -5.029811    0.444157    0.235107
     13          6           0       -3.789581   -1.703416    0.564350
     14          6           0       -3.019277    0.383907    1.741351
     15          6           0        3.645296    0.154810    0.442454
     16          6           0        3.683940    1.667991    0.716986
     17          6           0        5.073566   -0.330335    0.131277
     18          6           0        3.110847   -0.581666    1.693022
     19          1           0        1.285539    2.132618   -0.787690
     20          1           0       -1.294154   -2.095457   -0.852493
     21          1           0       -2.963145    1.179906   -0.914556
     22          1           0        2.956657   -1.134323   -0.964901
     23          1           0       -4.958198    1.535275    0.170922
     24          1           0       -5.703596    0.198128    1.064748
     25          1           0       -5.474585    0.075639   -0.695163
     26          1           0       -4.213551   -2.115898   -0.356855
     27          1           0       -4.450984   -1.958789    1.402442
     28          1           0       -2.821035   -2.176560    0.734983
     29          1           0       -2.878667    1.464791    1.653482
     30          1           0       -2.037530   -0.063292    1.916425
     31          1           0       -3.661644    0.173448    2.607584
     32          1           0        2.690635    2.041684    0.970564
     33          1           0        4.033244    2.203302   -0.171426
     34          1           0        4.362835    1.888163    1.550544
     35          1           0        5.467879    0.188860   -0.748296
     36          1           0        5.078658   -1.405270   -0.080845
     37          1           0        5.748957   -0.148366    0.975247
     38          1           0        2.077408   -0.280455    1.882938
     39          1           0        3.714670   -0.357443    2.582332
     40          1           0        3.106201   -1.661553    1.522276
 ---------------------------------------------------------------------

 SCF Done:  E(UB3LYP) =  -807.151083548     A.U. after   18 cycles

 The electronic state is 1-A.
 Alpha  occ. eigenvalues --  -19.00862 -19.00853 -14.26838 -14.26763 -10.19196
 Alpha  occ. eigenvalues --  -10.19132 -10.15501 -10.15434 -10.14633 -10.14590
 Alpha  occ. eigenvalues --  -10.14154 -10.14127 -10.13947 -10.13890 -10.13870
 Alpha  occ. eigenvalues --  -10.13857 -10.10863 -10.10834  -0.92874  -0.92405
 Alpha  occ. eigenvalues --   -0.87790  -0.87635  -0.77690  -0.76479  -0.73459
 Alpha  occ. eigenvalues --   -0.68086  -0.67503  -0.67137  -0.67103  -0.66337
 Alpha  occ. eigenvalues --   -0.61960  -0.56440  -0.53120  -0.53023  -0.50212
 Alpha  occ. eigenvalues --   -0.46556  -0.45069  -0.44976  -0.43637  -0.42987
 Alpha  occ. eigenvalues --   -0.42926  -0.41698  -0.40413  -0.39610  -0.38868
 Alpha  occ. eigenvalues --   -0.38193  -0.37739  -0.37200  -0.36637  -0.35884
 Alpha  occ. eigenvalues --   -0.35311  -0.35245  -0.34866  -0.34715  -0.34173
 Alpha  occ. eigenvalues --   -0.33142  -0.32447  -0.32123  -0.31064  -0.30891
 Alpha  occ. eigenvalues --   -0.30334  -0.30040  -0.25018  -0.23646  -0.19723
 Alpha  occ. eigenvalues --   -0.19460  -0.18812  -0.17107  -0.10205
 Alpha virt. eigenvalues --   -0.00263   0.00356   0.01508   0.01602   0.02193
 Alpha virt. eigenvalues --    0.02656   0.02747   0.03479   0.03769   0.04030
 Alpha virt. eigenvalues --    0.04141   0.04490   0.04632   0.05171   0.05591

  Beta  occ. eigenvalues --  -19.00862 -19.00853 -14.26838 -14.26763 -10.19196
  Beta  occ. eigenvalues --  -10.19132 -10.15501 -10.15434 -10.14633 -10.14590
  Beta  occ. eigenvalues --  -10.14154 -10.14127 -10.13947 -10.13890 -10.13870
  Beta  occ. eigenvalues --  -10.13857 -10.10863 -10.10834  -0.92874  -0.92405
  Beta  occ. eigenvalues --   -0.87790  -0.87635  -0.77690  -0.76479  -0.73459
  Beta  occ. eigenvalues --   -0.68086  -0.67503  -0.67137  -0.67103  -0.66337
  Beta  occ. eigenvalues --   -0.61960  -0.56440  -0.53120  -0.53023  -0.50212
  Beta  occ. eigenvalues --   -0.46556  -0.45069  -0.44976  -0.43637  -0.42987
  Beta  occ. eigenvalues --   -0.42926  -0.41698  -0.40413  -0.39610  -0.38868
  Beta  occ. eigenvalues --   -0.38193  -0.37739  -0.37200  -0.36637  -0.35884
  Beta  occ. eigenvalues --   -0.35311  -0.35245  -0.34866  -0.34715  -0.34173
  Beta  occ. eigenvalues --   -0.33142  -0.32447  -0.32123  -0.31064  -0.30891
  Beta  occ. eigenvalues --   -0.30334  -0.30040  -0.25018  -0.23646  -0.19723
  Beta  occ. eigenvalues --   -0.19460  -0.18812  -0.17107  -0.10205
  Beta virt. eigenvalues --   -0.00263   0.00356   0.01508   0.01602   0.02193
  Beta virt. eigenvalues --    0.02656   0.02747   0.03479   0.03769   0.04030
  Beta virt. eigenvalues --    0.04141   0.04490   0.04632   0.05171   0.05591

 Mulliken charges and spin densities:
               1          2
     1  C   -0.298012   0.000000
     2  C   -0.168623  -0.000000
     3  C   -0.040924  -0.000000
     4  C   -0.357963   0.000000
     5  C   -0.173829  -0.000000
     6  C    0.034079   0.000000
     7  O   -0.717025  -0.000000
     8  O   -0.710971  -0.000000
     9  N    0.077379  -0.000000
    10  N    0.101411   0.000000
    11  C    0.034495  -0.000000
    12  C   -0.478410   0.000000
    13  C   -0.579431  -0.000000
    14  C   -0.489884   0.000000
    15  C   -0.001311   0.000000
    16  C   -0.572845  -0.000000
    17  C   -0.462188   0.000000
    18  C   -0.472808  -0.000000
    19  H    0.142720   0.000000
    20  H    0.138666   0.000000
    21  H    0.228952  -0.000000
    22  H    0.226902  -0.000000
    23  H    0.145102   0.000000
    24  H    0.137840  -0.000000
    25  H    0.138968   0.000000
    26  H    0.146434  -0.000000
    27  H    0.131410   0.000000
    28  H    0.133771  -0.000000
    29  H    0.147985  -0.000000
    30  H    0.142784  -0.000000
    31  H    0.148316   0.000000
    32  H    0.139553   0.000000
    33  H    0.143448   0.000000
    34  H    0.131891  -0.000000
    35  H    0.140922   0.000000
    36  H    0.141024   0.000000
    37  H    0.138302  -0.000000
    38  H    0.138696  -0.000000
    39  H    0.144684  -0.000000
    40  H    0.148489   0.000000
 Sum of Mulliken charges =  -2.00000   0.00000

 Dipole moment (field-independent basis, Debye):
    X=              0.0327    Y=             -0.2642    Z=              9.2312  Tot=              9.2350
 Quadrupole moment (field-independent basis, Debye-Ang):
   XX=           -147.6312   YY=           -168.5043   ZZ=           -133.8368
   XY=             18.8198   XZ=             -0.2044   YZ=              0.0133

 Normal termination of Gaussian 16 at Wed Jan 24 22:58:32 2024.
