 Q-Chem 5.4, Q-Chem, Inc., Pleasanton, CA (2021)
 Q-Chem 5.4.0 for Intel X86 EM64T Linux

User input:
--------------------------------------------------------------
$molecule
-1 2
C                 -2.2423380000      3.2265720000      4.1201040000
C                 -3.4673690000      2.6687570000      4.3917830000
C                 -3.9038660000      1.5331800000      3.6795740000
C                 -3.0979880000      0.9686160000      2.6991420000
C                 -1.8107940000      1.5196750000      2.3890060000
C                 -1.4006160000      2.6754760000      3.1260920000
C                 -0.1182190000      3.3425820000      2.9019260000
C                 -0.9235710000      0.9416450000      1.3740540000
C                  0.7495030000      2.8020550000      1.8686280000
C                  0.3673780000      1.6291970000      1.1538770000
C                  2.0207410000      3.4041640000      1.5697720000
C                  2.8593190000      2.8093690000      0.6257440000
C                  2.4678390000      1.6471710000     -0.0522940000
C                  1.2381170000      1.0694230000      0.1979570000
O                  0.1990580000      4.3513260000      3.6105010000
O                 -1.1999940000     -0.0802360000      0.7083490000
N                  2.3947630000      4.5908210000      2.1811890000
O                 -3.4980420000     -0.1294800000      1.9915810000
C                 -4.7565900000     -0.6981940000      2.2678120000
H                 -1.8804740000      4.0993490000      4.6478620000
H                 -4.1114850000      3.0966050000      5.1544370000
H                 -4.8729320000      1.1099320000      3.9058010000
H                  3.8176360000      3.2747120000      0.4088640000
H                  3.1385370000      1.2062690000     -0.7846820000
H                  0.9080030000      0.1775520000     -0.3184800000
H                  1.8064240000      4.8283160000      2.9828070000
H                  3.3862150000      4.7592120000      2.2514320000
H                 -4.8500980000     -1.5473020000      1.5895870000
H                 -5.5785480000      0.0056490000      2.0789020000
H                 -4.8299120000     -1.0555830000      3.3039140000
$end
$rem
MAX_SCF_CYCLES=200
BASIS  =  6-311++G(d,p)
GUI  =  2
JOB_TYPE  =  SP
METHOD  =  B3LYP
SOLVENT_METHOD = COSMO
$end
$solvent
dielectric 37.219
opticaldielectric 1.43
$end

--------------------------------------------------------------

             Standard Nuclear Orientation (Angstroms)
    I     Atom           X                Y                Z
 ----------------------------------------------------------------
    1      C      -1.3258575266    -2.3939515254    -0.0285543536
    2      C      -2.6965785260    -2.3117175523    -0.0231211481
    3      C      -3.3320843432    -1.0535151144    -0.0040058355
    4      C      -2.5772886072     0.1124897133     0.0076090702
    5      C      -1.1438718220     0.0682769632    -0.0013523080
    6      C      -0.5306379462    -1.2244642481    -0.0148463376
    7      C       0.9201301825    -1.4117982082    -0.0140093255
    8      C      -0.3125434230     1.2766889342    -0.0080228691
    9      C       1.7520759626    -0.2204226153     0.0221303971
   10      C       1.1524241409     1.0727652488    -0.0016863304
   11      C       3.1870924090    -0.3111862413     0.0417765682
   12      C       3.9514308341     0.8558338766    -0.0033214951
   13      C       3.3383983030     2.1153392753    -0.0424824115
   14      C       1.9613491928     2.2260438801    -0.0317702575
   15      O       1.4029760738    -2.5889034107    -0.0538950419
   16      O      -0.7738290686     2.4389321284    -0.0228522648
   17      N       3.8094723526    -1.5453095084     0.1488326638
   18      O      -3.1674555249     1.3444427204     0.0298665292
   19      C      -4.5733881934     1.4277082645     0.0399872085
   20      H      -0.8089666296    -3.3446818352    -0.0407785685
   21      H      -3.3033511506    -3.2124607482    -0.0314357938
   22      H      -4.4125456068    -1.0092197007     0.0029087567
   23      H       5.0353645825     0.7733957408     0.0123021257
   24      H       3.9569783673     3.0080797501    -0.0740373184
   25      H       1.4632795383     3.1865830488    -0.0519552311
   26      H       3.1738164770    -2.3277944020    -0.0208643334
   27      H       4.7452365297    -1.6027307246    -0.2217275674
   28      H      -4.8040607775     2.4936450624     0.0569044834
   29      H      -5.0091930237     0.9509304466     0.9284994328
   30      H      -5.0203004422     0.9771045088    -0.8565818433
 ----------------------------------------------------------------

   11    -858.9407168423      5.84e-06  Convergence criterion met
 Total energy in the final basis set =     -858.9407168423
    4    -859.0313729929      9.74e-06  Convergence criterion met
 Total energy in the final basis set =     -859.0313729929

                    Orbital Energies (a.u.)
 --------------------------------------------------------------

 Alpha MOs
 -- Occupied --
-19.1510 -19.0785 -19.0732 -14.3023 -10.2384 -10.2274 -10.2269 -10.2149
-10.2130 -10.1769 -10.1740 -10.1722 -10.1716 -10.1705 -10.1693 -10.1673
-10.1608 -10.1607 -10.1553  -1.0699  -1.0055  -1.0029  -0.9106  -0.8561
 -0.8352  -0.7826  -0.7584  -0.7395  -0.7273  -0.6952  -0.6649  -0.6300
 -0.6237  -0.5786  -0.5576  -0.5467  -0.5289  -0.5053  -0.4866  -0.4818
 -0.4672  -0.4661  -0.4626  -0.4459  -0.4396  -0.4247  -0.4231  -0.4153
 -0.4041  -0.3948  -0.3864  -0.3768  -0.3761  -0.3605  -0.3550  -0.3507
 -0.3435  -0.3328  -0.3196  -0.3079  -0.2690  -0.2489  -0.2474  -0.2321
 -0.2315  -0.2111  -0.1386

 Beta MOs
 -- Occupied --
-19.1510 -19.0734 -19.0680 -14.3021 -10.2384 -10.2259 -10.2247 -10.2148
-10.2130 -10.1762 -10.1730 -10.1717 -10.1716 -10.1695 -10.1688 -10.1665
-10.1606 -10.1601 -10.1551  -1.0698  -0.9967  -0.9938  -0.9097  -0.8537
 -0.8337  -0.7788  -0.7569  -0.7376  -0.7251  -0.6941  -0.6581  -0.6281
 -0.6213  -0.5779  -0.5559  -0.5446  -0.5275  -0.5045  -0.4847  -0.4805
 -0.4666  -0.4644  -0.4615  -0.4449  -0.4383  -0.4233  -0.4124  -0.4111
 -0.4024  -0.3929  -0.3789  -0.3752  -0.3602  -0.3597  -0.3508  -0.3455
 -0.3411  -0.3322  -0.3142  -0.3018  -0.2499  -0.2436  -0.2429  -0.2274
 -0.2246  -0.2042

          Ground-State Mulliken Net Atomic Charges

     Atom                 Charge (a.u.)    Spin (a.u.)
  --------------------------------------------------------
      1 C                    -0.232466       0.029753
      2 C                    -0.467375       0.047190
      3 C                    -0.207735       0.062027
      4 C                     0.005652       0.013066
      5 C                     0.146826       0.033086
      6 C                     0.240248       0.027291
      7 C                    -0.434779       0.117639
      8 C                    -0.489613       0.070847
      9 C                     0.182586      -0.019137
     10 C                     0.571845       0.064823
     11 C                     0.178455       0.028393
     12 C                    -0.228167       0.068758
     13 C                    -0.474871       0.044795
     14 C                    -0.145973       0.046367
     15 O                    -0.502103       0.181191
     16 O                    -0.497225       0.194487
     17 N                    -0.456687       0.011392
     18 O                    -0.161535       0.000027
     19 C                    -0.304160      -0.000218
     20 H                     0.167844      -0.001342
     21 H                     0.213802      -0.003558
     22 H                     0.202449      -0.004111
     23 H                     0.181833      -0.004698
     24 H                     0.203563      -0.003319
     25 H                     0.167361      -0.002422
     26 H                     0.322303      -0.002221
     27 H                     0.282959      -0.000575
     28 H                     0.204205      -0.000169
     29 H                     0.164988       0.000292
     30 H                     0.165769       0.000346
  --------------------------------------------------------
  Sum of atomic charges =    -1.000000

                    Cartesian Multipole Moments
 -----------------------------------------------------------------
    Charge (ESU x 10^10)
                -4.8032
    Dipole Moment (Debye)
         X      -2.6515      Y      -1.3015      Z      -0.8422
       Tot       3.0714
    Quadrupole Moments (Debye-Ang)
        XX     -93.8628     XY       8.7985     YY    -140.7475
        XZ      -4.5352     YZ       1.6012     ZZ    -119.0047

 Total job time:  107.28s(wall), 817.92s(cpu)
        *  Thank you very much for using Q-Chem.  Have a nice day.  *
