 Q-Chem 5.4, Q-Chem, Inc., Pleasanton, CA (2021)
 Q-Chem 5.4.0 for Intel X86 EM64T Linux

User input:
--------------------------------------------------------------
$molecule
0 1
C                  5.0426030000     -2.2342860000      0.7457340000
C                  5.8791570000     -1.4129290000     -0.0005450000
C                  5.3435160000     -0.5683430000     -0.9770330000
C                  3.6620320000     -2.2201220000      0.5233190000
C                  3.1231020000     -1.3703100000     -0.4593650000
C                  3.9726640000     -0.5472280000     -1.2049330000
C                  2.7880470000     -3.1135620000      1.3392230000
C                  1.3204010000     -3.0718950000      1.0700910000
C                  0.7840150000     -2.2213360000      0.0875640000
C                  1.6545820000     -1.3267870000     -0.7256560000
C                  0.4728930000     -3.8993620000      1.8103780000
C                 -0.5963000000     -2.2187700000     -0.1333340000
C                 -1.4263270000     -3.0461760000      0.6109090000
O                  3.2558260000     -3.8486460000      2.1938110000
O                  1.1874010000     -0.5865880000     -1.5766000000
H                  5.4358620000     -2.8964660000      1.5071060000
H                  6.9487650000     -1.4280070000      0.1754720000
H                  5.9978440000      0.0715450000     -1.5581420000
H                 -2.4953530000     -3.0395940000      0.4236210000
H                  3.5360100000      0.0991540000     -1.9561700000
H                  0.9181430000     -4.5495160000      2.5550410000
H                 -0.9965610000     -1.5628400000     -0.8966280000
C                 -0.9060120000     -3.8995520000      1.5962530000
C                 -1.8183640000     -4.7707680000      2.4263830000
C                 -2.2671130000     -4.0747880000      3.7128790000
O                 -3.1318910000     -4.9736560000      4.4057960000
H                 -1.3120840000     -5.7009240000      2.6979210000
H                 -2.7099610000     -5.0412690000      1.8539310000
H                 -2.7892110000     -3.1400220000      3.4684490000
H                 -1.3907530000     -3.8235360000      4.3244740000
H                 -3.4051620000     -4.5689810000      5.2344750000
$end
$rem
MAX_SCF_CYCLES=200
BASIS  =  6-311++G(d,p)
GUI  =  2
JOB_TYPE  =  SP
METHOD  =  B3LYP
SOLVENT_METHOD = COSMO
$end
$solvent
dielectric 37.219
opticaldielectric 1.43
$end

--------------------------------------------------------------

             Standard Nuclear Orientation (Angstroms)
    I     Atom           X                Y                Z
 ----------------------------------------------------------------
    1      C       3.2375603720    -1.7993589660     0.0184153961
    2      C       4.5578580311    -1.3939717285     0.1728742616
    3      C       4.8651499147    -0.0352972248     0.2883770650
    4      C       2.2108725613    -0.8507398256    -0.0225626833
    5      C       2.5201525851     0.5164306361     0.0935606116
    6      C       3.8514348542     0.9146789028     0.2490503261
    7      C       0.8023234300    -1.3151370478    -0.1902192242
    8      C      -0.2648287076    -0.2722715922    -0.2323014108
    9      C       0.0467498872     1.0936818032    -0.1156396781
   10      C       1.4517832804     1.5587523299     0.0547192151
   11      C      -1.5938583601    -0.6701918946    -0.3945848179
   12      C      -0.9848529957     2.0357200532    -0.1649492865
   13      C      -2.3012789696     1.6251334614    -0.3258357637
   14      O       0.5341485039    -2.5017313973    -0.2880066895
   15      O       1.7208556687     2.7449388689     0.1587378774
   16      H       2.9766400224    -2.8464343313    -0.0731054562
   17      H       5.3501218715    -2.1333264930     0.2035849030
   18      H       5.8957438279     0.2788378128     0.4087299551
   19      H      -3.0915075432     2.3677727850    -0.3701341033
   20      H       4.0664696491     1.9724668452     0.3366753319
   21      H      -1.8005060087    -1.7302503829    -0.4896822446
   22      H      -0.7312373485     3.0851902367    -0.0791460173
   23      C      -2.6282790392     0.2651934016    -0.4420901545
   24      C      -4.0656980945    -0.1763834336    -0.5812147947
   25      C      -4.7158596654    -0.4596454654     0.7744726090
   26      O      -6.0662053079    -0.8491053507     0.5278427585
   27      H      -4.1274606525    -1.0838017772    -1.1878611860
   28      H      -4.6525921959     0.5942667875    -1.0886306441
   29      H      -4.6768713895     0.4407626414     1.4020592378
   30      H      -4.1656319183    -1.2568733052     1.2910576058
   31      H      -6.4889337338    -1.0609882450     1.3654310208
 ----------------------------------------------------------------

    9    -842.8449832191      4.21e-06  Convergence criterion met
 Total energy in the final basis set =     -842.8449832191
    5    -842.8664395768      3.12e-06  Convergence criterion met
 Total energy in the final basis set =     -842.8664395768

                    Orbital Energies (a.u.)
 --------------------------------------------------------------

 Alpha MOs
 -- Occupied --
-19.1329 -19.1320 -19.1319 -10.2846 -10.2838 -10.2228 -10.2082 -10.2080
-10.2077 -10.2071 -10.2061 -10.1966 -10.1963 -10.1961 -10.1959 -10.1957
-10.1948 -10.1947 -10.1790  -1.0683  -1.0664  -1.0315  -0.8947  -0.8829
 -0.8221  -0.7907  -0.7778  -0.7738  -0.7430  -0.6881  -0.6679  -0.6458
 -0.6209  -0.6081  -0.5860  -0.5597  -0.5500  -0.5239  -0.5069  -0.4956
 -0.4852  -0.4682  -0.4673  -0.4607  -0.4563  -0.4507  -0.4465  -0.4410
 -0.4329  -0.4289  -0.4212  -0.3902  -0.3889  -0.3790  -0.3714  -0.3681
 -0.3677  -0.3586  -0.3470  -0.2903  -0.2901  -0.2876  -0.2788  -0.2768
 -0.2760  -0.2699

          Ground-State Mulliken Net Atomic Charges

     Atom                 Charge (a.u.)
  ----------------------------------------
      1 C                     0.157437
      2 C                    -0.443646
      3 C                    -0.458868
      4 C                     0.316880
      5 C                     0.081291
      6 C                     0.198839
      7 C                    -0.695986
      8 C                     0.352861
      9 C                     0.064649
     10 C                    -0.702409
     11 C                    -0.083105
     12 C                     0.131405
     13 C                    -0.560241
     14 O                    -0.288487
     15 O                    -0.296346
     16 H                     0.198401
     17 H                     0.228129
     18 H                     0.226824
     19 H                     0.226659
     20 H                     0.200281
     21 H                     0.201225
     22 H                     0.208239
     23 C                     0.599788
     24 C                    -0.002925
     25 C                    -0.516182
     26 O                    -0.377019
     27 H                     0.190070
     28 H                     0.189296
     29 H                     0.174500
     30 H                     0.174442
     31 H                     0.303992
  ----------------------------------------
  Sum of atomic charges =    -0.000006

                    Cartesian Multipole Moments
 -----------------------------------------------------------------
    Charge (ESU x 10^10)
                -0.0000
    Dipole Moment (Debye)
         X       0.4092      Y      -0.0768      Z       1.9438
       Tot       1.9879
    Quadrupole Moments (Debye-Ang)
        XX     -85.8272     XY     -10.8051     YY    -121.7052
        XZ      -9.6863     YZ      -3.7073     ZZ    -108.7197

 Total job time:  63.06s(wall), 484.42s(cpu)
        *  Thank you very much for using Q-Chem.  Have a nice day.  *
