 Gaussian 16, Revision A.03,
 Gaussian 16:  ES64L-G16RevA.03 25-Dec-2016

 --------------------------------------
 #P UB3LYP/6-311++G(d,p) nosym opt freq
 --------------------------------------

 -------
 Radical
 -------
 Symbolic Z-matrix:
 Charge = -1 Multiplicity = 2

 SCF Done:  E(UB3LYP) =  -1458.14773257     A.U. after   22 cycles
 SCF Done:  E(UB3LYP) =  -1458.17822927     A.U. after   18 cycles
 SCF Done:  E(UB3LYP) =  -1458.18412461     A.U. after   18 cycles
 SCF Done:  E(UB3LYP) =  -1458.18625293     A.U. after   18 cycles
 SCF Done:  E(UB3LYP) =  -1458.18802272     A.U. after   16 cycles
 SCF Done:  E(UB3LYP) =  -1458.18864737     A.U. after   20 cycles
 SCF Done:  E(UB3LYP) =  -1458.19008944     A.U. after   16 cycles
 SCF Done:  E(UB3LYP) =  -1458.19017796     A.U. after   15 cycles
 SCF Done:  E(UB3LYP) =  -1458.19028424     A.U. after   16 cycles
 SCF Done:  E(UB3LYP) =  -1458.19029172     A.U. after   14 cycles
 SCF Done:  E(UB3LYP) =  -1458.19029357     A.U. after   13 cycles
 SCF Done:  E(UB3LYP) =  -1458.19029433     A.U. after   11 cycles
 SCF Done:  E(UB3LYP) =  -1458.19029441     A.U. after   10 cycles
 Optimization completed.
    -- Stationary point found.
 Normal termination of Gaussian 16 at Sun Dec 17 21:56:56 2023.

 ----------------------------------------------------------------------
 #P Geom=AllCheck Guess=TCheck SCRF=Check GenChk UB3LYP/6-311++G(d,p) F
 req
 ----------------------------------------------------------------------

 Structure from the checkpoint file:  "014-rad.chk"
 -------
 Radical
 -------
 Charge = -1 Multiplicity = 2

                          Input orientation:
 ---------------------------------------------------------------------
 Center     Atomic      Atomic             Coordinates (Angstroms)
 Number     Number       Type             X           Y           Z
 ---------------------------------------------------------------------
      1          6           0       -1.566007   -1.546750   -0.638942
      2          6           0       -1.172657   -0.138600   -0.129611
      3          6           0       -1.556429   -0.003151    1.364166
      4          6           0       -2.000883    0.892606   -0.920133
      5          6           0        0.342954    0.075757   -0.302100
      6          6           0        0.848804    1.082353   -1.081637
      7          6           0        2.254827    1.352443   -1.296814
      8          8           0        2.647304    2.295065   -2.026362
      9          6           0        3.159029    0.448320   -0.603038
     10          6           0        2.685570   -0.570950    0.186050
     11         17           0        3.785836   -1.658491    1.020363
     12          6           0        1.262576   -0.831753    0.393992
     13          8           0        0.876385   -1.777472    1.125343
     14         17           0        4.878030    0.729220   -0.827908
     15          1           0       -1.028659   -2.317786   -0.088201
     16          1           0       -2.644418   -1.704911   -0.514690
     17          1           0       -1.330050   -1.647615   -1.703384
     18          1           0       -1.019094   -0.734921    1.966086
     19          1           0       -2.634891   -0.158266    1.491803
     20          1           0       -1.313291    0.999220    1.731626
     21          1           0       -3.066586    0.695547   -0.762629
     22          1           0       -1.806481    0.835307   -1.995028
     23          1           0       -1.799100    1.916512   -0.592432
     24          1           0        0.197230    1.768314   -1.608112
 ---------------------------------------------------------------------

 SCF Done:  E(UB3LYP) =  -1458.19029441     A.U. after    2 cycles

 Alpha  occ. eigenvalues -- -101.42605-101.42531 -18.95395 -18.95278 -10.10824
 Alpha  occ. eigenvalues --  -10.10635 -10.10498 -10.10396 -10.08167 -10.05902
 Alpha  occ. eigenvalues --  -10.05773 -10.04621 -10.04617 -10.04426  -9.34056
 Alpha  occ. eigenvalues --   -9.33985  -7.10504  -7.10434  -7.09588  -7.09517
 Alpha  occ. eigenvalues --   -7.09478  -7.09405  -0.88385  -0.87837  -0.76543
 Alpha  occ. eigenvalues --   -0.72223  -0.71809  -0.67413  -0.59986  -0.58327
 Alpha  occ. eigenvalues --   -0.57571  -0.55800  -0.48585  -0.45759  -0.41944
 Alpha  occ. eigenvalues --   -0.37754  -0.35975  -0.33938  -0.33402  -0.32309
 Alpha  occ. eigenvalues --   -0.31759  -0.30837  -0.28468  -0.28369  -0.28311
 Alpha  occ. eigenvalues --   -0.27176  -0.26326  -0.25681  -0.25141  -0.23245
 Alpha  occ. eigenvalues --   -0.23096  -0.22210  -0.21932  -0.20438  -0.19612
 Alpha  occ. eigenvalues --   -0.17478  -0.15419  -0.12333  -0.12019  -0.11585
 Alpha  occ. eigenvalues --   -0.03970
 Alpha virt. eigenvalues --    0.07605   0.09929   0.09981   0.10293   0.10693
 Alpha virt. eigenvalues --    0.11116   0.12810   0.12847   0.13113   0.14041
 Alpha virt. eigenvalues --    0.14108   0.14388   0.14707   0.15867   0.16335

  Beta  occ. eigenvalues -- -101.42600-101.42527 -18.94698 -18.94534 -10.10698
  Beta  occ. eigenvalues --  -10.10508 -10.10354 -10.10308 -10.08173 -10.05811
  Beta  occ. eigenvalues --  -10.05773 -10.04616 -10.04612 -10.04316  -9.34051
  Beta  occ. eigenvalues --   -9.33982  -7.10508  -7.10439  -7.09565  -7.09497
  Beta  occ. eigenvalues --   -7.09476  -7.09403  -0.87208  -0.86571  -0.76252
  Beta  occ. eigenvalues --   -0.72076  -0.71678  -0.67059  -0.59771  -0.58263
  Beta  occ. eigenvalues --   -0.57552  -0.54871  -0.48264  -0.45399  -0.41732
  Beta  occ. eigenvalues --   -0.37569  -0.35799  -0.33699  -0.33341  -0.32204
  Beta  occ. eigenvalues --   -0.31619  -0.29758  -0.28281  -0.27871  -0.27600
  Beta  occ. eigenvalues --   -0.27019  -0.26010  -0.25358  -0.23356  -0.22972
  Beta  occ. eigenvalues --   -0.22915  -0.21886  -0.21321  -0.19550  -0.19538
  Beta  occ. eigenvalues --   -0.17445  -0.12491  -0.11473  -0.11358  -0.10918
  Beta virt. eigenvalues --    0.03204   0.07606   0.09934   0.10069   0.10341
  Beta virt. eigenvalues --    0.11145   0.11738   0.12815   0.13137   0.13242
  Beta virt. eigenvalues --    0.14074   0.14139   0.14437   0.15906   0.16283

 Mulliken charges and spin densities:
               1          2
     1  C   -0.688370   0.011380
     2  C    0.509997  -0.029946
     3  C   -0.687812   0.011380
     4  C   -0.512680   0.001953
     5  C    0.810385   0.104415
     6  C   -0.325128   0.077553
     7  C   -1.150142   0.057875
     8  O   -0.332244   0.269385
     9  C    0.859339   0.102695
    10  C   -0.035437   0.050941
    11  Cl   0.377038   0.004116
    12  C   -1.303833   0.085102
    13  O   -0.292241   0.257191
    14  Cl   0.337377   0.006029
    15  H    0.199391  -0.001610
    16  H    0.117345   0.000499
    17  H    0.116016   0.000427
    18  H    0.199398  -0.001615
    19  H    0.117325   0.000493
    20  H    0.115967   0.000431
    21  H    0.145112   0.000081
    22  H    0.122217  -0.000450
    23  H    0.122283  -0.000452
    24  H    0.178697  -0.007870
 Sum of Mulliken charges =  -1.00000   1.00000

 Dipole moment (field-independent basis, Debye):
    X=            -11.0782    Y=             -0.5476    Z=              1.6385  Tot=             11.2120
 Quadrupole moment (field-independent basis, Debye-Ang):
   XX=           -143.7655   YY=           -122.4916   ZZ=           -114.9004
   XY=             -8.0111   XZ=              9.0633   YZ=             15.7588

  Exact polarizability: 211.997  11.245 162.081  -9.172 -42.561 139.909
 Approx polarizability: 277.478  29.164 279.261 -23.056 -91.636 231.566

                      1                      2                      3
                      A                      A                      A
 Frequencies --     54.2597                63.4643                98.0535
 Red. masses --      5.1108                 4.8449                 9.4425
 Frc consts  --      0.0089                 0.0115                 0.0535
 IR Inten    --      2.9295                 0.3426                 0.0112

                      4                      5                      6
                      A                      A                      A
 Frequencies --    160.9375               171.8542               206.9550
 Red. masses --      5.0678                 5.1126                23.6308
 Frc consts  --      0.0773                 0.0890                 0.5963
 IR Inten    --      6.2718                 1.8652                 0.2762

                      7                      8                      9
                      A                      A                      A
 Frequencies --    227.2101               244.2212               259.3005
 Red. masses --      1.4049                 2.8247                 4.4801
 Frc consts  --      0.0427                 0.0993                 0.1775
 IR Inten    --      0.5236                 0.0136                 2.9339

                     10                     11                     12
                      A                      A                      A
 Frequencies --    261.6099               276.0932               294.3938
 Red. masses --      1.3858                 3.1982                 3.5059
 Frc consts  --      0.0559                 0.1436                 0.1790
 IR Inten    --      0.4321                 0.1736                 0.1156

                     13                     14                     15
                      A                      A                      A
 Frequencies --    315.9336               329.3197               357.8206
 Red. masses --      2.9751                 1.0514                13.1161
 Frc consts  --      0.1750                 0.0672                 0.9894
 IR Inten    --      1.7900                 0.0496                 3.4799

                     16                     17                     18
                      A                      A                      A
 Frequencies --    374.3634               377.9823               420.0487
 Red. masses --      9.6301                 2.5975                 2.7288
 Frc consts  --      0.7952                 0.2187                 0.2837
 IR Inten    --      2.2654                 0.2191                 0.9967

                     19                     20                     21
                      A                      A                      A
 Frequencies --    443.7503               478.5274               525.2198
 Red. masses --      5.6544                 6.1168                 4.1496
 Frc consts  --      0.6560                 0.8252                 0.6744
 IR Inten    --      0.0272                 0.0941                16.2864

                     22                     23                     24
                      A                      A                      A
 Frequencies --    548.5578               605.2163               692.2308
 Red. masses --      4.5773                 5.9776                 6.2704
 Frc consts  --      0.8115                 1.2900                 1.7703
 IR Inten    --      0.4528                17.7530                 3.1975

                     25                     26                     27
                      A                      A                      A
 Frequencies --    696.2216               764.4321               766.8812
 Red. masses --      5.7215                 5.7984                 8.3610
 Frc consts  --      1.6340                 1.9963                 2.8971
 IR Inten    --      1.3630                 9.2027                 4.4684

                     28                     29                     30
                      A                      A                      A
 Frequencies --    846.8465               872.3875               883.0004
 Red. masses --      3.4965                 7.9856                 1.5346
 Frc consts  --      1.4774                 3.5808                 0.7050
 IR Inten    --     39.3803                97.2397                14.7853

                     31                     32                     33
                      A                      A                      A
 Frequencies --    925.8107               933.1534               959.0580
 Red. masses --      1.7704                 1.7432                 1.2032
 Frc consts  --      0.8941                 0.8944                 0.6520
 IR Inten    --      0.4408                 4.6556                 0.2447

                     34                     35                     36
                      A                      A                      A
 Frequencies --    993.2778              1041.0989              1049.0788
 Red. masses --      5.7306                 1.4738                 1.3784
 Frc consts  --      3.3311                 0.9412                 0.8938
 IR Inten    --     22.4067                14.3568                 0.0794

                     37                     38                     39
                      A                      A                      A
 Frequencies --   1101.2960              1145.6707              1216.0930
 Red. masses --      3.1286                 9.0724                 2.6826
 Frc consts  --      2.2357                 7.0160                 2.3374
 IR Inten    --    103.4396                28.0976                 4.4195

                     40                     41                     42
                      A                      A                      A
 Frequencies --   1223.5976              1266.9874              1295.3122
 Red. masses --      2.4717                 2.6382                 1.9149
 Frc consts  --      2.1803                 2.4951                 1.8930
 IR Inten    --     11.8224                27.9342                20.8436

                     43                     44                     45
                      A                      A                      A
 Frequencies --   1370.7924              1376.8493              1387.1011
 Red. masses --      3.0608                 1.2102                 1.5530
 Frc consts  --      3.3886                 1.3517                 1.7605
 IR Inten    --     38.8501                11.6257                 5.2322

                     46                     47                     48
                      A                      A                      A
 Frequencies --   1412.5960              1472.3259              1484.8242
 Red. masses --      1.2464                 1.0466                 7.3147
 Frc consts  --      1.4654                 1.3367                 9.5016
 IR Inten    --     23.4890                 0.1929                 2.2393

                     49                     50                     51
                      A                      A                      A
 Frequencies --   1489.4064              1496.0549              1497.1381
 Red. masses --      1.1831                 1.0463                 1.0673
 Frc consts  --      1.5463                 1.3797                 1.4095
 IR Inten    --     67.3855                 0.9558                 1.8975

                     52                     53                     54
                      A                      A                      A
 Frequencies --   1511.6313              1523.6028              1526.7856
 Red. masses --      1.0513                 6.0553                 1.7047
 Frc consts  --      1.4154                 8.2819                 2.3413
 IR Inten    --      3.9333                85.0301               112.4479

                     55                     56                     57
                      A                      A                      A
 Frequencies --   1536.3028              1620.7773              2997.0095
 Red. masses --      2.0958                 7.6542                 1.0422
 Frc consts  --      2.9144                11.8468                 5.5155
 IR Inten    --    178.7212                28.8384                46.6429

                     58                     59                     60
                      A                      A                      A
 Frequencies --   3001.4556              3014.2907              3055.5907
 Red. masses --      1.0410                 1.0362                 1.0974
 Frc consts  --      5.5252                 5.5471                 6.0370
 IR Inten    --     79.6220                93.6416                29.8224

                     61                     62                     63
                      A                      A                      A
 Frequencies --   3057.7852              3070.3745              3082.4458
 Red. masses --      1.0975                 1.0998                 1.1016
 Frc consts  --      6.0459                 6.1085                 6.1672
 IR Inten    --     25.1364                91.7845                42.2336

                     64                     65                     66
                      A                      A                      A
 Frequencies --   3124.5376              3127.0104              3188.5690
 Red. masses --      1.0971                 1.0964                 1.0879
 Frc consts  --      6.3106                 6.3168                 6.5168
 IR Inten    --      0.0857                10.6402                 9.3210

 - Thermochemistry -
 -------------------
 Temperature   298.150 Kelvin.  Pressure   1.00000 Atm.
 Atom     1 has atomic number  6 and mass  12.00000

 Molecular mass:   232.00579 amu.
 Principal axes and moments of inertia in atomic units:
                           1         2         3
     Eigenvalues --  2103.413334665.435666368.52266
           X            0.99579  -0.09158   0.00372
           Y            0.07023   0.78848   0.61104
           Z           -0.05889  -0.60821   0.79159
 This molecule is an asymmetric top.
 Rotational symmetry number  1.
 Warning -- assumption of classical behavior for rotation
           may cause significant error
 Rotational temperatures (Kelvin)      0.04118     0.01857     0.01360
 Rotational constants (GHZ):           0.85801     0.38683     0.28338
 Zero-point vibrational energy     461715.4 (Joules/Mol)
                                  110.35263 (Kcal/Mol)
 Warning -- explicit consideration of  23 degrees of freedom as
           vibrations may cause significant error
 Vibrational temperatures:     78.07    91.31   141.08   231.55   247.26
          (Kelvin)            297.76   326.90   351.38   373.08   376.40
                              397.24   423.57   454.56   473.82   514.82
                              538.63   543.83   604.36   638.46   688.49
                              755.67   789.25   870.77   995.97  1001.71
                             1099.85  1103.37  1218.42  1255.17  1270.44
                             1332.04  1342.60  1379.87  1429.11  1497.91
                             1509.39  1584.52  1648.36  1749.69  1760.48
                             1822.91  1863.67  1972.26  1980.98  1995.73
                             2032.41  2118.35  2136.33  2142.92  2152.49
                             2154.05  2174.90  2192.12  2196.70  2210.40
                             2331.94  4312.03  4318.43  4336.89  4396.31
                             4399.47  4417.58  4434.95  4495.51  4499.07
                             4587.64

 Zero-point correction=                           0.175858 (Hartree/Particle)
 Thermal correction to Energy=                    0.189846
 Thermal correction to Enthalpy=                  0.190791
 Thermal correction to Gibbs Free Energy=         0.134683
 Sum of electronic and zero-point Energies=          -1458.014436
 Sum of electronic and thermal Energies=             -1458.000448
 Sum of electronic and thermal Enthalpies=           -1457.999504
 Sum of electronic and thermal Free Energies=        -1458.055612

                     E (Thermal)             CV                S
                      KCal/Mol        Cal/Mol-Kelvin    Cal/Mol-Kelvin
 Total                  119.130             52.750            118.089
 Electronic               0.000              0.000              1.377
 Translational            0.889              2.981             42.227
 Rotational               0.889              2.981             32.502
 Vibrational            117.353             46.788             41.983
 Vibration     1          0.596              1.976              4.656
 Vibration     2          0.597              1.972              4.346
 Vibration     3          0.603              1.951              3.493
 Vibration     4          0.622              1.890              2.539
 Vibration     5          0.626              1.877              2.415
 Vibration     6          0.641              1.830              2.070
 Vibration     7          0.651              1.800              1.901
 Vibration     8          0.660              1.772              1.772
 Vibration     9          0.668              1.747              1.666
 Vibration    10          0.669              1.743              1.651
 Vibration    11          0.678              1.718              1.558
 Vibration    12          0.689              1.684              1.449
 Vibration    13          0.703              1.643              1.331
 Vibration    14          0.712              1.617              1.263
 Vibration    15          0.733              1.559              1.132
 Vibration    16          0.745              1.525              1.062
 Vibration    17          0.748              1.517              1.047
 Vibration    18          0.783              1.427              0.892
 Vibration    19          0.803              1.375              0.815
 Vibration    20          0.835              1.298              0.714
 Vibration    21          0.880              1.194              0.598
 Vibration    22          0.904              1.143              0.547
 Vibration    23          0.964              1.021              0.441

 Optimization completed.
    -- Stationary point found.
 Normal termination of Gaussian 16 at Sun Dec 17 22:34:51 2023.
