 Gaussian 16, Revision A.03,
 Gaussian 16:  ES64L-G16RevA.03 25-Dec-2016

 --------------------------------------
 #P UB3LYP/6-311++G(d,p) nosym opt freq
 --------------------------------------

 --------
 Oxidized
 --------
 Symbolic Z-matrix:
 Charge =  0 Multiplicity = 1

 SCF Done:  E(UB3LYP) =  -627.519265474     A.U. after   16 cycles
 SCF Done:  E(UB3LYP) =  -627.520387763     A.U. after   13 cycles
 SCF Done:  E(UB3LYP) =  -627.520446868     A.U. after   11 cycles
 SCF Done:  E(UB3LYP) =  -627.520449949     A.U. after   10 cycles
 Optimization completed.
    -- Stationary point found.
 Normal termination of Gaussian 16 at Tue Dec 26 20:07:14 2023.

 ----------------------------------------------------------------------
 #P Geom=AllCheck Guess=TCheck SCRF=Check GenChk UB3LYP/6-311++G(d,p) F
 req
 ----------------------------------------------------------------------

 Structure from the checkpoint file:  "227.chk"
 --------
 Oxidized
 --------
 Charge =  0 Multiplicity = 1

                          Input orientation:
 ---------------------------------------------------------------------
 Center     Atomic      Atomic             Coordinates (Angstroms)
 Number     Number       Type             X           Y           Z
 ---------------------------------------------------------------------
      1          6           0        5.680771   -5.107756    1.281392
      2          6           0        6.693034   -5.018546    0.337515
      3          6           0        6.603936   -4.072236   -0.698166
      4          6           0        4.572999   -4.260121    1.206017
      5          6           0        4.483296   -3.313754    0.170815
      6          6           0        5.497798   -3.220617   -0.779533
      7          6           0        3.488726   -4.367273    2.230756
      8          6           0        2.337259   -3.443024    2.099845
      9          6           0        2.252271   -2.540522    1.112214
     10          6           0        3.303373   -2.398802    0.076430
     11          8           0        3.539036   -5.178679    3.138530
     12          8           0        3.198995   -1.570070   -0.810245
     13          6           0        7.650253   -3.981871   -1.671748
     14          7           0        8.498582   -3.915769   -2.452726
     15          1           0        5.730579   -5.829949    2.086866
     16          1           0        7.554354   -5.672723    0.390415
     17          1           0        5.414845   -2.486726   -1.571211
     18          1           0        1.567924   -3.546104    2.857317
     19          1           0        1.409699   -1.864351    1.016805
 ---------------------------------------------------------------------

 SCF Done:  E(UB3LYP) =  -627.520449949     A.U. after    2 cycles

 Alpha  occ. eigenvalues --  -19.15492 -19.15443 -14.33771 -10.30378 -10.30366
 Alpha  occ. eigenvalues --  -10.25907 -10.23823 -10.23711 -10.23539 -10.23480
 Alpha  occ. eigenvalues --  -10.23402 -10.23398 -10.23300 -10.22740  -1.08758
 Alpha  occ. eigenvalues --   -1.08566  -0.94064  -0.91952  -0.86850  -0.81934
 Alpha  occ. eigenvalues --   -0.80992  -0.72891  -0.69783  -0.67719  -0.62211
 Alpha  occ. eigenvalues --   -0.59773  -0.56665  -0.53380  -0.52758  -0.49223
 Alpha  occ. eigenvalues --   -0.48441  -0.48138  -0.47590  -0.46389  -0.45436
 Alpha  occ. eigenvalues --   -0.43785  -0.42857  -0.42397  -0.40682  -0.38678
 Alpha  occ. eigenvalues --   -0.37530  -0.36237  -0.32967  -0.31015  -0.30600
 Alpha  occ. eigenvalues --   -0.30171  -0.29596
 Alpha virt. eigenvalues --   -0.14928  -0.09289  -0.07172  -0.01683  -0.00754
 Alpha virt. eigenvalues --   -0.00049   0.00535   0.00805   0.01107   0.01532
 Alpha virt. eigenvalues --    0.02360   0.03090   0.03502   0.05158   0.05174

  Beta  occ. eigenvalues --  -19.15492 -19.15443 -14.33771 -10.30378 -10.30366
  Beta  occ. eigenvalues --  -10.25907 -10.23823 -10.23711 -10.23539 -10.23480
  Beta  occ. eigenvalues --  -10.23402 -10.23398 -10.23300 -10.22740  -1.08758
  Beta  occ. eigenvalues --   -1.08566  -0.94064  -0.91952  -0.86850  -0.81934
  Beta  occ. eigenvalues --   -0.80992  -0.72891  -0.69783  -0.67719  -0.62211
  Beta  occ. eigenvalues --   -0.59773  -0.56665  -0.53380  -0.52758  -0.49223
  Beta  occ. eigenvalues --   -0.48441  -0.48138  -0.47590  -0.46389  -0.45436
  Beta  occ. eigenvalues --   -0.43785  -0.42857  -0.42397  -0.40682  -0.38678
  Beta  occ. eigenvalues --   -0.37530  -0.36237  -0.32967  -0.31015  -0.30600
  Beta  occ. eigenvalues --   -0.30171  -0.29596
  Beta virt. eigenvalues --   -0.14928  -0.09289  -0.07172  -0.01683  -0.00754
  Beta virt. eigenvalues --   -0.00049   0.00535   0.00805   0.01107   0.01532
  Beta virt. eigenvalues --    0.02360   0.03090   0.03502   0.05158   0.05174

 Mulliken charges and spin densities:
               1          2
     1  C    0.544180  -0.000000
     2  C   -0.821954   0.000000
     3  C    1.929486  -0.000000
     4  C    0.169862   0.000000
     5  C   -0.024921  -0.000000
     6  C    0.301536  -0.000000
     7  C   -0.744042  -0.000000
     8  C    0.198177   0.000000
     9  C    0.146796   0.000000
    10  C   -0.588182  -0.000000
    11  O   -0.210977   0.000000
    12  O   -0.209088   0.000000
    13  C   -1.609563   0.000000
    14  N   -0.140049   0.000000
    15  H    0.195585  -0.000000
    16  H    0.208125  -0.000000
    17  H    0.205079   0.000000
    18  H    0.223026   0.000000
    19  H    0.226923   0.000000
 Sum of Mulliken charges =  -0.00000  -0.00000

 Dipole moment (field-independent basis, Debye):
    X=             -2.3624    Y=             -0.5581    Z=              2.6163  Tot=              3.5690
 Quadrupole moment (field-independent basis, Debye-Ang):
   XX=           -107.2056   YY=            -78.3147   ZZ=            -92.7745
   XY=              2.1420   XZ=             20.5025   YZ=             -3.1364

  Exact polarizability: 158.780 -26.481 114.056 -46.594 -35.441 145.278
 Approx polarizability: 235.622 -39.662 209.331 -63.976 -92.561 263.895

                      1                      2                      3
                      A                      A                      A
 Frequencies --     67.9870                83.5548               125.8834
 Red. masses --      6.5917                 8.8809                11.4171
 Frc consts  --      0.0180                 0.0365                 0.1066
 IR Inten    --      0.7683                14.4010                 4.3135

                      4                      5                      6
                      A                      A                      A
 Frequencies --    138.1932               218.9356               262.7287
 Red. masses --      5.5675                 7.2714                 4.4367
 Frc consts  --      0.0626                 0.2054                 0.1804
 IR Inten    --      1.4629                 1.0884                 0.0660

                      7                      8                      9
                      A                      A                      A
 Frequencies --    269.6256               333.5437               405.1557
 Red. masses --      7.9472                12.3910                 3.8354
 Frc consts  --      0.3404                 0.8122                 0.3709
 IR Inten    --      1.7840                 6.4522                 0.2395

                     10                     11                     12
                      A                      A                      A
 Frequencies --    423.0445               441.9862               450.3705
 Red. masses --      8.6490                 5.0818                11.6653
 Frc consts  --      0.9120                 0.5849                 1.3941
 IR Inten    --      9.4335                 0.6682                 7.7453

                     13                     14                     15
                      A                      A                      A
 Frequencies --    512.7948               564.8500               585.5862
 Red. masses --      8.7955                 7.3082                 4.2609
 Frc consts  --      1.3627                 1.3738                 0.8609
 IR Inten    --     13.6604                 0.6087                 6.0965

                     16                     17                     18
                      A                      A                      A
 Frequencies --    610.1349               617.9197               641.4183
 Red. masses --      5.2477                 2.6493                 5.8705
 Frc consts  --      1.1510                 0.5960                 1.4230
 IR Inten    --      0.0585                 0.2587                 2.8403

                     19                     20                     21
                      A                      A                      A
 Frequencies --    698.6265               718.9996               777.0172
 Red. masses --      3.8034                 7.0600                 7.0477
 Frc consts  --      1.0937                 2.1504                 2.5070
 IR Inten    --      7.4789                 2.7164                 2.4518

                     22                     23                     24
                      A                      A                      A
 Frequencies --    792.8865               857.0465               886.7441
 Red. masses --      6.2238                 1.6543                 1.6899
 Frc consts  --      2.3053                 0.7159                 0.7829
 IR Inten    --      0.3037                79.7201                 0.4255

                     25                     26                     27
                      A                      A                      A
 Frequencies --    895.2234               955.6116              1009.4265
 Red. masses --      5.4698                 1.4293                 1.3483
 Frc consts  --      2.5828                 0.7690                 0.8095
 IR Inten    --      9.3086                 5.8583                 0.2260

                     28                     29                     30
                      A                      A                      A
 Frequencies --   1017.5337              1058.3848              1072.6139
 Red. masses --      1.2519                 3.4626                 2.5126
 Frc consts  --      0.7637                 2.2853                 1.7032
 IR Inten    --      0.0012                47.8372                11.3035

                     31                     32                     33
                      A                      A                      A
 Frequencies --   1153.3449              1159.7743              1206.2401
 Red. masses --      1.4038                 1.4951                 3.0519
 Frc consts  --      1.1002                 1.1849                 2.6163
 IR Inten    --     14.5793                30.2004                 1.0530

                     34                     35                     36
                      A                      A                      A
 Frequencies --   1250.1433              1295.3180              1316.0204
 Red. masses --      2.0704                 1.7537                 3.8770
 Frc consts  --      1.9064                 1.7336                 3.9562
 IR Inten    --      1.0451                 2.5784               293.0091

                     37                     38                     39
                      A                      A                      A
 Frequencies --   1340.2718              1388.3332              1440.0204
 Red. masses --      7.9012                 1.7583                 4.1370
 Frc consts  --      8.3624                 1.9967                 5.0545
 IR Inten    --      6.5691                 4.0364                 2.6845

                     40                     41                     42
                      A                      A                      A
 Frequencies --   1511.0000              1592.9897              1637.3123
 Red. masses --      2.8190                 7.5742                 6.1502
 Frc consts  --      3.7920                11.3243                 9.7141
 IR Inten    --      0.2005                 3.6488                55.8482

                     43                     44                     45
                      A                      A                      A
 Frequencies --   1662.2794              1729.0784              1735.0838
 Red. masses --      7.9524                10.8577                11.4970
 Frc consts  --     12.9467                19.1257                20.3927
 IR Inten    --     34.6332                44.1123               371.5281

                     46                     47                     48
                      A                      A                      A
 Frequencies --   2338.3923              3176.3308              3193.2235
 Red. masses --     12.6793                 1.0875                 1.0963
 Frc consts  --     40.8488                 6.4644                 6.5863
 IR Inten    --     17.2204                 0.4161                 2.1676

                     49                     50                     51
                      A                      A                      A
 Frequencies --   3193.3469              3205.7760              3206.6355
 Red. masses --      1.0914                 1.0932                 1.0944
 Frc consts  --      6.5576                 6.6192                 6.6300
 IR Inten    --      0.9269                 1.5422                 2.6968

 - Thermochemistry -
 -------------------
 Temperature   298.150 Kelvin.  Pressure   1.00000 Atm.
 Atom     1 has atomic number  6 and mass  12.00000

 Molecular mass:   183.03203 amu.
 Principal axes and moments of inertia in atomic units:
                           1         2         3
     Eigenvalues --  1396.234243448.069794844.30385
           X            0.81371  -0.33689   0.47369
           Y           -0.08477   0.73743   0.67008
           Z           -0.57506  -0.58540   0.57150
 This molecule is an asymmetric top.
 Rotational symmetry number  1.
 Warning -- assumption of classical behavior for rotation
           may cause significant error
 Rotational temperatures (Kelvin)      0.06203     0.02512     0.01788
 Rotational constants (GHZ):           1.29258     0.52341     0.37255
 Zero-point vibrational energy     342280.0 (Joules/Mol)
                                   81.80688 (Kcal/Mol)
 Warning -- explicit consideration of  17 degrees of freedom as
           vibrations may cause significant error
 Vibrational temperatures:     97.82   120.22   181.12   198.83   315.00
          (Kelvin)            378.01   387.93   479.90   582.93   608.67
                              635.92   647.98   737.80   812.69   842.53
                              877.85   889.05   922.86  1005.17  1034.48
                             1117.95  1140.79  1233.10  1275.83  1288.03
                             1374.91  1452.34  1464.00  1522.78  1543.25
                             1659.41  1668.66  1735.51  1798.68  1863.67
                             1893.46  1928.35  1997.50  2071.87  2173.99
                             2291.96  2355.73  2391.65  2487.76  2496.40
                             3364.42  4570.03  4594.34  4594.51  4612.40
                             4613.63

 Zero-point correction=                           0.130368 (Hartree/Particle)
 Thermal correction to Energy=                    0.140950
 Thermal correction to Enthalpy=                  0.141894
 Thermal correction to Gibbs Free Energy=         0.093485
 Sum of electronic and zero-point Energies=           -627.390082
 Sum of electronic and thermal Energies=              -627.379500
 Sum of electronic and thermal Enthalpies=            -627.378556
 Sum of electronic and thermal Free Energies=         -627.426965

                     E (Thermal)             CV                S
                      KCal/Mol        Cal/Mol-Kelvin    Cal/Mol-Kelvin
 Total                   88.448             40.673            101.885
 Electronic               0.000              0.000              0.000
 Translational            0.889              2.981             41.520
 Rotational               0.889              2.981             31.523
 Vibrational             86.670             34.712             28.843
 Vibration     1          0.598              1.969              4.211
 Vibration     2          0.600              1.960              3.806
 Vibration     3          0.611              1.927              3.008
 Vibration     4          0.614              1.915              2.829
 Vibration     5          0.647              1.812              1.968
 Vibration     6          0.670              1.741              1.644
 Vibration     7          0.674              1.729              1.599
 Vibration     8          0.715              1.609              1.243
 Vibration     9          0.770              1.459              0.944
 Vibration    10          0.785              1.420              0.882
 Vibration    11          0.802              1.379              0.820
 Vibration    12          0.809              1.360              0.795
 Vibration    13          0.868              1.222              0.627
 Vibration    14          0.921              1.107              0.514
 Vibration    15          0.943              1.063              0.475
 Vibration    16          0.969              1.010              0.433
 Vibration    17          0.978              0.994              0.420

 Optimization completed.
    -- Stationary point found.
 Normal termination of Gaussian 16 at Tue Dec 26 20:17:10 2023.
