 Gaussian 16, Revision A.03,
 Gaussian 16:  ES64L-G16RevA.03 25-Dec-2016

 --------------------------------------
 #P UB3LYP/6-311++G(d,p) nosym opt freq
 --------------------------------------

 --------
 Oxidized
 --------
 Symbolic Z-matrix:
 Charge =  0 Multiplicity = 1

 SCF Done:  E(UB3LYP) =  -765.363680966     A.U. after   15 cycles
 SCF Done:  E(UB3LYP) =  -765.400155538     A.U. after   13 cycles
 SCF Done:  E(UB3LYP) =  -765.424056925     A.U. after   15 cycles
 SCF Done:  E(UB3LYP) =  -765.430726216     A.U. after   14 cycles
 SCF Done:  E(UB3LYP) =  -765.431334873     A.U. after   13 cycles
 SCF Done:  E(UB3LYP) =  -765.431718612     A.U. after   12 cycles
 SCF Done:  E(UB3LYP) =  -765.431794950     A.U. after   12 cycles
 SCF Done:  E(UB3LYP) =  -765.431801192     A.U. after   12 cycles
 SCF Done:  E(UB3LYP) =  -765.431815346     A.U. after   11 cycles
 SCF Done:  E(UB3LYP) =  -765.431817796     A.U. after   10 cycles
 SCF Done:  E(UB3LYP) =  -765.431824197     A.U. after   11 cycles
 SCF Done:  E(UB3LYP) =  -765.431835938     A.U. after   12 cycles
 SCF Done:  E(UB3LYP) =  -765.431846160     A.U. after   11 cycles
 SCF Done:  E(UB3LYP) =  -765.431854937     A.U. after   13 cycles
 SCF Done:  E(UB3LYP) =  -765.431856149     A.U. after   11 cycles
 SCF Done:  E(UB3LYP) =  -765.431856265     A.U. after   11 cycles
 SCF Done:  E(UB3LYP) =  -765.431856327     A.U. after   10 cycles
 Optimization completed.
    -- Stationary point found.
 Normal termination of Gaussian 16 at Sat Jan  6 03:20:21 2024.

 ----------------------------------------------------------------------
 #P Geom=AllCheck Guess=TCheck SCRF=Check GenChk UB3LYP/6-311++G(d,p) F
 req
 ----------------------------------------------------------------------

 Structure from the checkpoint file:  "340.chk"
 --------
 Oxidized
 --------
 Charge =  0 Multiplicity = 1

                          Input orientation:
 ---------------------------------------------------------------------
 Center     Atomic      Atomic             Coordinates (Angstroms)
 Number     Number       Type             X           Y           Z
 ---------------------------------------------------------------------
      1          8           0        2.317833    2.770105   -0.210838
      2          6           0        2.378196    1.431867   -0.164629
      3          6           0        3.643633    0.838199   -0.144717
      4          6           0        3.756771   -0.541966   -0.094620
      5          6           0        2.623288   -1.358080   -0.067041
      6          6           0        1.354705   -0.791590   -0.087617
      7          6           0        0.142142   -1.686116   -0.103203
      8          6           0       -1.197438   -1.015842    0.061079
      9          6           0       -2.337305   -1.793942    0.221942
     10          6           0       -3.590885   -1.187563    0.333428
     11          6           0       -3.725868    0.190678    0.284643
     12          6           0       -2.593723    0.995009    0.125069
     13          8           0       -2.772628    2.322840    0.085752
     14          6           0       -1.306969    0.391553    0.014642
     15          6           0       -0.114364    1.226901   -0.112687
     16          8           0       -0.228518    2.480890   -0.180843
     17          6           0        1.211878    0.612865   -0.132112
     18          1           0        1.364543    3.020817   -0.218675
     19          1           0        4.514307    1.481488   -0.167595
     20          1           0        4.742283   -0.994316   -0.076333
     21          1           0        2.731598   -2.436416   -0.031011
     22          1           0        0.254757   -2.458529    0.664776
     23          1           0        0.134129   -2.228463   -1.058526
     24          1           0       -2.251700   -2.874277    0.259266
     25          1           0       -4.474011   -1.804102    0.460549
     26          1           0       -4.691834    0.672599    0.368782
     27          1           0       -1.884822    2.735389   -0.029478
 ---------------------------------------------------------------------

 SCF Done:  E(UB3LYP) =  -765.431856327     A.U. after    2 cycles

 Alpha  occ. eigenvalues --  -19.15312 -19.15312 -19.13907 -10.28841 -10.26074
 Alpha  occ. eigenvalues --  -10.26074 -10.21485 -10.21485 -10.20598 -10.20272
 Alpha  occ. eigenvalues --  -10.20271 -10.19999 -10.19999 -10.18558 -10.18558
 Alpha  occ. eigenvalues --  -10.18372 -10.18372  -1.08946  -1.07517  -1.05058
 Alpha  occ. eigenvalues --   -0.89667  -0.87229  -0.81866  -0.78773  -0.77080
 Alpha  occ. eigenvalues --   -0.76038  -0.71838  -0.66853  -0.65952  -0.61788
 Alpha  occ. eigenvalues --   -0.61382  -0.58684  -0.54974  -0.54359  -0.54145
 Alpha  occ. eigenvalues --   -0.49996  -0.49162  -0.48712  -0.47642  -0.46518
 Alpha  occ. eigenvalues --   -0.45470  -0.44288  -0.43686  -0.43085  -0.42759
 Alpha  occ. eigenvalues --   -0.41179  -0.40815  -0.39757  -0.39148  -0.38817
 Alpha  occ. eigenvalues --   -0.36414  -0.35919  -0.35596  -0.34568  -0.28735
 Alpha  occ. eigenvalues --   -0.28516  -0.27533  -0.24175  -0.23957
 Alpha virt. eigenvalues --   -0.09286  -0.03639  -0.03097  -0.01572  -0.01064
 Alpha virt. eigenvalues --   -0.00407   0.00669   0.00853   0.01950   0.02276
 Alpha virt. eigenvalues --    0.03057   0.03494   0.03651   0.03673   0.05561

  Beta  occ. eigenvalues --  -19.15312 -19.15312 -19.13907 -10.28841 -10.26074
  Beta  occ. eigenvalues --  -10.26074 -10.21485 -10.21485 -10.20598 -10.20272
  Beta  occ. eigenvalues --  -10.20271 -10.19999 -10.19999 -10.18558 -10.18558
  Beta  occ. eigenvalues --  -10.18372 -10.18372  -1.08946  -1.07517  -1.05058
  Beta  occ. eigenvalues --   -0.89667  -0.87229  -0.81866  -0.78773  -0.77080
  Beta  occ. eigenvalues --   -0.76038  -0.71838  -0.66853  -0.65952  -0.61788
  Beta  occ. eigenvalues --   -0.61382  -0.58684  -0.54974  -0.54359  -0.54145
  Beta  occ. eigenvalues --   -0.49996  -0.49162  -0.48712  -0.47642  -0.46518
  Beta  occ. eigenvalues --   -0.45470  -0.44288  -0.43686  -0.43085  -0.42759
  Beta  occ. eigenvalues --   -0.41179  -0.40815  -0.39757  -0.39148  -0.38817
  Beta  occ. eigenvalues --   -0.36414  -0.35919  -0.35596  -0.34568  -0.28735
  Beta  occ. eigenvalues --   -0.28516  -0.27533  -0.24175  -0.23957
  Beta virt. eigenvalues --   -0.09286  -0.03639  -0.03097  -0.01572  -0.01064
  Beta virt. eigenvalues --   -0.00407   0.00669   0.00853   0.01950   0.02276
  Beta virt. eigenvalues --    0.03057   0.03494   0.03651   0.03673   0.05561

 Mulliken charges and spin densities:
               1          2
     1  O   -0.280171   0.000000
     2  C   -0.003423   0.000000
     3  C   -0.230745   0.000000
     4  C   -0.156334   0.000000
     5  C   -0.272400  -0.000000
     6  C   -0.570279  -0.000000
     7  C   -0.510351   0.000000
     8  C   -0.570321  -0.000000
     9  C   -0.272350   0.000000
    10  C   -0.156289  -0.000000
    11  C   -0.230744  -0.000000
    12  C   -0.003478   0.000000
    13  O   -0.280142   0.000000
    14  C    1.021502   0.000000
    15  C   -0.259289  -0.000000
    16  O   -0.372495   0.000000
    17  C    1.021335   0.000000
    18  H    0.360864  -0.000000
    19  H    0.187133   0.000000
    20  H    0.176144  -0.000000
    21  H    0.153119  -0.000000
    22  H    0.149155   0.000000
    23  H    0.222322   0.000000
    24  H    0.153123  -0.000000
    25  H    0.176143   0.000000
    26  H    0.187135  -0.000000
    27  H    0.360836  -0.000000
 Sum of Mulliken charges =  -0.00000  -0.00000

 Dipole moment (field-independent basis, Debye):
    X=              0.3970    Y=             -4.4806    Z=              0.0591  Tot=              4.4986
 Quadrupole moment (field-independent basis, Debye-Ang):
   XX=            -92.3532   YY=            -99.6081   ZZ=           -101.8360
   XY=              0.6500   XZ=             -0.5645   YZ=              0.0820

  Exact polarizability: 255.982   5.334 193.439  -9.454  -4.296  88.216
 Approx polarizability: 367.414   0.079 361.221 -12.311  -9.084 143.124

                      1                      2                      3
                      A                      A                      A
 Frequencies --     32.6926                76.1264               132.4782
 Red. masses --      4.0053                 6.5023                 5.8568
 Frc consts  --      0.0025                 0.0222                 0.0606
 IR Inten    --      0.1674                 0.0091                 0.3208

                      4                      5                      6
                      A                      A                      A
 Frequencies --    199.1339               202.9791               218.1627
 Red. masses --      2.7601                 4.2730                 5.4732
 Frc consts  --      0.0645                 0.1037                 0.1535
 IR Inten    --      4.8852                 0.0263                 0.6742

                      7                      8                      9
                      A                      A                      A
 Frequencies --    234.3099               273.6790               335.5505
 Red. masses --      5.1567                 6.5416                 6.4360
 Frc consts  --      0.1668                 0.2887                 0.4270
 IR Inten    --      0.6338                 0.0136                10.5309

                     10                     11                     12
                      A                      A                      A
 Frequencies --    344.0475               449.3257               451.4454
 Red. masses --      6.7530                 3.7200                11.0597
 Frc consts  --      0.4710                 0.4425                 1.3280
 IR Inten    --      4.9246                 3.3570                 7.2837

                     13                     14                     15
                      A                      A                      A
 Frequencies --    482.2412               490.1583               492.7004
 Red. masses --      5.0086                 3.8559                 6.7709
 Frc consts  --      0.6863                 0.5458                 0.9684
 IR Inten    --      0.5437                 0.1245                 1.2094

                     16                     17                     18
                      A                      A                      A
 Frequencies --    511.2866               552.2479               555.4003
 Red. masses --      6.3287                 3.1860                 7.7266
 Frc consts  --      0.9748                 0.5725                 1.4043
 IR Inten    --      4.0896                 1.6799                 3.0439

                     19                     20                     21
                      A                      A                      A
 Frequencies --    590.9097               619.3041               620.9637
 Red. masses --      4.0580                 4.8753                 8.0656
 Frc consts  --      0.8348                 1.1017                 1.8324
 IR Inten    --      0.1475                28.1842                15.5864

                     22                     23                     24
                      A                      A                      A
 Frequencies --    649.4095               683.4326               729.3187
 Red. masses --      5.2892                 3.9287                 2.8683
 Frc consts  --      1.3142                 1.0812                 0.8989
 IR Inten    --      5.6421                 6.7851                 0.4069

                     25                     26                     27
                      A                      A                      A
 Frequencies --    781.2293               782.2123               785.6578
 Red. masses --      1.2535                 1.3117                 3.2155
 Frc consts  --      0.4508                 0.4728                 1.1694
 IR Inten    --    204.3895                40.7965                 6.1543

                     28                     29                     30
                      A                      A                      A
 Frequencies --    786.7167               805.8108               808.0398
 Red. masses --      5.1360                 1.3982                 1.2659
 Frc consts  --      1.8729                 0.5349                 0.4870
 IR Inten    --     31.3271                36.0058                 1.0084

                     31                     32                     33
                      A                      A                      A
 Frequencies --    812.1193               885.3123               894.7196
 Red. masses --      5.4270                 1.5417                 1.4030
 Frc consts  --      2.1089                 0.7120                 0.6617
 IR Inten    --      3.3695                 4.9848                 0.0017

                     34                     35                     36
                      A                      A                      A
 Frequencies --    930.2565               952.1749               991.9937
 Red. masses --      5.9855                 2.2425                 1.3143
 Frc consts  --      3.0518                 1.1979                 0.7620
 IR Inten    --     36.8967                 5.0340                 0.0201

                     37                     38                     39
                      A                      A                      A
 Frequencies --    992.2370              1038.2049              1039.1312
 Red. masses --      1.3153                 4.0315                 4.7077
 Frc consts  --      0.7629                 2.5603                 2.9950
 IR Inten    --      0.6468                 0.2070                12.7787

                     40                     41                     42
                      A                      A                      A
 Frequencies --   1092.6599              1093.8255              1178.1810
 Red. masses --      1.8114                 2.3171                 1.9678
 Frc consts  --      1.2742                 1.6334                 1.6094
 IR Inten    --      1.6092                26.8993                17.8198

                     43                     44                     45
                      A                      A                      A
 Frequencies --   1192.2686              1192.9379              1210.4371
 Red. masses --      1.1887                 1.6034                 1.6426
 Frc consts  --      0.9956                 1.3444                 1.4180
 IR Inten    --     28.6223                 0.0412                68.1137

                     46                     47                     48
                      A                      A                      A
 Frequencies --   1230.9529              1245.3340              1259.5067
 Red. masses --      1.1016                 2.0280                 1.8953
 Frc consts  --      0.9834                 1.8531                 1.7714
 IR Inten    --      5.8421                44.4128               196.7497

                     49                     50                     51
                      A                      A                      A
 Frequencies --   1316.7103              1332.9057              1335.9764
 Red. masses --      4.3151                 2.6161                 3.4587
 Frc consts  --      4.4078                 2.7384                 3.6372
 IR Inten    --    201.2803                64.6110                 7.7622

                     52                     53                     54
                      A                      A                      A
 Frequencies --   1344.9181              1388.9968              1396.7267
 Red. masses --      4.8986                 2.9506                 4.2715
 Frc consts  --      5.2205                 3.3540                 4.9097
 IR Inten    --     61.9027               106.8656               132.9265

                     55                     56                     57
                      A                      A                      A
 Frequencies --   1422.1763              1447.5707              1476.5961
 Red. masses --      2.2762                 1.1411                 2.2841
 Frc consts  --      2.7125                 1.4088                 2.9343
 IR Inten    --     63.6762                 5.9732                77.9356

                     58                     59                     60
                      A                      A                      A
 Frequencies --   1483.5758              1518.0035              1519.2306
 Red. masses --      2.3548                 2.6648                 2.7638
 Frc consts  --      3.0536                 3.6179                 3.7585
 IR Inten    --    163.3679                 0.4519               262.6413

                     61                     62                     63
                      A                      A                      A
 Frequencies --   1596.8729              1610.2485              1633.8134
 Red. masses --      3.6431                 4.9016                 6.4526
 Frc consts  --      5.4735                 7.4881                10.1483
 IR Inten    --      6.7878                74.0369               250.1893

                     64                     65                     66
                      A                      A                      A
 Frequencies --   1647.6275              1669.4711              2999.9350
 Red. masses --      5.3320                 4.7406                 1.0701
 Frc consts  --      8.5282                 7.7848                 5.6740
 IR Inten    --    277.1781               178.7102                 3.1844

                     67                     68                     69
                      A                      A                      A
 Frequencies --   3043.6957              3164.1043              3164.2503
 Red. masses --      1.0894                 1.0871                 1.0872
 Frc consts  --      5.9463                 6.4123                 6.4134
 IR Inten    --      4.9095                 5.9593                 2.0232

                     70                     71                     72
                      A                      A                      A
 Frequencies --   3179.3166              3179.4958              3199.5253
 Red. masses --      1.0929                 1.0929                 1.0944
 Frc consts  --      6.5085                 6.5096                 6.6011
 IR Inten    --      8.1637                21.2433                 9.5284

                     73                     74                     75
                      A                      A                      A
 Frequencies --   3199.6171              3358.0456              3391.3157
 Red. masses --      1.0944                 1.0665                 1.0684
 Frc consts  --      6.6014                 7.0860                 7.2397
 IR Inten    --      0.8214               678.0333                39.0413

 - Thermochemistry -
 -------------------
 Temperature   298.150 Kelvin.  Pressure   1.00000 Atm.
 Atom     1 has atomic number  8 and mass  15.99491

 Molecular mass:   226.06299 amu.
 Principal axes and moments of inertia in atomic units:
                           1         2         3
     Eigenvalues --  1884.044184824.696876689.08512
           X            0.99449  -0.08939   0.05479
           Y            0.08738   0.99545   0.03802
           Z           -0.05794  -0.03303   0.99777
 This molecule is an asymmetric top.
 Rotational symmetry number  1.
 Warning -- assumption of classical behavior for rotation
           may cause significant error
 Rotational temperatures (Kelvin)      0.04597     0.01795     0.01295
 Rotational constants (GHZ):           0.95791     0.37406     0.26980
 Zero-point vibrational energy     543881.9 (Joules/Mol)
                                  129.99088 (Kcal/Mol)
 Warning -- explicit consideration of  20 degrees of freedom as
           vibrations may cause significant error
 Vibrational temperatures:     47.04   109.53   190.61   286.51   292.04
          (Kelvin)            313.89   337.12   393.76   482.78   495.01
                              646.48   649.53   693.84   705.23   708.89
                              735.63   794.56   799.10   850.19   891.04
                              893.43   934.36   983.31  1049.33  1124.01
                             1125.43  1130.39  1131.91  1159.38  1162.59
                             1168.46  1273.77  1287.30  1338.43  1369.97
                             1427.26  1427.61  1493.75  1495.08  1572.09
                             1573.77  1695.14  1715.41  1716.37  1741.55
                             1771.07  1791.76  1812.15  1894.45  1917.75
                             1922.17  1935.04  1998.46  2009.58  2046.19
                             2082.73  2124.49  2134.53  2184.07  2185.83
                             2297.54  2316.79  2350.69  2370.57  2402.00
                             4316.24  4379.20  4552.44  4552.65  4574.33
                             4574.59  4603.40  4603.54  4831.48  4879.35

 Zero-point correction=                           0.207154 (Hartree/Particle)
 Thermal correction to Energy=                    0.219476
 Thermal correction to Enthalpy=                  0.220420
 Thermal correction to Gibbs Free Energy=         0.168210
 Sum of electronic and zero-point Energies=           -765.224703
 Sum of electronic and thermal Energies=              -765.212380
 Sum of electronic and thermal Enthalpies=            -765.211436
 Sum of electronic and thermal Free Energies=         -765.263646

                     E (Thermal)             CV                S
                      KCal/Mol        Cal/Mol-Kelvin    Cal/Mol-Kelvin
 Total                  137.723             51.053            109.885
 Electronic               0.000              0.000              0.000
 Translational            0.889              2.981             42.149
 Rotational               0.889              2.981             32.475
 Vibrational            135.946             45.091             35.260
 Vibration     1          0.594              1.983              5.659
 Vibration     2          0.599              1.965              3.988
 Vibration     3          0.613              1.921              2.910
 Vibration     4          0.637              1.841              2.141
 Vibration     5          0.639              1.836              2.106
 Vibration     6          0.646              1.813              1.974
 Vibration     7          0.654              1.788              1.846
 Vibration     8          0.676              1.722              1.573
 Vibration     9          0.717              1.605              1.233
 Vibration    10          0.723              1.587              1.193
 Vibration    11          0.808              1.362              0.798
 Vibration    12          0.810              1.358              0.791
 Vibration    13          0.838              1.289              0.704
 Vibration    14          0.846              1.272              0.683
 Vibration    15          0.848              1.266              0.677
 Vibration    16          0.866              1.225              0.630
 Vibration    17          0.908              1.135              0.540
 Vibration    18          0.911              1.128              0.533
 Vibration    19          0.948              1.051              0.466
 Vibration    20          0.979              0.991              0.418

 Optimization completed.
    -- Stationary point found.
 Normal termination of Gaussian 16 at Sat Jan  6 04:25:51 2024.
