 Q-Chem 5.4, Q-Chem, Inc., Pleasanton, CA (2021)
 Q-Chem 5.4.0 for Intel X86 EM64T Linux

User input:
--------------------------------------------------------------
$molecule
0 1
O                 -0.1394400000     -2.4647890000      0.3148940000
C                 -0.0710330000     -1.2509620000      0.1598980000
C                 -1.3060320000     -0.4230480000      0.1799600000
C                 -2.5293630000     -1.0901040000      0.3814600000
C                 -3.7283190000     -0.4035660000      0.4151090000
C                 -3.7329560000      0.9873620000      0.2455310000
C                 -2.5455340000      1.6696750000      0.0457190000
C                 -1.3261030000      0.9722740000      0.0113930000
S                  0.1107670000      1.9567600000     -0.2498420000
C                  1.4257000000      0.7849580000     -0.2356470000
C                  2.7143810000      1.3115060000     -0.4263460000
C                  3.8156850000      0.4732930000     -0.4321520000
C                  3.6542600000     -0.9063740000     -0.2479790000
C                  2.3870870000     -1.4248960000     -0.0603130000
C                  1.2484570000     -0.5969210000     -0.0495620000
H                 -2.4907380000     -2.1648190000      0.5090210000
H                 -4.6584980000     -0.9367780000      0.5714860000
H                 -4.6669810000      1.5372990000      0.2698660000
H                 -2.5512570000      2.7462120000     -0.0853270000
H                  2.8417580000      2.3789370000     -0.5691340000
H                  4.8046090000      0.8921830000     -0.5803250000
H                  4.5167770000     -1.5621670000     -0.2526330000
H                  2.2267740000     -2.4860360000      0.0849240000
$end
$rem
MAX_SCF_CYCLES=200
BASIS  =  6-311++G(d,p)
GUI  =  2
JOB_TYPE  =  SP
METHOD  =  B3LYP
SOLVENT_METHOD = COSMO
$end
$solvent
dielectric 37.219
opticaldielectric 1.43
$end

--------------------------------------------------------------

             Standard Nuclear Orientation (Angstroms)
    I     Atom           X                Y                Z
 ----------------------------------------------------------------
    1      O       0.0001459409    -2.6045147900     0.0001021257
    2      C      -0.0002020176    -1.3789214062     0.0000905411
    3      C      -1.2852567803    -0.6307898259     0.0001117393
    4      C      -2.4737233056    -1.3855427728     0.0001012235
    5      C      -3.7146055059    -0.7771239038    -0.0000219254
    6      C      -3.7982234188     0.6216137164    -0.0001474738
    7      C      -2.6466232338     1.3892489707    -0.0001088463
    8      C      -1.3845992027     0.7713058331     0.0000192122
    9      S      -0.0000914168     1.8599701511     0.0000213255
   10      C       1.3846129200     0.7714095812     0.0000918636
   11      C       2.6465644762     1.3893059244     0.0001511779
   12      C       3.7981903471     0.6216711952     0.0000118071
   13      C       3.7147265128    -0.7770755676    -0.0001814598
   14      C       2.4738750589    -1.3854329242    -0.0001838002
   15      C       1.2854097065    -0.6306571042    -0.0000126800
   16      H      -2.3739841396    -2.4638878588     0.0001715312
   17      H      -4.6167968991    -1.3771676228    -0.0000431025
   18      H      -4.7657647761     1.1107857740    -0.0002768967
   19      H      -2.7134797454     2.4716850728    -0.0002129802
   20      H       2.7136346550     2.4716754705     0.0002494335
   21      H       4.7657627205     1.1107503805     0.0000359837
   22      H       4.6166182115    -1.3775862169    -0.0003145001
   23      H       2.3734317736    -2.4637293944    -0.0002959569
 ----------------------------------------------------------------

    9    -973.8014456037      2.76e-06  Convergence criterion met
 Total energy in the final basis set =     -973.8014456037
    5    -973.8136491973      3.96e-06  Convergence criterion met
 Total energy in the final basis set =     -973.8136491973

                    Orbital Energies (a.u.)
 --------------------------------------------------------------

 Alpha MOs
 -- Occupied --
-88.8886 -19.1153 -10.2749 -10.2371 -10.2371 -10.2037 -10.2037 -10.1945
-10.1945 -10.1939 -10.1939 -10.1907 -10.1907 -10.1862 -10.1862  -7.9749
 -5.9384  -5.9344  -5.9298  -1.0537  -0.9020  -0.8799  -0.8256  -0.7878
 -0.7743  -0.7680  -0.7234  -0.6660  -0.6388  -0.6155  -0.6071  -0.5614
 -0.5513  -0.5059  -0.4843  -0.4828  -0.4760  -0.4495  -0.4455  -0.4424
 -0.4419  -0.4332  -0.4012  -0.3925  -0.3874  -0.3821  -0.3704  -0.3602
 -0.3454  -0.3326  -0.2822  -0.2769  -0.2749  -0.2746  -0.2298

          Ground-State Mulliken Net Atomic Charges

     Atom                 Charge (a.u.)
  ----------------------------------------
      1 O                    -0.340021
      2 C                    -0.058270
      3 C                     1.818538
      4 C                     0.303549
      5 C                    -0.455028
      6 C                    -0.215412
      7 C                    -0.530490
      8 C                    -1.144022
      9 S                    -0.903897
     10 C                    -1.144511
     11 C                    -0.530974
     12 C                    -0.215563
     13 C                    -0.455804
     14 C                     0.303641
     15 C                     1.819358
     16 H                     0.205609
     17 H                     0.219754
     18 H                     0.219202
     19 H                     0.229827
     20 H                     0.229985
     21 H                     0.219198
     22 H                     0.219777
     23 H                     0.205553
  ----------------------------------------
  Sum of atomic charges =     0.000000

                    Cartesian Multipole Moments
 -----------------------------------------------------------------
    Charge (ESU x 10^10)
                -0.0000
    Dipole Moment (Debye)
         X      -0.0034      Y       4.3358      Z       0.0008
       Tot       4.3358
    Quadrupole Moments (Debye-Ang)
        XX     -64.7345     XY      -0.0004     YY     -97.1124
        XZ       0.0004     YZ       0.0006     ZZ     -99.0199

 Total job time:  40.30s(wall), 295.00s(cpu)
        *  Thank you very much for using Q-Chem.  Have a nice day.  *
