 Q-Chem 5.4, Q-Chem, Inc., Pleasanton, CA (2021)
 Q-Chem 5.4.0 for Intel X86 EM64T Linux

User input:
--------------------------------------------------------------
$molecule
-2 1
O                 -4.3546210000      1.0094620000     -1.6106680000
C                 -3.1844130000      0.5749030000     -0.9720220000
C                 -1.9358330000      0.9871800000     -1.3955470000
C                 -0.7575160000      0.5424440000     -0.7432330000
C                  0.5370030000      1.0057730000     -1.2274300000
O                  0.6396830000      1.8007530000     -2.2223460000
C                  1.6876840000      0.5034640000     -0.5045290000
C                  2.9873700000      0.8946080000     -0.8969940000
C                  4.1272130000      0.4534790000     -0.2519600000
C                  3.9966990000     -0.4348970000      0.8585640000
C                  2.7548420000     -0.8446750000      1.2789950000
C                  1.5538160000     -0.4044160000      0.6303330000
C                  0.2902760000     -0.8149300000      1.0501120000
O                  0.1699820000     -1.6775930000      2.1291160000
C                 -0.8692660000     -0.3518530000      0.3762140000
C                 -2.1848330000     -0.7736570000      0.8065670000
O                 -2.3959450000     -1.5901370000      1.8202740000
C                 -3.3110360000     -0.2964250000      0.1173470000
O                 -4.5350540000     -0.7446910000      0.5883110000
H                 -4.0566120000      1.5896570000     -2.3182560000
H                 -1.8150110000      1.6628190000     -2.2386270000
H                  3.0475280000      1.5706230000     -1.7450670000
H                  5.1122760000      0.7760960000     -0.5823830000
H                  4.8873190000     -0.7898220000      1.3755190000
H                  2.6527190000     -1.5196220000      2.1224940000
H                 -0.8142200000     -1.8152130000      2.2259510000
H                 -4.2300490000     -1.3133300000      1.3292630000
$end

$rem
BASIS  =  6-311++G(d,p)
GUI  =  2
JOB_TYPE  =  SP
METHOD  =  B3LYP
SCF_CONVERGENCE  = 8
SOLVENT_METHOD = sm12
$end

$smx
solvent dimethylformamide
charges CM5
$end

--------------------------------------------------------------

             Standard Nuclear Orientation (Angstroms)
    I     Atom           X                Y                Z
 ----------------------------------------------------------------
    1      O      -4.3546210000     1.0094620000    -1.6106680000
    2      C      -3.1844130000     0.5749030000    -0.9720220000
    3      C      -1.9358330000     0.9871800000    -1.3955470000
    4      C      -0.7575160000     0.5424440000    -0.7432330000
    5      C       0.5370030000     1.0057730000    -1.2274300000
    6      O       0.6396830000     1.8007530000    -2.2223460000
    7      C       1.6876840000     0.5034640000    -0.5045290000
    8      C       2.9873700000     0.8946080000    -0.8969940000
    9      C       4.1272130000     0.4534790000    -0.2519600000
   10      C       3.9966990000    -0.4348970000     0.8585640000
   11      C       2.7548420000    -0.8446750000     1.2789950000
   12      C       1.5538160000    -0.4044160000     0.6303330000
   13      C       0.2902760000    -0.8149300000     1.0501120000
   14      O       0.1699820000    -1.6775930000     2.1291160000
   15      C      -0.8692660000    -0.3518530000     0.3762140000
   16      C      -2.1848330000    -0.7736570000     0.8065670000
   17      O      -2.3959450000    -1.5901370000     1.8202740000
   18      C      -3.3110360000    -0.2964250000     0.1173470000
   19      O      -4.5350540000    -0.7446910000     0.5883110000
   20      H      -4.0566120000     1.5896570000    -2.3182560000
   21      H      -1.8150110000     1.6628190000    -2.2386270000
   22      H       3.0475280000     1.5706230000    -1.7450670000
   23      H       5.1122760000     0.7760960000    -0.5823830000
   24      H       4.8873190000    -0.7898220000     1.3755190000
   25      H       2.6527190000    -1.5196220000     2.1224940000
   26      H      -0.8142200000    -1.8152130000     2.2259510000
   27      H      -4.2300490000    -1.3133300000     1.3292630000
 ----------------------------------------------------------------

   18    -914.7090519384      3.35e-09  Convergence criterion met
 Total energy in the final basis set =     -914.9818625736

                    Orbital Energies (a.u.)
 --------------------------------------------------------------

 Alpha MOs
 -- Occupied --
-19.1467 -19.1263 -19.1078 -19.0605 -19.0382 -10.2193 -10.2034 -10.1986
-10.1974 -10.1963 -10.1759 -10.1725 -10.1705 -10.1692 -10.1630 -10.1598
-10.1544 -10.1542 -10.1466  -1.0518  -1.0338  -1.0174  -0.9572  -0.9567
 -0.8486  -0.8245  -0.7745  -0.7480  -0.7208  -0.7114  -0.6617  -0.6326
 -0.6078  -0.5880  -0.5640  -0.5331  -0.5156  -0.5134  -0.4941  -0.4874
 -0.4637  -0.4381  -0.4332  -0.4210  -0.4202  -0.4187  -0.4015  -0.3947
 -0.3918  -0.3725  -0.3702  -0.3665  -0.3591  -0.3505  -0.3467  -0.3423
 -0.3345  -0.3202  -0.3140  -0.2801  -0.2587  -0.2492  -0.2427  -0.2134
 -0.2106  -0.1827  -0.1294

          Ground-State Mulliken Net Atomic Charges

     Atom                 Charge (a.u.)
  ----------------------------------------
      1 O                    -0.129290
      2 C                     1.736275
      3 C                     0.242982
      4 C                    -0.918010
      5 C                    -2.570296
      6 O                    -0.312922
      7 C                    -2.125800
      8 C                    -0.122258
      9 C                     1.406961
     10 C                     1.444292
     11 C                     0.172436
     12 C                    -0.913790
     13 C                    -1.214605
     14 O                    -0.251339
     15 C                    -0.763506
     16 C                    -0.415707
     17 O                    -0.457654
     18 C                     1.134282
     19 O                    -0.218175
     20 H                     0.384948
     21 H                     0.097934
     22 H                     0.120469
     23 H                     0.359255
     24 H                     0.396717
     25 H                     0.173515
     26 H                     0.401839
     27 H                     0.341447
  ----------------------------------------
  Sum of atomic charges =    -2.000000

                    Cartesian Multipole Moments
 -----------------------------------------------------------------
    Charge (ESU x 10^10)
                -9.6064
    Dipole Moment (Debye)
         X       3.4550      Y       0.0156      Z       0.2465
       Tot       3.4638
    Quadrupole Moments (Debye-Ang)
        XX    -187.7207     XY     -10.3118     YY    -136.7116
        XZ       7.9256     YZ      17.1793     ZZ    -143.5025

 Total job time:  704.19s(wall), 5514.45s(cpu)
        *  Thank you very much for using Q-Chem.  Have a nice day.  *
