 Q-Chem 5.4, Q-Chem, Inc., Pleasanton, CA (2021)
 Q-Chem 5.4.0 for Intel X86 EM64T Linux

User input:
--------------------------------------------------------------
$molecule
-2 1
C                 -1.5566670000     -1.5435210000     -0.6384990000
C                 -1.1624990000     -0.1329380000     -0.1341440000
C                 -1.5480270000     -0.0055560000      1.3607230000
C                 -1.9975720000      0.8956770000     -0.9217130000
C                  0.3612210000      0.0639030000     -0.2925250000
C                  0.8759080000      1.0912200000     -1.0871790000
C                  2.2624140000      1.3789330000     -1.3154900000
O                  2.6676760000      2.3480720000     -2.0633960000
C                  3.1094670000      0.4650210000     -0.6150860000
C                  2.6178940000     -0.5783450000      0.1917440000
Cl                 3.7635210000     -1.6735150000      1.0282500000
C                  1.2331170000     -0.8547790000      0.4111970000
O                  0.8077130000     -1.8255370000      1.1603360000
Cl                 4.8748680000      0.7092180000     -0.8093640000
H                 -0.9610760000     -2.2872970000     -0.1042840000
H                 -2.6293230000     -1.7351500000     -0.4733000000
H                 -1.3555330000     -1.6280270000     -1.7129610000
H                 -0.9524030000     -0.7153700000      1.9392620000
H                 -2.6207900000     -0.2096870000      1.5091130000
H                 -1.3405760000      1.0104000000      1.7168880000
H                 -3.0663140000      0.6953330000     -0.7624430000
H                 -1.7984110000      0.8416190000     -1.9966060000
H                 -1.7916640000      1.9198970000     -0.5952050000
H                  0.2070570000      1.7704280000     -1.6069090000
$end
$rem
MAX_SCF_CYCLES=200
BASIS  =  6-311++G(d,p)
GUI  =  2
JOB_TYPE  =  SP
METHOD  =  B3LYP
SOLVENT_METHOD = PCM
$end
$pcm
theory = CPCM
$end
$solvent
dielectric 37.219
opticaldielectric 1.43
$end

--------------------------------------------------------------

             Standard Nuclear Orientation (Angstroms)
    I     Atom           X                Y                Z
 ----------------------------------------------------------------
    1      C      -1.5566670000    -1.5435210000    -0.6384990000
    2      C      -1.1624990000    -0.1329380000    -0.1341440000
    3      C      -1.5480270000    -0.0055560000     1.3607230000
    4      C      -1.9975720000     0.8956770000    -0.9217130000
    5      C       0.3612210000     0.0639030000    -0.2925250000
    6      C       0.8759080000     1.0912200000    -1.0871790000
    7      C       2.2624140000     1.3789330000    -1.3154900000
    8      O       2.6676760000     2.3480720000    -2.0633960000
    9      C       3.1094670000     0.4650210000    -0.6150860000
   10      C       2.6178940000    -0.5783450000     0.1917440000
   11      Cl      3.7635210000    -1.6735150000     1.0282500000
   12      C       1.2331170000    -0.8547790000     0.4111970000
   13      O       0.8077130000    -1.8255370000     1.1603360000
   14      Cl      4.8748680000     0.7092180000    -0.8093640000
   15      H      -0.9610760000    -2.2872970000    -0.1042840000
   16      H      -2.6293230000    -1.7351500000    -0.4733000000
   17      H      -1.3555330000    -1.6280270000    -1.7129610000
   18      H      -0.9524030000    -0.7153700000     1.9392620000
   19      H      -2.6207900000    -0.2096870000     1.5091130000
   20      H      -1.3405760000     1.0104000000     1.7168880000
   21      H      -3.0663140000     0.6953330000    -0.7624430000
   22      H      -1.7984110000     0.8416190000    -1.9966060000
   23      H      -1.7916640000     1.9198970000    -0.5952050000
   24      H       0.2070570000     1.7704280000    -1.6069090000
 ----------------------------------------------------------------

    9   -1458.3810751597      5.25e-06  Convergence criterion met
 Total energy in the final basis set =    -1458.3810751597

                    Orbital Energies (a.u.)
 --------------------------------------------------------------

 Alpha MOs
 -- Occupied --
********-101.5304 -19.0261 -19.0201 -10.1929 -10.1918 -10.1855 -10.1842
-10.1659 -10.1424 -10.1399 -10.1329 -10.1329 -10.1290  -9.4454  -9.4448
 -7.2093  -7.2089  -7.2008  -7.2001  -7.2001  -7.1994  -0.9443  -0.9379
 -0.8543  -0.8159  -0.8052  -0.7624  -0.6827  -0.6674  -0.6616  -0.6528
 -0.5725  -0.5436  -0.5040  -0.4608  -0.4462  -0.4275  -0.4175  -0.4108
 -0.4045  -0.3922  -0.3706  -0.3704  -0.3701  -0.3540  -0.3478  -0.3399
 -0.3342  -0.3191  -0.3177  -0.3085  -0.3046  -0.3004  -0.2965  -0.2812
 -0.2314  -0.2109  -0.2087  -0.1996  -0.1294

          Ground-State Mulliken Net Atomic Charges

     Atom                 Charge (a.u.)
  ----------------------------------------
      1 C                    -0.695250
      2 C                     0.563415
      3 C                    -0.694997
      4 C                    -0.533142
      5 C                     0.367566
      6 C                    -0.506471
      7 C                    -0.794442
      8 O                    -0.688945
      9 C                     0.628856
     10 C                     0.068291
     11 Cl                    0.263748
     12 C                    -1.085653
     13 O                    -0.620299
     14 Cl                    0.237710
     15 H                     0.177619
     16 H                     0.141196
     17 H                     0.125068
     18 H                     0.177667
     19 H                     0.141231
     20 H                     0.124850
     21 H                     0.169794
     22 H                     0.130781
     23 H                     0.131127
     24 H                     0.170281
  ----------------------------------------
  Sum of atomic charges =    -2.000000

                    Cartesian Multipole Moments
 -----------------------------------------------------------------
    Charge (ESU x 10^10)
                -9.6064
    Dipole Moment (Debye)
         X     -21.8372      Y      -1.4399      Z       3.5359
       Tot      22.1684
    Quadrupole Moments (Debye-Ang)
        XX    -177.0716     XY     -15.7995     YY    -143.9964
        XZ      17.7698     YZ      28.2349     ZZ    -130.5792

 Total job time:  51.63s(wall), 265.25s(cpu)
        *  Thank you very much for using Q-Chem.  Have a nice day.  *
