 Gaussian 16, Revision A.03,
 Gaussian 16:  ES64L-G16RevA.03 25-Dec-2016

 ----------------------------------------------------------------
 #P UB3LYP/6-311++G(d,p) SCRF=(PCM,Solvent=n,n-DiMethylFormamide)
 ----------------------------------------------------------------

 ------------------
 Radical PCM in DMF
 ------------------
 Symbolic Z-matrix:
 Charge = -1 Multiplicity = 2

                         Standard orientation:
 ---------------------------------------------------------------------
 Center     Atomic      Atomic             Coordinates (Angstroms)
 Number     Number       Type             X           Y           Z
 ---------------------------------------------------------------------
      1          6           0       -7.196011   -0.638472    0.647154
      2          6           0       -5.715145   -0.542281    0.366280
      3          6           0       -5.045845   -1.526812   -0.374846
      4          6           0       -3.696412   -1.423304   -0.673910
      5          6           0       -2.924715   -0.321486   -0.236494
      6          7           0       -1.578102   -0.323231   -0.547131
      7          6           0       -0.625017    0.688571   -0.407640
      8          6           0       -0.966183    2.031320   -0.501344
      9          6           0        0.004026    3.028395   -0.364042
     10          6           0        1.333177    2.714517   -0.132386
     11          8           0        2.240384    3.735258    0.022407
     12          6           0        1.755366    1.358507   -0.070481
     13          6           0        3.171255    1.028477    0.159177
     14          8           0        4.060441    1.886300    0.328104
     15          6           0        3.519036   -0.401117    0.186063
     16          6           0        4.859703   -0.772956    0.413906
     17          6           0        5.236395   -2.101832    0.438666
     18          6           0        4.269292   -3.108240    0.230526
     19          6           0        2.952311   -2.764199    0.003429
     20          6           0        2.548889   -1.408752   -0.019999
     21          6           0        1.150442   -1.083176   -0.259636
     22          8           0        0.327626   -2.032896   -0.491842
     23          6           0        0.760167    0.320691   -0.236538
     24          6           0       -3.591565    0.658308    0.525906
     25          6           0       -4.950524    0.538131    0.810875
     26          1           0       -7.481832    0.003186    1.485557
     27          1           0       -7.798089   -0.330811   -0.217392
     28          1           0       -7.492444   -1.662459    0.896825
     29          1           0       -5.595684   -2.394660   -0.730246
     30          1           0       -3.206325   -2.201157   -1.250091
     31          1           0       -1.111534   -1.241792   -0.647865
     32          1           0       -1.987139    2.315059   -0.715833
     33          1           0       -0.289511    4.073360   -0.441255
     34          1           0        1.749216    4.559798   -0.061193
     35          1           0        5.577572    0.024297    0.566372
     36          1           0        6.272839   -2.372576    0.616439
     37          1           0        4.562452   -4.153838    0.249015
     38          1           0        2.190422   -3.516180   -0.161359
     39          1           0       -3.039514    1.494217    0.931722
     40          1           0       -5.423178    1.311140    1.411856
 ---------------------------------------------------------------------

 SCF Done:  E(UB3LYP) =  -1090.14189061     A.U. after   20 cycles

 The electronic state is 2-A.
 Alpha  occ. eigenvalues --  -19.14843 -19.07874 -19.07210 -14.31830 -10.23279
 Alpha  occ. eigenvalues --  -10.22781 -10.22651 -10.21546 -10.21489 -10.18094
 Alpha  occ. eigenvalues --  -10.17906 -10.17365 -10.17302 -10.17234 -10.17218
 Alpha  occ. eigenvalues --  -10.17148 -10.17069 -10.17037 -10.17026 -10.16931
 Alpha  occ. eigenvalues --  -10.16922 -10.16912 -10.16821 -10.16701 -10.16302
 Alpha  occ. eigenvalues --   -1.06091  -1.00629  -1.00345  -0.94171  -0.86112
 Alpha  occ. eigenvalues --   -0.85471  -0.83833  -0.78586  -0.77013  -0.75044
 Alpha  occ. eigenvalues --   -0.74697  -0.74195  -0.73032  -0.67985  -0.66797
 Alpha  occ. eigenvalues --   -0.64118  -0.62962  -0.61202  -0.59786  -0.58024
 Alpha  occ. eigenvalues --   -0.56684  -0.55342  -0.54296  -0.51504  -0.50878
 Alpha  occ. eigenvalues --   -0.48037  -0.47530  -0.46841  -0.46075  -0.45870
 Alpha  occ. eigenvalues --   -0.44421  -0.43500  -0.43286  -0.42730  -0.42281
 Alpha  occ. eigenvalues --   -0.41835  -0.41690  -0.41056  -0.40782  -0.40079
 Alpha  occ. eigenvalues --   -0.39526  -0.38779  -0.38278  -0.37926  -0.37281
 Alpha  occ. eigenvalues --   -0.36652  -0.35495  -0.35304  -0.34954  -0.34130
 Alpha  occ. eigenvalues --   -0.33744  -0.33591  -0.30222  -0.26861  -0.25614
 Alpha  occ. eigenvalues --   -0.25604  -0.25121  -0.24974  -0.23883  -0.23228
 Alpha  occ. eigenvalues --   -0.18926  -0.13767
 Alpha virt. eigenvalues --   -0.04939  -0.02414  -0.01517  -0.00893  -0.00533
 Alpha virt. eigenvalues --    0.00049   0.00265   0.01143   0.01387   0.01620
 Alpha virt. eigenvalues --    0.02166   0.02450   0.03266   0.03697   0.03952

  Beta  occ. eigenvalues --  -19.14821 -19.07366 -19.06707 -14.31793 -10.23274
  Beta  occ. eigenvalues --  -10.22662 -10.22418 -10.21505 -10.21492 -10.18085
  Beta  occ. eigenvalues --  -10.17829 -10.17355 -10.17278 -10.17177 -10.17172
  Beta  occ. eigenvalues --  -10.17041 -10.17033 -10.17030 -10.16988 -10.16930
  Beta  occ. eigenvalues --  -10.16911 -10.16824 -10.16814 -10.16691 -10.16302
  Beta  occ. eigenvalues --   -1.06038  -0.99768  -0.99471  -0.94041  -0.85909
  Beta  occ. eigenvalues --   -0.85389  -0.83719  -0.78197  -0.76943  -0.74850
  Beta  occ. eigenvalues --   -0.74650  -0.74042  -0.72879  -0.67879  -0.66189
  Beta  occ. eigenvalues --   -0.63954  -0.62741  -0.61139  -0.59751  -0.57938
  Beta  occ. eigenvalues --   -0.56493  -0.55179  -0.54217  -0.51415  -0.50764
  Beta  occ. eigenvalues --   -0.47735  -0.47417  -0.46815  -0.45960  -0.45788
  Beta  occ. eigenvalues --   -0.44313  -0.43416  -0.42874  -0.42353  -0.42230
  Beta  occ. eigenvalues --   -0.41767  -0.41667  -0.40859  -0.40379  -0.39476
  Beta  occ. eigenvalues --   -0.39042  -0.38649  -0.38103  -0.37695  -0.36601
  Beta  occ. eigenvalues --   -0.35946  -0.35443  -0.34867  -0.34599  -0.33632
  Beta  occ. eigenvalues --   -0.33571  -0.33171  -0.29813  -0.25590  -0.25064
  Beta  occ. eigenvalues --   -0.24936  -0.24669  -0.24506  -0.23394  -0.22752
  Beta  occ. eigenvalues --   -0.18240
  Beta virt. eigenvalues --   -0.08345  -0.03993  -0.01493  -0.01370  -0.00762
  Beta virt. eigenvalues --   -0.00521   0.00056   0.00273   0.01171   0.01606
  Beta virt. eigenvalues --    0.01631   0.02172   0.02486   0.03412   0.03742

 Mulliken charges and spin densities:
               1          2
     1  C   -0.580959  -0.000633
     2  C    0.465355   0.007477
     3  C   -0.237229  -0.004074
     4  C   -0.556136   0.006857
     5  C   -0.248341  -0.010682
     6  N    0.024362   0.019053
     7  C    0.092690   0.040224
     8  C   -0.156832   0.059720
     9  C   -0.404400   0.083360
    10  C   -0.391901   0.016066
    11  O   -0.239808   0.004822
    12  C    0.489338   0.051356
    13  C   -0.311060   0.055123
    14  O   -0.439434   0.188569
    15  C    0.043834   0.042409
    16  C    0.090206   0.009862
    17  C   -0.544388   0.047990
    18  C   -0.536146   0.016488
    19  C   -0.013897   0.042135
    20  C    0.089785  -0.010293
    21  C   -0.191229   0.126219
    22  O   -0.420828   0.190695
    23  C    0.360102   0.021438
    24  C    0.212673   0.012573
    25  C   -0.583523   0.000940
    26  H    0.152255   0.000078
    27  H    0.167656   0.000520
    28  H    0.145985   0.000130
    29  H    0.185471   0.000207
    30  H    0.153810  -0.000928
    31  H    0.479383   0.001221
    32  H    0.199689  -0.005557
    33  H    0.172677  -0.007115
    34  H    0.290792  -0.000738
    35  H    0.163107  -0.000262
    36  H    0.180329  -0.003708
    37  H    0.183053  -0.001622
    38  H    0.154690  -0.002316
    39  H    0.183762   0.002242
    40  H    0.175107   0.000158
 Sum of Mulliken charges =  -1.00000   1.00000

 Dipole moment (field-independent basis, Debye):
    X=            -10.2770    Y=              0.6749    Z=              0.1837  Tot=             10.3007
 Quadrupole moment (field-independent basis, Debye-Ang):
   XX=           -189.3903   YY=           -149.9977   ZZ=           -155.1175
   XY=            -20.8346   XZ=             -3.4837   YZ=             -1.5939

 Normal termination of Gaussian 16 at Sun Jan 14 01:30:58 2024.
