 Q-Chem 5.4, Q-Chem, Inc., Pleasanton, CA (2021)
 Q-Chem 5.4.0 for Intel X86 EM64T Linux

User input:
--------------------------------------------------------------
$molecule
0 1
C                 -4.9941040000     -1.0461820000     -0.1228880000
O                 -3.5798890000     -1.0649110000      0.0317690000
C                 -2.8945910000      0.0958280000      0.0218250000
C                 -3.5207450000      1.3394900000     -0.1295670000
C                 -2.7700640000      2.5109350000     -0.1421760000
C                 -1.3897900000      2.4681120000     -0.0127900000
C                 -0.7478370000      1.2370820000      0.1257720000
C                  0.7545390000      1.2709230000      0.2480470000
O                  1.3136650000      2.3435880000      0.3969690000
C                  1.4790120000     -0.0226920000      0.1690930000
C                  2.8944940000     -0.0946000000      0.0508080000
O                  3.5800890000      1.0630500000     -0.0322690000
C                  4.9953430000      1.0318600000     -0.1752560000
C                  3.5213280000     -1.3464170000      0.0094900000
C                  2.7704290000     -2.5149710000      0.0907520000
C                  1.3892910000     -2.4617820000      0.2062420000
C                  0.7466890000     -1.2236510000      0.2355000000
C                 -0.7565780000     -1.2475400000      0.3490410000
O                 -1.3171740000     -2.3040160000      0.5836070000
C                 -1.4800370000      0.0345790000      0.1559500000
H                 -5.3007160000     -2.0896980000     -0.0861060000
H                 -5.4784860000     -0.4967940000      0.6909590000
H                 -5.2867640000     -0.6139080000     -1.0855370000
H                 -4.5947250000      1.3979990000     -0.2359680000
H                 -3.2759500000      3.4632350000     -0.2566130000
H                 -0.7895270000      3.3677400000     -0.0171320000
H                  5.3018550000      2.0748670000     -0.2250310000
H                  5.2944280000      0.5196990000     -1.0958280000
H                  5.4741630000      0.5536170000      0.6854320000
H                  4.5960120000     -1.4133430000     -0.0840750000
H                  3.2768480000     -3.4733760000      0.0608840000
H                  0.7887910000     -3.3587240000      0.2737730000
$end
$rem
MAX_SCF_CYCLES=200
BASIS  =  6-311++G(d,p)
GUI  =  2
JOB_TYPE  =  SP
METHOD  =  B3LYP
SOLVENT_METHOD = COSMO
$end
$solvent
dielectric 37.219
opticaldielectric 1.43
$end

--------------------------------------------------------------

             Standard Nuclear Orientation (Angstroms)
    I     Atom           X                Y                Z
 ----------------------------------------------------------------
    1      C       4.9667536294     1.1656074390    -0.2415477846
    2      O       3.5518090993     1.1549325026    -0.0929151784
    3      C       2.8960508864    -0.0222174558    -0.0562218578
    4      C       3.5540649515    -1.2548604067    -0.1526188771
    5      C       2.8332276391    -2.4444758803    -0.1183707723
    6      C       1.4517234514    -2.4312905431     0.0041167273
    7      C       0.7782940223    -1.2122067324     0.0881727178
    8      C      -0.7233057189    -1.2789925638     0.2063586064
    9      O      -1.2558962211    -2.3582689117     0.3985037859
   10      C      -1.4797901367    -0.0086724233     0.0701503233
   11      C      -2.8960673263     0.0222188063    -0.0561669288
   12      O      -3.5518587483    -1.1549391164    -0.0926724105
   13      C      -4.9667659349    -1.1657529435    -0.2419463100
   14      C      -3.5540667054     1.2548586505    -0.1526535799
   15      C      -2.8332592257     2.4444888193    -0.1181875035
   16      C      -1.4517736858     2.4313039654     0.0044218258
   17      C      -0.7783002554     1.2122250203     0.0883372490
   18      C       0.7233397066     1.2790432527     0.2061789422
   19      O       1.2560167735     2.3583679440     0.3978661232
   20      C       1.4797912269     0.0087011171     0.0700975512
   21      H       5.2467807963     2.2171942215    -0.2478327757
   22      H       5.4610278933     0.6635226633     0.5965475954
   23      H       5.2747133958     0.7006717060    -1.1839910615
   24      H       4.6296640324    -1.2905196527    -0.2525816287
   25      H       3.3634939715    -3.3876046499    -0.1906030547
   26      H       0.8743622081    -3.3452508896     0.0356689112
   27      H      -5.2466452827    -2.2173770137    -0.2486637759
   28      H      -5.2743669781    -0.7006483675    -1.1844285994
   29      H      -5.4615073580    -0.6639325460     0.5960131197
   30      H      -4.6296478081     1.2904697125    -0.2528351263
   31      H      -3.3635383150     3.3876130374    -0.1903902859
   32      H      -0.8744029298     3.3452537001     0.0361161460
 ----------------------------------------------------------------

    9    -918.0481187206      2.97e-06  Convergence criterion met
 Total energy in the final basis set =     -918.0481187206
    5    -918.0713972553      3.73e-06  Convergence criterion met
 Total energy in the final basis set =     -918.0713972553

                    Orbital Energies (a.u.)
 --------------------------------------------------------------

 Alpha MOs
 -- Occupied --
-19.1702 -19.1702 -19.1235 -19.1235 -10.2803 -10.2803 -10.2640 -10.2640
-10.2232 -10.2232 -10.2071 -10.2071 -10.2059 -10.2059 -10.1964 -10.1964
-10.1916 -10.1916 -10.1856 -10.1856  -1.0910  -1.0908  -1.0608  -1.0594
 -0.8888  -0.8763  -0.8099  -0.7823  -0.7790  -0.7698  -0.7165  -0.7133
 -0.6859  -0.6543  -0.6461  -0.6014  -0.5798  -0.5653  -0.5599  -0.5210
 -0.5142  -0.5124  -0.4910  -0.4886  -0.4835  -0.4809  -0.4764  -0.4567
 -0.4560  -0.4511  -0.4463  -0.4271  -0.4210  -0.4159  -0.4020  -0.3970
 -0.3891  -0.3876  -0.3778  -0.3760  -0.3520  -0.3492  -0.3414  -0.3382
 -0.2882  -0.2786  -0.2740  -0.2630  -0.2472  -0.2451

          Ground-State Mulliken Net Atomic Charges

     Atom                 Charge (a.u.)
  ----------------------------------------
      1 C                    -0.326423
      2 O                    -0.146725
      3 C                     0.000666
      4 C                    -0.060716
      5 C                    -0.407855
      6 C                     0.023880
      7 C                     0.648910
      8 C                    -0.468499
      9 O                    -0.310112
     10 C                    -0.168063
     11 C                    -0.000141
     12 O                    -0.146847
     13 C                    -0.326304
     14 C                    -0.060608
     15 C                    -0.407758
     16 C                     0.023803
     17 C                     0.647243
     18 C                    -0.467495
     19 O                    -0.310043
     20 C                    -0.169007
     21 H                     0.211369
     22 H                     0.181688
     23 H                     0.176063
     24 H                     0.221284
     25 H                     0.238875
     26 H                     0.186763
     27 H                     0.211339
     28 H                     0.176020
     29 H                     0.181701
     30 H                     0.221354
     31 H                     0.238872
     32 H                     0.186766
  ----------------------------------------
  Sum of atomic charges =     0.000000

                    Cartesian Multipole Moments
 -----------------------------------------------------------------
    Charge (ESU x 10^10)
                -0.0000
    Dipole Moment (Debye)
         X       0.0005      Y       0.0004      Z      -1.9809
       Tot       1.9809
    Quadrupole Moments (Debye-Ang)
        XX     -57.8421     XY     -16.6905     YY    -121.1635
        XZ       0.0047     YZ       0.0049     ZZ    -118.0082

 Total job time:  90.49s(wall), 645.38s(cpu)
        *  Thank you very much for using Q-Chem.  Have a nice day.  *
