 Q-Chem 5.4, Q-Chem, Inc., Pleasanton, CA (2021)
 Q-Chem 5.4.0 for Intel X86 EM64T Linux

User input:
--------------------------------------------------------------
$molecule
0 1
C                 -0.5459740000     -2.1947820000      1.0014700000
C                  0.8418410000     -2.4922140000      0.8457510000
C                  1.7777510000     -1.4951110000      0.7215900000
C                  1.3428900000     -0.0203870000      0.7484740000
C                 -0.0448990000      0.2770610000      0.9043910000
C                 -0.9807760000     -0.7200350000      1.0287490000
O                 -1.4248570000     -3.0524430000      1.1163870000
O                  2.2217000000      0.8373010000      0.6331500000
N                 -2.3069080000     -0.6098890000      1.1808970000
N                  3.1039060000     -1.6052690000      0.5696370000
C                 -3.1783990000      0.5811360000      1.2621230000
C                 -4.6075060000      0.0425290000      1.4370540000
C                 -2.8075630000      1.4418050000      2.4849720000
C                 -3.1007060000      1.3993350000     -0.0410130000
C                  3.9753850000     -2.7963350000      0.4881430000
C                  3.8972390000     -3.6152240000      1.7907830000
C                  5.4045860000     -2.2577160000      0.3141110000
C                  3.6049110000     -3.6563190000     -0.7353140000
H                  1.0960560000     -3.5416390000      0.8327490000
H                 -0.2991890000      1.3264750000      0.9172470000
H                 -2.7491590000     -1.5248080000      1.2461590000
H                  3.5461230000     -0.6903980000      0.5037570000
H                 -4.8972480000     -0.5823100000      0.5874360000
H                 -5.3158900000      0.8703880000      1.5052380000
H                 -4.6926910000     -0.5525700000      2.3507350000
H                 -2.8842960000      0.8534380000      3.4025090000
H                 -3.4929160000      2.2898750000      2.5621070000
H                 -1.7929780000      1.8358240000      2.4206900000
H                 -3.3840920000      0.7813990000     -0.8964640000
H                 -2.0995870000      1.7904170000     -0.2242290000
H                 -3.7879850000      2.2476410000      0.0129600000
H                  2.8962800000     -4.0070650000      1.9732010000
H                  4.1797200000     -2.9975950000      2.6467590000
H                  4.5850870000     -4.4630720000      1.7367790000
H                  5.6940380000     -1.6334420000      1.1642410000
H                  5.4901740000     -1.6620370000     -0.5991590000
H                  6.1129570000     -3.0855610000      0.2456290000
H                  2.5900910000     -4.0498540000     -0.6717710000
H                  4.2898980000     -4.5046880000     -0.8124260000
H                  3.6824660000     -3.0675640000     -1.6525310000
$end
$rem
MAX_SCF_CYCLES=200
BASIS  =  6-311++G(d,p)
GUI  =  2
JOB_TYPE  =  SP
METHOD  =  B3LYP
SOLVENT_METHOD = PCM
$end
$pcm
theory = CPCM
$end
$solvent
dielectric 37.219
opticaldielectric 1.43
$end

--------------------------------------------------------------

             Standard Nuclear Orientation (Angstroms)
    I     Atom           X                Y                Z
 ----------------------------------------------------------------
    1      C      -0.5459740000    -2.1947820000     1.0014700000
    2      C       0.8418410000    -2.4922140000     0.8457510000
    3      C       1.7777510000    -1.4951110000     0.7215900000
    4      C       1.3428900000    -0.0203870000     0.7484740000
    5      C      -0.0448990000     0.2770610000     0.9043910000
    6      C      -0.9807760000    -0.7200350000     1.0287490000
    7      O      -1.4248570000    -3.0524430000     1.1163870000
    8      O       2.2217000000     0.8373010000     0.6331500000
    9      N      -2.3069080000    -0.6098890000     1.1808970000
   10      N       3.1039060000    -1.6052690000     0.5696370000
   11      C      -3.1783990000     0.5811360000     1.2621230000
   12      C      -4.6075060000     0.0425290000     1.4370540000
   13      C      -2.8075630000     1.4418050000     2.4849720000
   14      C      -3.1007060000     1.3993350000    -0.0410130000
   15      C       3.9753850000    -2.7963350000     0.4881430000
   16      C       3.8972390000    -3.6152240000     1.7907830000
   17      C       5.4045860000    -2.2577160000     0.3141110000
   18      C       3.6049110000    -3.6563190000    -0.7353140000
   19      H       1.0960560000    -3.5416390000     0.8327490000
   20      H      -0.2991890000     1.3264750000     0.9172470000
   21      H      -2.7491590000    -1.5248080000     1.2461590000
   22      H       3.5461230000    -0.6903980000     0.5037570000
   23      H      -4.8972480000    -0.5823100000     0.5874360000
   24      H      -5.3158900000     0.8703880000     1.5052380000
   25      H      -4.6926910000    -0.5525700000     2.3507350000
   26      H      -2.8842960000     0.8534380000     3.4025090000
   27      H      -3.4929160000     2.2898750000     2.5621070000
   28      H      -1.7929780000     1.8358240000     2.4206900000
   29      H      -3.3840920000     0.7813990000    -0.8964640000
   30      H      -2.0995870000     1.7904170000    -0.2242290000
   31      H      -3.7879850000     2.2476410000     0.0129600000
   32      H       2.8962800000    -4.0070650000     1.9732010000
   33      H       4.1797200000    -2.9975950000     2.6467590000
   34      H       4.5850870000    -4.4630720000     1.7367790000
   35      H       5.6940380000    -1.6334420000     1.1642410000
   36      H       5.4901740000    -1.6620370000    -0.5991590000
   37      H       6.1129570000    -3.0855610000     0.2456290000
   38      H       2.5900910000    -4.0498540000    -0.6717710000
   39      H       4.2898980000    -4.5046880000    -0.8124260000
   40      H       3.6824660000    -3.0675640000    -1.6525310000
 ----------------------------------------------------------------

    9    -806.9551175263      2.83e-06  Convergence criterion met
 Total energy in the final basis set =     -806.9551175263

                    Orbital Energies (a.u.)
 --------------------------------------------------------------

 Alpha MOs
 -- Occupied --
-19.1145 -19.1145 -14.3520 -14.3520 -10.2671 -10.2671 -10.2460 -10.2460
-10.2315 -10.2315 -10.1683 -10.1683 -10.1625 -10.1625 -10.1605 -10.1605
-10.1605 -10.1605  -1.0524  -1.0498  -0.9614  -0.9612  -0.8391  -0.8157
 -0.7929  -0.7489  -0.6971  -0.6968  -0.6942  -0.6942  -0.6803  -0.6391
 -0.6050  -0.5938  -0.5611  -0.5431  -0.5183  -0.5039  -0.4819  -0.4716
 -0.4618  -0.4569  -0.4469  -0.4430  -0.4428  -0.4400  -0.4375  -0.4257
 -0.4132  -0.4056  -0.3996  -0.3976  -0.3881  -0.3877  -0.3782  -0.3714
 -0.3712  -0.3623  -0.3608  -0.3564  -0.3403  -0.3392  -0.3318  -0.3239
 -0.2827  -0.2699  -0.2463  -0.2190

          Ground-State Mulliken Net Atomic Charges

     Atom                 Charge (a.u.)
  ----------------------------------------
      1 C                    -0.336083
      2 C                    -0.148938
      3 C                     0.091118
      4 C                    -0.333203
      5 C                    -0.144905
      6 C                     0.086884
      7 O                    -0.381552
      8 O                    -0.381532
      9 N                     0.099249
     10 N                     0.098957
     11 C                    -0.041502
     12 C                    -0.533271
     13 C                    -0.454202
     14 C                    -0.455857
     15 C                    -0.043268
     16 C                    -0.456090
     17 C                    -0.531134
     18 C                    -0.454373
     19 H                     0.274188
     20 H                     0.274434
     21 H                     0.401151
     22 H                     0.400890
     23 H                     0.167019
     24 H                     0.171585
     25 H                     0.166995
     26 H                     0.170994
     27 H                     0.183903
     28 H                     0.134231
     29 H                     0.170727
     30 H                     0.134996
     31 H                     0.183846
     32 H                     0.135109
     33 H                     0.170713
     34 H                     0.183892
     35 H                     0.167049
     36 H                     0.167003
     37 H                     0.171642
     38 H                     0.134500
     39 H                     0.183869
     40 H                     0.170959
  ----------------------------------------
  Sum of atomic charges =    -0.000007

                    Cartesian Multipole Moments
 -----------------------------------------------------------------
    Charge (ESU x 10^10)
                -0.0000
    Dipole Moment (Debye)
         X       0.0004      Y      -0.0004      Z       0.0002
       Tot       0.0006
    Quadrupole Moments (Debye-Ang)
        XX     -82.8982     XY     -27.7592     YY    -116.9875
        XZ      -2.9380     YZ       3.2838     ZZ    -111.8616

 Total job time:  79.43s(wall), 565.64s(cpu)
        *  Thank you very much for using Q-Chem.  Have a nice day.  *
