 Q-Chem 5.4, Q-Chem, Inc., Pleasanton, CA (2021)
 Q-Chem 5.4.0 for Intel X86 EM64T Linux

User input:
--------------------------------------------------------------
$molecule
-2 1
C                  1.9166070000      3.5811730000      3.7581920000
C                  2.9718170000      3.5380780000      2.7726450000
C                  3.4456590000      2.3758600000      2.1924710000
C                  2.9284560000      1.0640550000      2.4984400000
C                  1.3874820000      2.2669320000      4.0545220000
C                  1.8686180000      1.0867190000      3.4569930000
O                  1.5054640000      4.6722120000      4.2838000000
O                  3.3821900000     -0.0129170000      1.9499660000
S                  0.1818800000      2.0882120000      5.3682380000
C                 -1.3729200000      2.7002970000      4.7461950000
C                 -2.5190980000      2.5229000000      5.5400170000
C                 -1.5039450000      3.3590910000      3.5153500000
C                 -2.7522550000      3.8140660000      3.0964440000
C                 -3.7627520000      2.9798670000      5.1133380000
C                 -3.8917660000      3.6299020000      3.8834780000
H                  3.4063550000      4.5010750000      2.5059940000
H                  4.2534120000      2.4219330000      1.4615250000
H                  1.4210050000      0.1344130000      3.7275650000
H                 -2.4291460000      2.0146390000      6.4969220000
H                 -0.6179430000      3.5158320000      2.9126540000
H                 -2.8345380000      4.3276940000      2.1414090000
H                 -4.6403980000      2.8209100000      5.7386500000
H                 -4.8638320000      3.9840700000      3.5486870000
$end

$rem
BASIS  =  6-311++G(d,p)
GUI  =  2
JOB_TYPE  =  SP
METHOD  =  B3LYP
SCF_CONVERGENCE  = 8
SOLVENT_METHOD = sm12
$end

$smx
solvent dimethylformamide
charges CM5
$end

--------------------------------------------------------------

             Standard Nuclear Orientation (Angstroms)
    I     Atom           X                Y                Z
 ----------------------------------------------------------------
    1      C       1.9166070000     3.5811730000     3.7581920000
    2      C       2.9718170000     3.5380780000     2.7726450000
    3      C       3.4456590000     2.3758600000     2.1924710000
    4      C       2.9284560000     1.0640550000     2.4984400000
    5      C       1.3874820000     2.2669320000     4.0545220000
    6      C       1.8686180000     1.0867190000     3.4569930000
    7      O       1.5054640000     4.6722120000     4.2838000000
    8      O       3.3821900000    -0.0129170000     1.9499660000
    9      S       0.1818800000     2.0882120000     5.3682380000
   10      C      -1.3729200000     2.7002970000     4.7461950000
   11      C      -2.5190980000     2.5229000000     5.5400170000
   12      C      -1.5039450000     3.3590910000     3.5153500000
   13      C      -2.7522550000     3.8140660000     3.0964440000
   14      C      -3.7627520000     2.9798670000     5.1133380000
   15      C      -3.8917660000     3.6299020000     3.8834780000
   16      H       3.4063550000     4.5010750000     2.5059940000
   17      H       4.2534120000     2.4219330000     1.4615250000
   18      H       1.4210050000     0.1344130000     3.7275650000
   19      H      -2.4291460000     2.0146390000     6.4969220000
   20      H      -0.6179430000     3.5158320000     2.9126540000
   21      H      -2.8345380000     4.3276940000     2.1414090000
   22      H      -4.6403980000     2.8209100000     5.7386500000
   23      H      -4.8638320000     3.9840700000     3.5486870000
 ----------------------------------------------------------------

   18   -1010.8649651080      9.25e-09  Convergence criterion met
 Total energy in the final basis set =    -1011.1611974199

                    Orbital Energies (a.u.)
 --------------------------------------------------------------

 Alpha MOs
 -- Occupied --
-88.8475 -19.0249 -19.0224 -10.2130 -10.1915 -10.1890 -10.1879 -10.1864
-10.1862 -10.1836 -10.1812 -10.1704 -10.1515 -10.1504 -10.1457  -7.9322
 -5.8961  -5.8921  -5.8867  -0.9457  -0.9359  -0.8713  -0.8105  -0.7836
 -0.7588  -0.7386  -0.6886  -0.6554  -0.6181  -0.6019  -0.5743  -0.5454
 -0.5168  -0.4687  -0.4619  -0.4490  -0.4459  -0.4339  -0.4307  -0.4134
 -0.3870  -0.3779  -0.3712  -0.3632  -0.3571  -0.3452  -0.3416  -0.3237
 -0.3166  -0.2943  -0.2688  -0.2441  -0.2351  -0.2121  -0.2016  -0.1978
 -0.1296

          Ground-State Mulliken Net Atomic Charges

     Atom                 Charge (a.u.)
  ----------------------------------------
      1 C                    -0.648563
      2 C                    -1.007823
      3 C                    -0.473090
      4 C                    -1.737975
      5 C                     1.966737
      6 C                    -1.469304
      7 O                    -0.303864
      8 O                    -0.437600
      9 S                     0.817236
     10 C                    -1.781648
     11 C                     1.457102
     12 C                    -3.536179
     13 C                     0.576785
     14 C                     1.688317
     15 C                     1.595328
     16 H                     0.051978
     17 H                     0.027215
     18 H                    -0.044308
     19 H                     0.340958
     20 H                    -0.297333
     21 H                     0.335087
     22 H                     0.432541
     23 H                     0.448402
  ----------------------------------------
  Sum of atomic charges =    -2.000000

                    Cartesian Multipole Moments
 -----------------------------------------------------------------
    Charge (ESU x 10^10)
                -9.6064
    Dipole Moment (Debye)
         X     -20.3862      Y     -21.3089      Z     -31.7627
       Tot      43.3420
    Quadrupole Moments (Debye-Ang)
        XX    -169.2019     XY     -31.4149     YY    -195.9971
        XZ     -52.5333     YZ     -90.8681     ZZ    -225.7767

 Total job time:  434.95s(wall), 3165.94s(cpu)
        *  Thank you very much for using Q-Chem.  Have a nice day.  *
