 Gaussian 16, Revision A.03,
 Gaussian 16:  ES64L-G16RevA.03 25-Dec-2016

 ----------------------------------------------------------------
 #P UB3LYP/6-311++G(d,p) SCRF=(PCM,Solvent=n,n-DiMethylFormamide)
 ----------------------------------------------------------------

 ------------------
 Quinone PCM in DMF
 ------------------
 Symbolic Z-matrix:
 Charge = -1 Multiplicity = 1

                         Standard orientation:
 ---------------------------------------------------------------------
 Center     Atomic      Atomic             Coordinates (Angstroms)
 Number     Number       Type             X           Y           Z
 ---------------------------------------------------------------------
      1          6           0        2.703455    1.339930    0.000130
      2          6           0        2.327725    2.677542   -0.000061
      3          6           0        0.971543    3.005049   -0.000212
      4          6           0        1.734019    0.332825    0.000122
      5          6           0        0.356873    0.657022    0.000017
      6          6           0       -0.004687    2.012188   -0.000137
      7          6           0        2.180687   -1.084461    0.000112
      8          6           0        1.077064   -2.182533   -0.000086
      9          6           0       -0.307321   -1.731954    0.000028
     10          6           0       -0.648255   -0.425245    0.000048
     11          8           0        3.351643   -1.407393    0.000217
     12          8           0        1.409517   -3.355254   -0.000344
     13          1           0        3.746413    1.045871    0.000262
     14          1           0        3.081499    3.457617   -0.000077
     15          1           0        0.665001    4.045703   -0.000349
     16          1           0       -1.051084    2.279871   -0.000189
     17          1           0       -1.084225   -2.487465    0.000002
     18         16           0       -2.443122   -0.003185    0.000045
     19          8           0       -3.137217   -1.306378   -0.000087
     20          8           0       -2.600317    0.791313   -1.244068
     21          8           0       -2.600409    0.791112    1.244268
 ---------------------------------------------------------------------

 SCF Done:  E(UB3LYP) =  -1158.72284229     A.U. after   17 cycles

 The electronic state is 1-A.
 Alpha  occ. eigenvalues --  -89.05642 -19.14498 -19.14308 -19.10276 -19.10009
 Alpha  occ. eigenvalues --  -19.10008 -10.28610 -10.28361 -10.23620 -10.21986
 Alpha  occ. eigenvalues --  -10.20762 -10.20003 -10.19895 -10.19833 -10.19604
 Alpha  occ. eigenvalues --  -10.19529  -8.11518  -6.07780  -6.07764  -6.07726
 Alpha  occ. eigenvalues --   -1.12231  -1.08600  -1.05926  -0.98837  -0.98313
 Alpha  occ. eigenvalues --   -0.89608  -0.84103  -0.78482  -0.76565  -0.71903
 Alpha  occ. eigenvalues --   -0.65174  -0.63713  -0.61943  -0.57732  -0.54624
 Alpha  occ. eigenvalues --   -0.53088  -0.51307  -0.48584  -0.47670  -0.46457
 Alpha  occ. eigenvalues --   -0.46344  -0.46034  -0.45747  -0.45610  -0.44688
 Alpha  occ. eigenvalues --   -0.42418  -0.40539  -0.39315  -0.38031  -0.37672
 Alpha  occ. eigenvalues --   -0.34612  -0.34235  -0.34078  -0.32296  -0.30964
 Alpha  occ. eigenvalues --   -0.29923  -0.29747  -0.27956  -0.26593  -0.26524
 Alpha  occ. eigenvalues --   -0.26040
 Alpha virt. eigenvalues --   -0.13578  -0.05828  -0.02566  -0.00210   0.00438
 Alpha virt. eigenvalues --    0.00942   0.01444   0.02985   0.03317   0.04362
 Alpha virt. eigenvalues --    0.04439   0.05825   0.05880   0.06298   0.06979

  Beta  occ. eigenvalues --  -89.05642 -19.14498 -19.14308 -19.10276 -19.10009
  Beta  occ. eigenvalues --  -19.10008 -10.28610 -10.28361 -10.23620 -10.21986
  Beta  occ. eigenvalues --  -10.20762 -10.20003 -10.19895 -10.19833 -10.19604
  Beta  occ. eigenvalues --  -10.19529  -8.11518  -6.07780  -6.07764  -6.07726
  Beta  occ. eigenvalues --   -1.12231  -1.08600  -1.05926  -0.98837  -0.98313
  Beta  occ. eigenvalues --   -0.89608  -0.84103  -0.78482  -0.76565  -0.71903
  Beta  occ. eigenvalues --   -0.65174  -0.63713  -0.61943  -0.57732  -0.54624
  Beta  occ. eigenvalues --   -0.53088  -0.51307  -0.48584  -0.47670  -0.46457
  Beta  occ. eigenvalues --   -0.46344  -0.46034  -0.45747  -0.45610  -0.44688
  Beta  occ. eigenvalues --   -0.42418  -0.40539  -0.39315  -0.38031  -0.37672
  Beta  occ. eigenvalues --   -0.34612  -0.34235  -0.34078  -0.32296  -0.30964
  Beta  occ. eigenvalues --   -0.29923  -0.29747  -0.27956  -0.26593  -0.26524
  Beta  occ. eigenvalues --   -0.26040
  Beta virt. eigenvalues --   -0.13578  -0.05828  -0.02566  -0.00210   0.00438
  Beta virt. eigenvalues --    0.00942   0.01444   0.02985   0.03317   0.04362
  Beta virt. eigenvalues --    0.04439   0.05825   0.05880   0.06298   0.06979

 Mulliken charges and spin densities:
               1          2
     1  C    0.174696   0.000000
     2  C   -0.481738  -0.000000
     3  C   -0.845511  -0.000000
     4  C    0.456741  -0.000000
     5  C    1.128512   0.000000
     6  C   -0.515464  -0.000000
     7  C   -0.511790   0.000000
     8  C    0.081392   0.000000
     9  C    0.021472  -0.000000
    10  C   -0.555473   0.000000
    11  O   -0.271722   0.000000
    12  O   -0.306523  -0.000000
    13  H    0.186683   0.000000
    14  H    0.208451   0.000000
    15  H    0.211776  -0.000000
    16  H    0.169287  -0.000000
    17  H    0.270189  -0.000000
    18  S    0.501021  -0.000000
    19  O   -0.242503  -0.000000
    20  O   -0.339767   0.000000
    21  O   -0.339727   0.000000
 Sum of Mulliken charges =  -1.00000   0.00000

 Dipole moment (field-independent basis, Debye):
    X=              9.7128    Y=              6.5967    Z=              0.0000  Tot=             11.7412
 Quadrupole moment (field-independent basis, Debye-Ang):
   XX=           -150.7297   YY=           -113.7869   ZZ=           -108.9706
   XY=             18.1654   XZ=              0.0007   YZ=             -0.0029

 Normal termination of Gaussian 16 at Sat Jan 13 19:24:58 2024.
