 Gaussian 16, Revision A.03,
 Gaussian 16:  ES64L-G16RevA.03 25-Dec-2016

 --------------------------------------
 #P UB3LYP/6-311++G(d,p) nosym opt freq
 --------------------------------------

 --------
 Oxidized
 --------
 Symbolic Z-matrix:
 Charge = -1 Multiplicity = 1

 SCF Done:  E(UB3LYP) =  -1158.63914951     A.U. after   20 cycles
 SCF Done:  E(UB3LYP) =  -1158.63914614     A.U. after   12 cycles
 SCF Done:  E(UB3LYP) =  -1158.63914976     A.U. after   11 cycles
 SCF Done:  E(UB3LYP) =  -1158.63914978     A.U. after   10 cycles
 Optimization completed.
    -- Stationary point found.
 Normal termination of Gaussian 16 at Tue Jan  9 22:01:59 2024.

 ----------------------------------------------------------------------
 #P Geom=AllCheck Guess=TCheck SCRF=Check GenChk UB3LYP/6-311++G(d,p) F
 req
 ----------------------------------------------------------------------

 Structure from the checkpoint file:  "326.chk"
 --------
 Oxidized
 --------
 Charge = -1 Multiplicity = 1

                          Input orientation:
 ---------------------------------------------------------------------
 Center     Atomic      Atomic             Coordinates (Angstroms)
 Number     Number       Type             X           Y           Z
 ---------------------------------------------------------------------
      1          6           0       -1.858020    2.796812   -0.793229
      2          6           0       -2.930837    1.963898   -0.500490
      3          6           0       -2.684250    0.661002   -0.066730
      4          6           0       -0.545799    2.335255   -0.654994
      5          6           0       -0.287737    1.015403   -0.215643
      6          6           0       -1.382328    0.188175    0.075503
      7          6           0        0.571357    3.259923   -0.979283
      8          6           0        2.020883    2.716088   -0.815384
      9          6           0        2.166200    1.342181   -0.356246
     10          6           0        1.107650    0.551278   -0.077556
     11          8           0        0.395198    4.400060   -1.359387
     12          8           0        2.960222    3.448833   -1.073311
     13          1           0       -2.009040    3.814764   -1.132637
     14          1           0       -3.948405    2.323900   -0.608408
     15          1           0       -3.513165    0.000638    0.165106
     16          1           0       -1.205783   -0.822759    0.412319
     17          1           0        3.170604    0.952763   -0.238339
     18         16           0        1.444423   -1.168695    0.495122
     19          8           0        2.916702   -1.278884    0.513344
     20          8           0        0.765727   -2.001654   -0.529234
     21          8           0        0.795751   -1.210376    1.829748
 ---------------------------------------------------------------------

 SCF Done:  E(UB3LYP) =  -1158.63914978     A.U. after    1 cycles

 Alpha  occ. eigenvalues --  -88.91567 -19.03830 -19.02644 -18.95847 -18.95832
 Alpha  occ. eigenvalues --  -18.95831 -10.17841 -10.16781 -10.11584 -10.11533
 Alpha  occ. eigenvalues --  -10.10649 -10.10462 -10.10401 -10.10373 -10.09223
 Alpha  occ. eigenvalues --  -10.08142  -7.97417  -5.93670  -5.93659  -5.93647
 Alpha  occ. eigenvalues --   -0.97938  -0.97575  -0.94586  -0.84411  -0.84003
 Alpha  occ. eigenvalues --   -0.79363  -0.73280  -0.68362  -0.66146  -0.60874
 Alpha  occ. eigenvalues --   -0.54587  -0.52875  -0.50993  -0.46047  -0.43594
 Alpha  occ. eigenvalues --   -0.42358  -0.39449  -0.37939  -0.36487  -0.35464
 Alpha  occ. eigenvalues --   -0.35213  -0.34968  -0.34138  -0.31993  -0.31778
 Alpha  occ. eigenvalues --   -0.30854  -0.29882  -0.28401  -0.28063  -0.27475
 Alpha  occ. eigenvalues --   -0.23135  -0.20707  -0.19851  -0.19763  -0.18265
 Alpha  occ. eigenvalues --   -0.16869  -0.16633  -0.16452  -0.14864  -0.14615
 Alpha  occ. eigenvalues --   -0.12044
 Alpha virt. eigenvalues --   -0.02617   0.04454   0.06508   0.07606   0.08895
 Alpha virt. eigenvalues --    0.10338   0.11317   0.11769   0.13401   0.13484
 Alpha virt. eigenvalues --    0.13700   0.15575   0.16096   0.16397   0.16680

  Beta  occ. eigenvalues --  -88.91567 -19.03830 -19.02644 -18.95847 -18.95832
  Beta  occ. eigenvalues --  -18.95831 -10.17841 -10.16781 -10.11584 -10.11533
  Beta  occ. eigenvalues --  -10.10649 -10.10462 -10.10401 -10.10373 -10.09223
  Beta  occ. eigenvalues --  -10.08142  -7.97417  -5.93670  -5.93659  -5.93647
  Beta  occ. eigenvalues --   -0.97938  -0.97575  -0.94586  -0.84411  -0.84003
  Beta  occ. eigenvalues --   -0.79363  -0.73280  -0.68362  -0.66146  -0.60874
  Beta  occ. eigenvalues --   -0.54587  -0.52875  -0.50993  -0.46047  -0.43594
  Beta  occ. eigenvalues --   -0.42358  -0.39449  -0.37939  -0.36487  -0.35464
  Beta  occ. eigenvalues --   -0.35213  -0.34968  -0.34138  -0.31993  -0.31778
  Beta  occ. eigenvalues --   -0.30854  -0.29882  -0.28401  -0.28063  -0.27475
  Beta  occ. eigenvalues --   -0.23135  -0.20707  -0.19851  -0.19763  -0.18265
  Beta  occ. eigenvalues --   -0.16869  -0.16633  -0.16452  -0.14864  -0.14615
  Beta  occ. eigenvalues --   -0.12044
  Beta virt. eigenvalues --   -0.02617   0.04454   0.06508   0.07606   0.08895
  Beta virt. eigenvalues --    0.10338   0.11317   0.11769   0.13401   0.13484
  Beta virt. eigenvalues --    0.13700   0.15575   0.16096   0.16397   0.16680

 Mulliken charges and spin densities:
               1          2
     1  C    0.124249  -0.000000
     2  C   -0.415330   0.000000
     3  C   -0.880176  -0.000000
     4  C    0.455053   0.000000
     5  C    1.222374   0.000000
     6  C   -0.575957  -0.000000
     7  C   -0.561959  -0.000000
     8  C   -0.046054  -0.000000
     9  C    0.042524   0.000000
    10  C   -0.515488   0.000000
    11  O   -0.233186   0.000000
    12  O   -0.258647  -0.000000
    13  H    0.161444  -0.000000
    14  H    0.148019   0.000000
    15  H    0.160685  -0.000000
    16  H    0.179036   0.000000
    17  H    0.274247  -0.000000
    18  S    0.430057  -0.000000
    19  O   -0.172018   0.000000
    20  O   -0.269464   0.000000
    21  O   -0.269407   0.000000
 Sum of Mulliken charges =  -1.00000   0.00000

 Dipole moment (field-independent basis, Debye):
    X=             -9.5707    Y=             -0.2010    Z=             -0.3942  Tot=              9.5810
 Quadrupole moment (field-independent basis, Debye-Ang):
   XX=           -120.7123   YY=           -145.7227   ZZ=           -112.9347
   XY=             -4.6285   XZ=              0.5457   YZ=             12.4538

  Exact polarizability: 202.580  10.797 185.881  -5.052 -32.473 100.433
 Approx polarizability: 337.860  51.033 312.051 -19.507 -55.410 167.605

                      1                      2                      3
                      A                      A                      A
 Frequencies --     32.1884                53.3035                81.0559
 Red. masses --     11.3203                13.9387                 5.9780
 Frc consts  --      0.0069                 0.0233                 0.0231
 IR Inten    --      1.4503                 2.1205                 0.6724

                      4                      5                      6
                      A                      A                      A
 Frequencies --    128.5983               151.7053               188.2470
 Red. masses --      6.0812                 9.5380                 4.9102
 Frc consts  --      0.0593                 0.1293                 0.1025
 IR Inten    --      3.3172                 9.7665                 1.4567

                      7                      8                      9
                      A                      A                      A
 Frequencies --    225.4523               230.1874               271.5053
 Red. masses --     10.7648                13.6759                 8.8231
 Frc consts  --      0.3224                 0.4269                 0.3832
 IR Inten    --      2.1303                 3.6899                 0.5100

                     10                     11                     12
                      A                      A                      A
 Frequencies --    324.1723               365.4695               404.4827
 Red. masses --      9.0554                14.7730                 3.7318
 Frc consts  --      0.5607                 1.1626                 0.3597
 IR Inten    --      4.7254                 3.8111                 0.4677

                     13                     14                     15
                      A                      A                      A
 Frequencies --    423.0740               430.5524               471.3880
 Red. masses --     10.1078                 5.9882                 8.1690
 Frc consts  --      1.0660                 0.6540                 1.0695
 IR Inten    --      1.5774                 0.1869                 2.6233

                     16                     17                     18
                      A                      A                      A
 Frequencies --    496.9607               498.4325               521.4941
 Red. masses --     15.7378                 8.0735                 5.1154
 Frc consts  --      2.2900                 1.1818                 0.8197
 IR Inten    --     15.5807                16.8980                21.1294

                     19                     20                     21
                      A                      A                      A
 Frequencies --    579.9826               625.3921               628.5397
 Red. masses --     10.7766                 4.8146                11.1330
 Frc consts  --      2.1358                 1.1095                 2.5914
 IR Inten    --     56.4695                 0.2304               114.2393

                     22                     23                     24
                      A                      A                      A
 Frequencies --    667.5269               700.4352               715.6635
 Red. masses --      6.2510                 6.7295                 3.5406
 Frc consts  --      1.6411                 1.9452                 1.0684
 IR Inten    --      6.9584                 0.5122                 3.3127

                     25                     26                     27
                      A                      A                      A
 Frequencies --    770.0524               776.9387               816.8408
 Red. masses --      1.4628                 6.0672                 3.9189
 Frc consts  --      0.5111                 2.1578                 1.5406
 IR Inten    --     47.8349                 0.3207                 0.0059

                     28                     29                     30
                      A                      A                      A
 Frequencies --    890.5046               908.5228               917.5593
 Red. masses --      1.4628                 1.3938                 6.4232
 Frc consts  --      0.6835                 0.6778                 3.1862
 IR Inten    --      1.6789                17.8404                 9.6350

                     31                     32                     33
                      A                      A                      A
 Frequencies --    972.3629               977.8129               990.0159
 Red. masses --      7.9014                 1.3975                14.9155
 Frc consts  --      4.4016                 0.7873                 8.6134
 IR Inten    --     23.2226                 0.3831               154.1468

                     34                     35                     36
                      A                      A                      A
 Frequencies --    990.7274              1066.1971              1121.9022
 Red. masses --      1.3192                 2.2103                 2.1909
 Frc consts  --      0.7629                 1.4804                 1.6248
 IR Inten    --      0.5783                 5.8465                 0.7251

                     37                     38                     39
                      A                      A                      A
 Frequencies --   1161.6306              1170.8258              1189.2102
 Red. masses --     18.5191                 2.0219                 1.2645
 Frc consts  --     14.7234                 1.6330                 1.0536
 IR Inten    --    271.6408                48.7896                 0.7845

                     40                     41                     42
                      A                      A                      A
 Frequencies --   1191.2201              1222.6621              1264.8553
 Red. masses --      8.1076                 3.0716                 3.1146
 Frc consts  --      6.7784                 2.7054                 2.9358
 IR Inten    --    199.3203                23.8984                96.7372

                     43                     44                     45
                      A                      A                      A
 Frequencies --   1311.8746              1334.2039              1344.7834
 Red. masses --      1.8723                 3.4930                 3.0936
 Frc consts  --      1.8985                 3.6635                 3.2963
 IR Inten    --     78.8717                 6.3929                36.7947

                     46                     47                     48
                      A                      A                      A
 Frequencies --   1473.7871              1512.8256              1594.8524
 Red. masses --      2.3022                 2.3929                 6.1534
 Frc consts  --      2.9462                 3.2267                 9.2216
 IR Inten    --     15.7511                 5.0197                18.3567

                     49                     50                     51
                      A                      A                      A
 Frequencies --   1627.2135              1629.0929              1712.3262
 Red. masses --      7.8931                 5.4412                12.5174
 Frc consts  --     12.3136                 8.5081                21.6241
 IR Inten    --     87.3465                33.6723               529.5873

                     52                     53                     54
                      A                      A                      A
 Frequencies --   1749.6056              3156.1672              3173.5798
 Red. masses --     12.7020                 1.0861                 1.0925
 Frc consts  --     22.9089                 6.3742                 6.4830
 IR Inten    --     68.2686                 7.1550                28.9076

                     55                     56                     57
                      A                      A                      A
 Frequencies --   3189.8325              3191.9905              3229.1577
 Red. masses --      1.0936                 1.0903                 1.0932
 Frc consts  --      6.5560                 6.5450                 6.7160
 IR Inten    --     15.0251                 5.2034                 7.9406

 - Thermochemistry -
 -------------------
 Temperature   298.150 Kelvin.  Pressure   1.00000 Atm.
 Atom     1 has atomic number  6 and mass  12.00000

 Molecular mass:   236.98577 amu.
 Principal axes and moments of inertia in atomic units:
                           1         2         3
     Eigenvalues --  2603.780484040.595576290.70626
           X           -0.36247   0.93192   0.01198
           Y            0.88498   0.34013   0.31800
           Z           -0.29227  -0.12587   0.94802
 This molecule is an asymmetric top.
 Rotational symmetry number  1.
 Warning -- assumption of classical behavior for rotation
           may cause significant error
 Rotational temperatures (Kelvin)      0.03326     0.02144     0.01377
 Rotational constants (GHZ):           0.69312     0.44665     0.28689
 Zero-point vibrational energy     351982.9 (Joules/Mol)
                                   84.12593 (Kcal/Mol)
 Warning -- explicit consideration of  19 degrees of freedom as
           vibrations may cause significant error
 Vibrational temperatures:     46.31    76.69   116.62   185.02   218.27
          (Kelvin)            270.85   324.38   331.19   390.64   466.41
                              525.83   581.96   608.71   619.47   678.22
                              715.02   717.13   750.31   834.47   899.80
                              904.33   960.42  1007.77  1029.68  1107.93
                             1117.84  1175.25  1281.24  1307.16  1320.16
                             1399.01  1406.85  1424.41  1425.44  1534.02
                             1614.17  1671.33  1684.56  1711.01  1713.90
                             1759.14  1819.84  1887.50  1919.62  1934.84
                             2120.45  2176.62  2294.64  2341.20  2343.90
                             2463.66  2517.29  4541.02  4566.07  4589.46
                             4592.56  4646.04

 Zero-point correction=                           0.134063 (Hartree/Particle)
 Thermal correction to Energy=                    0.146855
 Thermal correction to Enthalpy=                  0.147799
 Thermal correction to Gibbs Free Energy=         0.093498
 Sum of electronic and zero-point Energies=          -1158.505087
 Sum of electronic and thermal Energies=             -1158.492295
 Sum of electronic and thermal Enthalpies=           -1158.491351
 Sum of electronic and thermal Free Energies=        -1158.545652

                     E (Thermal)             CV                S
                      KCal/Mol        Cal/Mol-Kelvin    Cal/Mol-Kelvin
 Total                   92.153             48.570            114.286
 Electronic               0.000              0.000              0.000
 Translational            0.889              2.981             42.290
 Rotational               0.889              2.981             32.559
 Vibrational             90.375             42.609             39.436
 Vibration     1          0.594              1.983              5.690
 Vibration     2          0.596              1.976              4.691
 Vibration     3          0.600              1.962              3.865
 Vibration     4          0.611              1.925              2.967
 Vibration     5          0.619              1.901              2.651
 Vibration     6          0.633              1.856              2.245
 Vibration     7          0.650              1.802              1.915
 Vibration     8          0.652              1.795              1.877
 Vibration     9          0.675              1.726              1.587
 Vibration    10          0.709              1.627              1.289
 Vibration    11          0.739              1.543              1.099
 Vibration    12          0.770              1.460              0.946
 Vibration    13          0.785              1.420              0.882
 Vibration    14          0.792              1.404              0.857
 Vibration    15          0.828              1.314              0.734
 Vibration    16          0.852              1.257              0.666
 Vibration    17          0.854              1.253              0.662
 Vibration    18          0.876              1.202              0.607
 Vibration    19          0.937              1.075              0.485

 Optimization completed.
    -- Stationary point found.
 Normal termination of Gaussian 16 at Tue Jan  9 22:34:57 2024.
