 Q-Chem 5.4, Q-Chem, Inc., Pleasanton, CA (2021)
 Q-Chem 5.4.0 for Intel X86 EM64T Linux

User input:
--------------------------------------------------------------
$molecule
-3 1
C                 -1.8380980000      2.7917900000     -0.8044880000
C                 -2.9326890000      1.9957400000     -0.5214910000
C                 -2.7174240000      0.6759040000     -0.0579150000
C                 -0.5030280000      2.3406220000     -0.6438340000
C                 -0.2879180000      0.9804410000     -0.1968100000
C                 -1.4284100000      0.1917130000      0.0974370000
C                  0.5897230000      3.2608680000     -0.9721090000
C                  1.9751460000      2.7413280000     -0.8153970000
C                  2.1112640000      1.3779230000     -0.3673600000
C                  1.0647810000      0.5238420000     -0.0720410000
O                  0.3635070000      4.4450740000     -1.3668100000
O                  2.9976470000      3.4623430000     -1.0602850000
H                 -1.9629100000      3.8085740000     -1.1625580000
H                 -3.9484180000      2.3716750000     -0.6540160000
H                 -3.5689900000      0.0363140000      0.1678770000
H                 -1.2726630000     -0.8210540000      0.4469310000
H                  3.1252220000      1.0085310000     -0.2595450000
S                  1.4734140000     -1.1767550000      0.4849170000
O                  2.9684260000     -1.2698670000      0.4863820000
O                  0.8470240000     -2.1209250000     -0.4981330000
O                  0.8937450000     -1.3354810000      1.8595200000
$end

$rem
BASIS  =  6-311++G(d,p)
GUI  =  2
JOB_TYPE  =  SP
METHOD  =  B3LYP
SCF_CONVERGENCE  = 8
SOLVENT_METHOD = sm12
$end

$smx
solvent dimethylformamide
charges CM5
$end

--------------------------------------------------------------

             Standard Nuclear Orientation (Angstroms)
    I     Atom           X                Y                Z
 ----------------------------------------------------------------
    1      C      -1.8380980000     2.7917900000    -0.8044880000
    2      C      -2.9326890000     1.9957400000    -0.5214910000
    3      C      -2.7174240000     0.6759040000    -0.0579150000
    4      C      -0.5030280000     2.3406220000    -0.6438340000
    5      C      -0.2879180000     0.9804410000    -0.1968100000
    6      C      -1.4284100000     0.1917130000     0.0974370000
    7      C       0.5897230000     3.2608680000    -0.9721090000
    8      C       1.9751460000     2.7413280000    -0.8153970000
    9      C       2.1112640000     1.3779230000    -0.3673600000
   10      C       1.0647810000     0.5238420000    -0.0720410000
   11      O       0.3635070000     4.4450740000    -1.3668100000
   12      O       2.9976470000     3.4623430000    -1.0602850000
   13      H      -1.9629100000     3.8085740000    -1.1625580000
   14      H      -3.9484180000     2.3716750000    -0.6540160000
   15      H      -3.5689900000     0.0363140000     0.1678770000
   16      H      -1.2726630000    -0.8210540000     0.4469310000
   17      H       3.1252220000     1.0085310000    -0.2595450000
   18      S       1.4734140000    -1.1767550000     0.4849170000
   19      O       2.9684260000    -1.2698670000     0.4863820000
   20      O       0.8470240000    -2.1209250000    -0.4981330000
   21      O       0.8937450000    -1.3354810000     1.8595200000
 ----------------------------------------------------------------

   20   -1158.4085346539      8.32e-09  Convergence criterion met
 Total energy in the final basis set =    -1158.9794311633

                    Orbital Energies (a.u.)
 --------------------------------------------------------------

 Alpha MOs
 -- Occupied --
-89.0187 -19.0645 -19.0630 -19.0629 -19.0313 -19.0251 -10.1828 -10.1795
-10.1749 -10.1725 -10.1718 -10.1694 -10.1668 -10.1614 -10.1521 -10.1391
 -8.0770  -6.0400  -6.0398  -6.0385  -1.0751  -0.9589  -0.9394  -0.9367
 -0.9298  -0.8494  -0.7903  -0.7452  -0.7147  -0.6684  -0.6067  -0.5978
 -0.5732  -0.5367  -0.4932  -0.4855  -0.4645  -0.4362  -0.4304  -0.4236
 -0.4183  -0.4157  -0.3967  -0.3871  -0.3732  -0.3604  -0.3446  -0.3374
 -0.3346  -0.3107  -0.3035  -0.3024  -0.2846  -0.2681  -0.2611  -0.2568
 -0.2472  -0.2250  -0.2109  -0.2076  -0.1844  -0.1227

          Ground-State Mulliken Net Atomic Charges

     Atom                 Charge (a.u.)
  ----------------------------------------
      1 C                     0.167529
      2 C                     2.147915
      3 C                     2.000263
      4 C                    -1.004168
      5 C                    -1.652981
      6 C                    -0.896694
      7 C                    -0.936173
      8 C                    -0.777765
      9 C                    -0.655506
     10 C                    -2.091455
     11 O                    -0.258811
     12 O                    -0.328020
     13 H                     0.109152
     14 H                     0.482401
     15 H                     0.418398
     16 H                    -0.009788
     17 H                    -0.077891
     18 S                     1.102678
     19 O                    -0.244531
     20 O                    -0.246908
     21 O                    -0.247645
  ----------------------------------------
  Sum of atomic charges =    -3.000000

                    Cartesian Multipole Moments
 -----------------------------------------------------------------
    Charge (ESU x 10^10)
               -14.4096
    Dipole Moment (Debye)
         X     -15.1097      Y     -18.2202      Z       4.5469
       Tot      24.1030
    Quadrupole Moments (Debye-Ang)
        XX    -178.9965     XY     -16.6638     YY    -236.3534
        XZ       4.4780     YZ      35.5897     ZZ    -134.6258

 Total job time:  610.98s(wall), 4728.14s(cpu)
        *  Thank you very much for using Q-Chem.  Have a nice day.  *
