 Q-Chem 5.4, Q-Chem, Inc., Pleasanton, CA (2021)
 Q-Chem 5.4.0 for Intel X86 EM64T Linux

User input:
--------------------------------------------------------------
$molecule
-2 1
C                 -0.4412940000      1.2175310000     -0.3005020000
C                 -1.4731920000      0.2174360000     -0.5051700000
C                 -1.2579930000     -1.1363020000     -0.4403330000
C                  0.0231750000     -1.7602380000     -0.1681080000
C                  1.0091170000     -0.7833420000      0.0977040000
C                  0.8531910000      0.6459070000      0.0725290000
O                 -0.7229090000      2.4570370000     -0.3723870000
O                  0.1757140000     -3.0385570000     -0.2197220000
C                  1.8798460000      1.5480170000      0.5927270000
C                  2.5948660000      1.1633910000      1.9069220000
O                  2.1594100000      2.6620300000      0.1344750000
H                  2.2439810000      0.2272130000      2.3400160000
H                  2.4079540000      1.9889890000      2.6050090000
H                  3.6770210000      1.0984830000      1.7472390000
H                 -2.0727020000     -1.8315650000     -0.6469640000
Cl                 2.7019980000     -1.4585490000      0.2034910000
H                 -2.4617520000      0.6091360000     -0.7445240000
$end
$rem
MAX_SCF_CYCLES=200
BASIS  =  6-311++G(d,p)
GUI  =  2
JOB_TYPE  =  SP
METHOD  =  B3LYP
SOLVENT_METHOD = PCM
$end
$pcm
theory = CPCM
$end
$solvent
dielectric 37.219
opticaldielectric 1.43
$end

--------------------------------------------------------------

             Standard Nuclear Orientation (Angstroms)
    I     Atom           X                Y                Z
 ----------------------------------------------------------------
    1      C      -0.4412940000     1.2175310000    -0.3005020000
    2      C      -1.4731920000     0.2174360000    -0.5051700000
    3      C      -1.2579930000    -1.1363020000    -0.4403330000
    4      C       0.0231750000    -1.7602380000    -0.1681080000
    5      C       1.0091170000    -0.7833420000     0.0977040000
    6      C       0.8531910000     0.6459070000     0.0725290000
    7      O      -0.7229090000     2.4570370000    -0.3723870000
    8      O       0.1757140000    -3.0385570000    -0.2197220000
    9      C       1.8798460000     1.5480170000     0.5927270000
   10      C       2.5948660000     1.1633910000     1.9069220000
   11      O       2.1594100000     2.6620300000     0.1344750000
   12      H       2.2439810000     0.2272130000     2.3400160000
   13      H       2.4079540000     1.9889890000     2.6050090000
   14      H       3.6770210000     1.0984830000     1.7472390000
   15      H      -2.0727020000    -1.8315650000    -0.6469640000
   16      Cl      2.7019980000    -1.4585490000     0.2034910000
   17      H      -2.4617520000     0.6091360000    -0.7445240000
 ----------------------------------------------------------------

    9    -994.1592230782      7.93e-06  Convergence criterion met
 Total energy in the final basis set =     -994.1592230782

                    Orbital Energies (a.u.)
 --------------------------------------------------------------

 Alpha MOs
 -- Occupied --
******** -19.0857 -19.0378 -19.0304 -10.2380 -10.2009 -10.1906 -10.1901
-10.1495 -10.1491 -10.1478 -10.1406  -9.4390  -7.2027  -7.1945  -7.1939
 -1.0132  -0.9585  -0.9472  -0.8345  -0.7836  -0.7345  -0.6955  -0.6624
 -0.5981  -0.5437  -0.5064  -0.4598  -0.4483  -0.4345  -0.4222  -0.4050
 -0.3977  -0.3839  -0.3769  -0.3670  -0.3563  -0.3461  -0.3371  -0.3276
 -0.3081  -0.2900  -0.2453  -0.2420  -0.2248  -0.2119  -0.2053  -0.1382

          Ground-State Mulliken Net Atomic Charges

     Atom                 Charge (a.u.)
  ----------------------------------------
      1 C                    -0.892980
      2 C                     0.076961
      3 C                    -0.202635
      4 C                    -0.428075
      5 C                     0.863490
      6 C                    -0.082850
      7 O                    -0.632731
      8 O                    -0.673645
      9 C                     0.174592
     10 C                    -0.708733
     11 O                    -0.423467
     12 H                     0.134865
     13 H                     0.169493
     14 H                     0.181848
     15 H                     0.173735
     16 Cl                    0.098938
     17 H                     0.171193
  ----------------------------------------
  Sum of atomic charges =    -2.000000

                    Cartesian Multipole Moments
 -----------------------------------------------------------------
    Charge (ESU x 10^10)
                -9.6064
    Dipole Moment (Debye)
         X      -4.9474      Y      -0.6444      Z       2.6619
       Tot       5.6549
    Quadrupole Moments (Debye-Ang)
        XX     -99.7541     XY       1.6368     YY    -158.5373
        XZ       1.0493     YZ       2.5979     ZZ     -83.3037

 Total job time:  16.76s(wall), 119.73s(cpu)
        *  Thank you very much for using Q-Chem.  Have a nice day.  *
