 Gaussian 16, Revision A.03,
 Gaussian 16:  ES64L-G16RevA.03 25-Dec-2016

 ----------------------------------------------------------------
 #P UB3LYP/6-311++G(d,p) SCRF=(PCM,Solvent=n,n-DiMethylFormamide)
 ----------------------------------------------------------------

 -------
 Reduced
 -------
 Symbolic Z-matrix:
 Charge = -2 Multiplicity = 1

                         Standard orientation:
 ---------------------------------------------------------------------
 Center     Atomic      Atomic             Coordinates (Angstroms)
 Number     Number       Type             X           Y           Z
 ---------------------------------------------------------------------
      1          8           0       -3.084363    2.060904    0.000588
      2          6           0       -2.826776    0.725849    0.000592
      3          6           0       -3.873335   -0.177471    0.001479
      4          6           0       -3.607205   -1.573628    0.001432
      5          6           0       -2.309394   -2.036682    0.000558
      6          6           0       -1.206456   -1.143730   -0.000250
      7          6           0        0.146553   -1.699353   -0.001708
      8          8           0        0.322282   -2.958325   -0.003687
      9          6           0        1.227040   -0.721020   -0.001022
     10          6           0        2.608406   -1.102401   -0.000119
     11          8           0        2.959112   -2.450741    0.001161
     12          6           0        3.621804   -0.166903   -0.000116
     13          6           0        3.339610    1.228415    0.000912
     14          6           0        2.037242    1.662428   -0.000045
     15          8           0        1.775165    3.001975    0.000263
     16          6           0        0.941130    0.714740   -0.000920
     17          6           0       -0.388054    1.203804   -0.000958
     18          8           0       -0.651754    2.535432   -0.001147
     19          6           0       -1.457268    0.270407   -0.000291
     20          1           0       -2.150535    2.491270   -0.000402
     21          1           0       -4.890461    0.205671    0.002124
     22          1           0       -4.440326   -2.274971    0.002045
     23          1           0       -2.077354   -3.095819    0.000205
     24          1           0        3.922443   -2.458414    0.022039
     25          1           0        4.658830   -0.506376   -0.001753
     26          1           0        4.141235    1.961226    0.001240
     27          1           0        0.752858    3.056736   -0.000191
 ---------------------------------------------------------------------

 SCF Done:  E(UB3LYP) =  -914.962077404     A.U. after   15 cycles

 The electronic state is 1-A.
 Alpha  occ. eigenvalues --  -19.12970 -19.10696 -19.10161 -19.05773 -19.02372
 Alpha  occ. eigenvalues --  -10.21131 -10.20895 -10.20377 -10.18922 -10.18670
 Alpha  occ. eigenvalues --  -10.15307 -10.15168 -10.14978 -10.14976 -10.14652
 Alpha  occ. eigenvalues --  -10.14274 -10.14188 -10.14138 -10.13976  -1.03687
 Alpha  occ. eigenvalues --   -1.02722  -1.01769  -0.95057  -0.94830  -0.82942
 Alpha  occ. eigenvalues --   -0.81457  -0.76029  -0.71847  -0.71629  -0.70624
 Alpha  occ. eigenvalues --   -0.64758  -0.61792  -0.60924  -0.56274  -0.55665
 Alpha  occ. eigenvalues --   -0.52996  -0.50890  -0.49776  -0.47913  -0.45604
 Alpha  occ. eigenvalues --   -0.44924  -0.44147  -0.42391  -0.41393  -0.40892
 Alpha  occ. eigenvalues --   -0.39328  -0.39134  -0.38829  -0.37551  -0.37137
 Alpha  occ. eigenvalues --   -0.37063  -0.35697  -0.34847  -0.34622  -0.33575
 Alpha  occ. eigenvalues --   -0.32935  -0.32620  -0.31401  -0.29998  -0.28224
 Alpha  occ. eigenvalues --   -0.23972  -0.23451  -0.22253  -0.20554  -0.19692
 Alpha  occ. eigenvalues --   -0.19152  -0.11467
 Alpha virt. eigenvalues --   -0.01575  -0.00377   0.00166   0.00721   0.01330
 Alpha virt. eigenvalues --    0.02345   0.02503   0.03489   0.04283   0.04738
 Alpha virt. eigenvalues --    0.04997   0.05031   0.06665   0.06747   0.06798

  Beta  occ. eigenvalues --  -19.12970 -19.10696 -19.10161 -19.05773 -19.02372
  Beta  occ. eigenvalues --  -10.21131 -10.20895 -10.20377 -10.18922 -10.18670
  Beta  occ. eigenvalues --  -10.15307 -10.15168 -10.14978 -10.14976 -10.14652
  Beta  occ. eigenvalues --  -10.14274 -10.14188 -10.14138 -10.13976  -1.03687
  Beta  occ. eigenvalues --   -1.02722  -1.01769  -0.95057  -0.94830  -0.82942
  Beta  occ. eigenvalues --   -0.81457  -0.76029  -0.71847  -0.71629  -0.70624
  Beta  occ. eigenvalues --   -0.64758  -0.61792  -0.60924  -0.56274  -0.55665
  Beta  occ. eigenvalues --   -0.52996  -0.50890  -0.49776  -0.47913  -0.45604
  Beta  occ. eigenvalues --   -0.44924  -0.44147  -0.42391  -0.41393  -0.40892
  Beta  occ. eigenvalues --   -0.39328  -0.39134  -0.38829  -0.37551  -0.37137
  Beta  occ. eigenvalues --   -0.37063  -0.35697  -0.34847  -0.34622  -0.33575
  Beta  occ. eigenvalues --   -0.32935  -0.32620  -0.31401  -0.29998  -0.28224
  Beta  occ. eigenvalues --   -0.23972  -0.23451  -0.22253  -0.20554  -0.19692
  Beta  occ. eigenvalues --   -0.19152  -0.11467
  Beta virt. eigenvalues --   -0.01575  -0.00377   0.00166   0.00721   0.01330
  Beta virt. eigenvalues --    0.02345   0.02503   0.03489   0.04283   0.04738
  Beta virt. eigenvalues --    0.04997   0.05031   0.06665   0.06747   0.06798

 Mulliken charges and spin densities:
               1          2
     1  O   -0.480900   0.000000
     2  C   -0.040517  -0.000000
     3  C   -0.332462   0.000000
     4  C   -0.416497   0.000000
     5  C   -0.252192  -0.000000
     6  C    0.267574  -0.000000
     7  C   -0.261733  -0.000000
     8  O   -0.611324   0.000000
     9  C    0.113142  -0.000000
    10  C   -0.361895   0.000000
    11  O   -0.275963   0.000000
    12  C   -0.251765   0.000000
    13  C   -0.195491  -0.000000
    14  C   -0.311950   0.000000
    15  O   -0.493444  -0.000000
    16  C    0.568690   0.000000
    17  C   -0.269516   0.000000
    18  O   -0.771050  -0.000000
    19  C    0.444700  -0.000000
    20  H    0.445489  -0.000000
    21  H    0.158327   0.000000
    22  H    0.164978   0.000000
    23  H    0.139103   0.000000
    24  H    0.279458  -0.000000
    25  H    0.141124   0.000000
    26  H    0.164081  -0.000000
    27  H    0.440032   0.000000
 Sum of Mulliken charges =  -2.00000   0.00000

 Dipole moment (field-independent basis, Debye):
    X=              2.8240    Y=              0.3758    Z=              0.0458  Tot=              2.8493
 Quadrupole moment (field-independent basis, Debye-Ang):
   XX=           -142.4878   YY=           -179.4456   ZZ=           -121.3129
   XY=              2.0605   XZ=              0.1597   YZ=             -0.1301

 Normal termination of Gaussian 16 at Tue Jan 16 06:22:44 2024.
