 Q-Chem 5.4, Q-Chem, Inc., Pleasanton, CA (2021)
 Q-Chem 5.4.0 for Intel X86 EM64T Linux

User input:
--------------------------------------------------------------
$molecule
-2 1
O                 -2.6943580000      2.5240530000     -0.4545760000
C                 -2.6507730000      1.1853820000     -0.2205190000
C                 -3.8268080000      0.4686130000     -0.1002860000
C                 -3.7844330000     -0.9308320000      0.1443300000
C                 -2.5760120000     -1.5822220000      0.2632580000
C                 -1.3459420000     -0.8842470000      0.1466570000
C                 -0.0976280000     -1.6343320000      0.2824320000
O                 -0.1228510000     -2.8866630000      0.4990510000
C                  1.1237450000     -0.8495620000      0.1521430000
C                  2.4275570000     -1.4341140000      0.2616760000
O                  2.5609890000     -2.7998940000      0.5022130000
C                  3.5759230000     -0.6807570000      0.1358170000
C                  3.5175480000      0.7205260000     -0.1082030000
C                  2.3000520000      1.3440520000     -0.2241680000
O                  2.2527400000      2.6878410000     -0.4588220000
C                  1.0680900000      0.5914800000     -0.0997490000
C                 -0.1672000000      1.2728700000     -0.2249770000
O                 -0.2173620000      2.6091210000     -0.4588330000
C                 -1.3703530000      0.5303060000     -0.1005970000
H                 -1.7043040000      2.7981230000     -0.4985130000
H                 -4.7706820000      0.9988020000     -0.1969550000
H                 -4.7178210000     -1.4841680000      0.2369480000
H                 -2.5140910000     -2.6485720000      0.4494760000
H                  3.5109140000     -2.9527780000      0.5548540000
H                  4.5463460000     -1.1717110000      0.2247580000
H                  4.4248000000      1.3095090000     -0.2062240000
H                  1.2519140000      2.8991730000     -0.5011930000
$end
$rem
MAX_SCF_CYCLES=200
BASIS  =  6-311++G(d,p)
GUI  =  2
JOB_TYPE  =  SP
METHOD  =  B3LYP
SOLVENT_METHOD = PCM
$end
$pcm
theory = CPCM
$end
$solvent
dielectric 37.219
opticaldielectric 1.43
$end

--------------------------------------------------------------

             Standard Nuclear Orientation (Angstroms)
    I     Atom           X                Y                Z
 ----------------------------------------------------------------
    1      O      -2.6943580000     2.5240530000    -0.4545760000
    2      C      -2.6507730000     1.1853820000    -0.2205190000
    3      C      -3.8268080000     0.4686130000    -0.1002860000
    4      C      -3.7844330000    -0.9308320000     0.1443300000
    5      C      -2.5760120000    -1.5822220000     0.2632580000
    6      C      -1.3459420000    -0.8842470000     0.1466570000
    7      C      -0.0976280000    -1.6343320000     0.2824320000
    8      O      -0.1228510000    -2.8866630000     0.4990510000
    9      C       1.1237450000    -0.8495620000     0.1521430000
   10      C       2.4275570000    -1.4341140000     0.2616760000
   11      O       2.5609890000    -2.7998940000     0.5022130000
   12      C       3.5759230000    -0.6807570000     0.1358170000
   13      C       3.5175480000     0.7205260000    -0.1082030000
   14      C       2.3000520000     1.3440520000    -0.2241680000
   15      O       2.2527400000     2.6878410000    -0.4588220000
   16      C       1.0680900000     0.5914800000    -0.0997490000
   17      C      -0.1672000000     1.2728700000    -0.2249770000
   18      O      -0.2173620000     2.6091210000    -0.4588330000
   19      C      -1.3703530000     0.5303060000    -0.1005970000
   20      H      -1.7043040000     2.7981230000    -0.4985130000
   21      H      -4.7706820000     0.9988020000    -0.1969550000
   22      H      -4.7178210000    -1.4841680000     0.2369480000
   23      H      -2.5140910000    -2.6485720000     0.4494760000
   24      H       3.5109140000    -2.9527780000     0.5548540000
   25      H       4.5463460000    -1.1717110000     0.2247580000
   26      H       4.4248000000     1.3095090000    -0.2062240000
   27      H       1.2519140000     2.8991730000    -0.5011930000
 ----------------------------------------------------------------

    9    -914.9702813934      3.68e-06  Convergence criterion met
 Total energy in the final basis set =     -914.9702813934

                    Orbital Energies (a.u.)
 --------------------------------------------------------------

 Alpha MOs
 -- Occupied --
-19.1296 -19.1100 -19.1047 -19.0612 -19.0283 -10.2134 -10.2102 -10.2058
-10.1926 -10.1898 -10.1556 -10.1529 -10.1524 -10.1522 -10.1470 -10.1441
-10.1439 -10.1430 -10.1416  -1.0369  -1.0303  -1.0207  -0.9546  -0.9525
 -0.8318  -0.8164  -0.7622  -0.7207  -0.7183  -0.7081  -0.6498  -0.6196
 -0.6112  -0.5643  -0.5587  -0.5316  -0.5108  -0.4994  -0.4817  -0.4584
 -0.4508  -0.4435  -0.4254  -0.4154  -0.4116  -0.3958  -0.3936  -0.3905
 -0.3793  -0.3738  -0.3731  -0.3589  -0.3502  -0.3494  -0.3377  -0.3313
 -0.3296  -0.3172  -0.3028  -0.2846  -0.2428  -0.2379  -0.2246  -0.2084
 -0.2019  -0.1938  -0.1177

          Ground-State Mulliken Net Atomic Charges

     Atom                 Charge (a.u.)
  ----------------------------------------
      1 O                    -0.490251
      2 C                    -0.031476
      3 C                    -0.354541
      4 C                    -0.418059
      5 C                    -0.255496
      6 C                     0.247563
      7 C                    -0.226518
      8 O                    -0.636613
      9 C                     0.089270
     10 C                    -0.365785
     11 O                    -0.300272
     12 C                    -0.243667
     13 C                    -0.218742
     14 C                    -0.302594
     15 O                    -0.503833
     16 C                     0.561377
     17 C                    -0.254926
     18 O                    -0.783155
     19 C                     0.446422
     20 H                     0.450643
     21 H                     0.174341
     22 H                     0.182183
     23 H                     0.140640
     24 H                     0.300330
     25 H                     0.168514
     26 H                     0.179833
     27 H                     0.444812
  ----------------------------------------
  Sum of atomic charges =    -2.000000

                    Cartesian Multipole Moments
 -----------------------------------------------------------------
    Charge (ESU x 10^10)
                -9.6064
    Dipole Moment (Debye)
         X       2.7664      Y      -0.4551      Z       0.1538
       Tot       2.8078
    Quadrupole Moments (Debye-Ang)
        XX    -139.3594     XY      -4.0042     YY    -178.0275
        XZ       0.7561     YZ       9.7271     ZZ    -122.9119

 Total job time:  101.17s(wall), 363.23s(cpu)
        *  Thank you very much for using Q-Chem.  Have a nice day.  *
