 Gaussian 16, Revision A.03,
 Gaussian 16:  ES64L-G16RevA.03 25-Dec-2016

 --------------------------------------
 #P UB3LYP/6-311++G(d,p) nosym opt freq
 --------------------------------------

 -------
 Reduced
 -------
 Symbolic Z-matrix:
 Charge = -2 Multiplicity = 1

 SCF Done:  E(UB3LYP) =  -914.705278852     A.U. after   24 cycles
 SCF Done:  E(UB3LYP) =  -914.705278760     A.U. after   14 cycles
 SCF Done:  E(UB3LYP) =  -914.705278898     A.U. after   11 cycles
 SCF Done:  E(UB3LYP) =  -914.705278904     A.U. after   12 cycles
 Optimization completed.
    -- Stationary point found.
 Normal termination of Gaussian 16 at Sun Jan  7 07:07:43 2024.

 ----------------------------------------------------------------------
 #P Geom=AllCheck Guess=TCheck SCRF=Check GenChk UB3LYP/6-311++G(d,p) F
 req
 ----------------------------------------------------------------------

 Structure from the checkpoint file:  "201-an.chk"
 -------
 Reduced
 -------
 Charge = -2 Multiplicity = 1

                          Input orientation:
 ---------------------------------------------------------------------
 Center     Atomic      Atomic             Coordinates (Angstroms)
 Number     Number       Type             X           Y           Z
 ---------------------------------------------------------------------
      1          8           0       -2.694358    2.524053   -0.454576
      2          6           0       -2.650773    1.185382   -0.220519
      3          6           0       -3.826808    0.468613   -0.100286
      4          6           0       -3.784433   -0.930832    0.144330
      5          6           0       -2.576012   -1.582222    0.263258
      6          6           0       -1.345942   -0.884247    0.146657
      7          6           0       -0.097628   -1.634332    0.282432
      8          8           0       -0.122851   -2.886663    0.499051
      9          6           0        1.123745   -0.849562    0.152143
     10          6           0        2.427557   -1.434114    0.261676
     11          8           0        2.560989   -2.799894    0.502213
     12          6           0        3.575923   -0.680757    0.135817
     13          6           0        3.517548    0.720526   -0.108203
     14          6           0        2.300052    1.344052   -0.224168
     15          8           0        2.252740    2.687841   -0.458822
     16          6           0        1.068090    0.591480   -0.099749
     17          6           0       -0.167200    1.272870   -0.224977
     18          8           0       -0.217362    2.609121   -0.458833
     19          6           0       -1.370353    0.530306   -0.100597
     20          1           0       -1.704304    2.798123   -0.498513
     21          1           0       -4.770682    0.998802   -0.196955
     22          1           0       -4.717821   -1.484168    0.236948
     23          1           0       -2.514091   -2.648572    0.449476
     24          1           0        3.510914   -2.952778    0.554854
     25          1           0        4.546346   -1.171711    0.224758
     26          1           0        4.424800    1.309509   -0.206224
     27          1           0        1.251914    2.899173   -0.501193
 ---------------------------------------------------------------------

 SCF Done:  E(UB3LYP) =  -914.705278904     A.U. after    1 cycles

 Alpha  occ. eigenvalues --  -18.90680 -18.87205 -18.86622 -18.81623 -18.77827
 Alpha  occ. eigenvalues --   -9.98124  -9.97935  -9.97239  -9.94894  -9.94737
 Alpha  occ. eigenvalues --   -9.92599  -9.92286  -9.91618  -9.91611  -9.91498
 Alpha  occ. eigenvalues --   -9.91342  -9.91271  -9.90965  -9.90463  -0.81355
 Alpha  occ. eigenvalues --   -0.79091  -0.78165  -0.70896  -0.70222  -0.59504
 Alpha  occ. eigenvalues --   -0.58349  -0.52805  -0.48528  -0.48398  -0.47492
 Alpha  occ. eigenvalues --   -0.41393  -0.38715  -0.37789  -0.33325  -0.32484
 Alpha  occ. eigenvalues --   -0.29891  -0.27820  -0.26870  -0.24502  -0.22235
 Alpha  occ. eigenvalues --   -0.21975  -0.21041  -0.19487  -0.18556  -0.17249
 Alpha  occ. eigenvalues --   -0.16093  -0.15823  -0.15524  -0.14279  -0.13727
 Alpha  occ. eigenvalues --   -0.13281  -0.12410  -0.11683  -0.10630  -0.10433
 Alpha  occ. eigenvalues --   -0.09762  -0.08605  -0.07577  -0.06423  -0.04944
 Alpha  occ. eigenvalues --   -0.00026   0.00473   0.01125   0.03046   0.04236
 Alpha  occ. eigenvalues --    0.04960   0.12397
 Alpha virt. eigenvalues --    0.15846   0.16700   0.17908   0.18640   0.20350
 Alpha virt. eigenvalues --    0.21263   0.21624   0.21795   0.22503   0.24319
 Alpha virt. eigenvalues --    0.25237   0.25985   0.26296   0.26486   0.26990

  Beta  occ. eigenvalues --  -18.90680 -18.87205 -18.86622 -18.81623 -18.77827
  Beta  occ. eigenvalues --   -9.98124  -9.97935  -9.97239  -9.94894  -9.94737
  Beta  occ. eigenvalues --   -9.92599  -9.92286  -9.91618  -9.91611  -9.91498
  Beta  occ. eigenvalues --   -9.91342  -9.91271  -9.90965  -9.90463  -0.81355
  Beta  occ. eigenvalues --   -0.79091  -0.78165  -0.70896  -0.70222  -0.59504
  Beta  occ. eigenvalues --   -0.58349  -0.52805  -0.48528  -0.48398  -0.47492
  Beta  occ. eigenvalues --   -0.41393  -0.38715  -0.37789  -0.33325  -0.32484
  Beta  occ. eigenvalues --   -0.29891  -0.27820  -0.26870  -0.24502  -0.22235
  Beta  occ. eigenvalues --   -0.21975  -0.21041  -0.19487  -0.18556  -0.17249
  Beta  occ. eigenvalues --   -0.16093  -0.15823  -0.15524  -0.14279  -0.13727
  Beta  occ. eigenvalues --   -0.13281  -0.12410  -0.11683  -0.10630  -0.10433
  Beta  occ. eigenvalues --   -0.09762  -0.08605  -0.07577  -0.06423  -0.04944
  Beta  occ. eigenvalues --   -0.00026   0.00473   0.01125   0.03046   0.04236
  Beta  occ. eigenvalues --    0.04960   0.12397
  Beta virt. eigenvalues --    0.15846   0.16700   0.17908   0.18640   0.20350
  Beta virt. eigenvalues --    0.21263   0.21624   0.21795   0.22503   0.24319
  Beta virt. eigenvalues --    0.25237   0.25985   0.26296   0.26486   0.26990

 Mulliken charges and spin densities:
               1          2
     1  O   -0.453145  -0.000000
     2  C   -0.112854   0.000000
     3  C   -0.218349   0.000000
     4  C   -0.375210  -0.000000
     5  C   -0.219078  -0.000000
     6  C    0.383114  -0.000000
     7  C   -0.414460  -0.000000
     8  O   -0.474267   0.000000
     9  C    0.237508   0.000000
    10  C   -0.383879  -0.000000
    11  O   -0.198079   0.000000
    12  C   -0.253482  -0.000000
    13  C   -0.086746   0.000000
    14  C   -0.405709  -0.000000
    15  O   -0.460928   0.000000
    16  C    0.595790   0.000000
    17  C   -0.336553  -0.000000
    18  O   -0.712510   0.000000
    19  C    0.430234  -0.000000
    20  H    0.430680  -0.000000
    21  H    0.083508   0.000000
    22  H    0.079753  -0.000000
    23  H    0.119226   0.000000
    24  H    0.202968   0.000000
    25  H    0.028292   0.000000
    26  H    0.087903  -0.000000
    27  H    0.426272  -0.000000
 Sum of Mulliken charges =  -2.00000   0.00000

 Dipole moment (field-independent basis, Debye):
    X=              1.8568    Y=             -0.6014    Z=              0.1520  Tot=              1.9577
 Quadrupole moment (field-independent basis, Debye-Ang):
   XX=           -167.7792   YY=           -175.9161   ZZ=           -123.5033
   XY=             -2.3895   XZ=              0.2835   YZ=              9.3076

  Exact polarizability: 401.496   1.654 241.699   1.909 -21.857 122.648
 Approx polarizability: 685.052   9.283 454.493   1.488 -48.021 188.729

                      1                      2                      3
                      A                      A                      A
 Frequencies --     17.9752                56.8327                64.9672
 Red. masses --      1.7078                 5.9467                 2.5592
 Frc consts  --      0.0003                 0.0113                 0.0064
 IR Inten    --     38.7618                 3.8318                 6.7977

                      4                      5                      6
                      A                      A                      A
 Frequencies --     97.7865               118.9726               169.2738
 Red. masses --      8.4716                 7.3038                 7.6364
 Frc consts  --      0.0477                 0.0609                 0.1289
 IR Inten    --      0.1759                 1.8907                 1.1731

                      7                      8                      9
                      A                      A                      A
 Frequencies --    219.1917               230.4447               274.5517
 Red. masses --      6.5167                 5.0621                 5.6101
 Frc consts  --      0.1845                 0.1584                 0.2492
 IR Inten    --      6.4941                 0.0842                 0.3281

                     10                     11                     12
                      A                      A                      A
 Frequencies --    300.9045               346.6563               354.5005
 Red. masses --      7.7742                 6.8139                12.1610
 Frc consts  --      0.4147                 0.4824                 0.9004
 IR Inten    --      4.1755                 5.4069                 0.2457

                     13                     14                     15
                      A                      A                      A
 Frequencies --    359.7347               374.7238               415.4905
 Red. masses --      6.6632                 9.0322                 6.8467
 Frc consts  --      0.5080                 0.7472                 0.6964
 IR Inten    --      2.0966                 0.0229                16.1402

                     16                     17                     18
                      A                      A                      A
 Frequencies --    453.2245               458.3100               473.5239
 Red. masses --      8.3493                 9.4172                 9.1450
 Frc consts  --      1.0105                 1.1654                 1.2081
 IR Inten    --     17.1072                51.2341                 1.6182

                     19                     20                     21
                      A                      A                      A
 Frequencies --    478.6778               503.0018               523.6876
 Red. masses --      4.3494                 8.2428                 6.6743
 Frc consts  --      0.5872                 1.2287                 1.0784
 IR Inten    --      0.1666                 1.6056                 5.2940

                     22                     23                     24
                      A                      A                      A
 Frequencies --    533.9669               583.3050               592.1151
 Red. masses --      3.6314                 7.9546                 3.7146
 Frc consts  --      0.6100                 1.5946                 0.7673
 IR Inten    --     24.0701                22.7936                13.4227

                     25                     26                     27
                      A                      A                      A
 Frequencies --    606.8982               609.3479               665.7332
 Red. masses --      4.6691                 2.5583                 2.1185
 Frc consts  --      1.0132                 0.5597                 0.5532
 IR Inten    --      8.0852                13.3126                15.2945

                     28                     29                     30
                      A                      A                      A
 Frequencies --    697.5051               713.3044               731.2362
 Red. masses --      1.7858                 6.4075                 2.1431
 Frc consts  --      0.5119                 1.9208                 0.6752
 IR Inten    --     35.9772                31.9994                35.3982

                     31                     32                     33
                      A                      A                      A
 Frequencies --    742.0249               753.8200               762.4073
 Red. masses --      3.3436                 7.4163                 2.1306
 Frc consts  --      1.0847                 2.4830                 0.7297
 IR Inten    --      4.3393                69.1329                21.8168

                     34                     35                     36
                      A                      A                      A
 Frequencies --    795.9180               802.5941               825.8433
 Red. masses --      2.0602                 3.8539                 8.8747
 Frc consts  --      0.7690                 1.4627                 3.5661
 IR Inten    --     10.0362                 0.6365                57.9209

                     37                     38                     39
                      A                      A                      A
 Frequencies --    873.8842               927.0549               947.4690
 Red. masses --      8.5101                 1.2518                 6.1902
 Frc consts  --      3.8290                 0.6339                 3.2740
 IR Inten    --     71.6977                 2.3787                92.7916

                     40                     41                     42
                      A                      A                      A
 Frequencies --    978.6888               987.8584              1026.4906
 Red. masses --      1.0590                 5.1280                 1.0402
 Frc consts  --      0.5976                 2.9484                 0.6458
 IR Inten    --    113.7342                46.1954                11.2152

                     43                     44                     45
                      A                      A                      A
 Frequencies --   1042.8702              1054.7832              1117.0948
 Red. masses --      3.0331                 1.7833                 2.2180
 Frc consts  --      1.9435                 1.1689                 1.6308
 IR Inten    --     81.3866               215.4948                81.0319

                     46                     47                     48
                      A                      A                      A
 Frequencies --   1147.2528              1161.0591              1211.3299
 Red. masses --      1.2977                 3.4754                 3.8787
 Frc consts  --      1.0063                 2.7604                 3.3532
 IR Inten    --     17.3163                36.1767               264.1053

                     49                     50                     51
                      A                      A                      A
 Frequencies --   1213.4074              1229.2768              1261.0695
 Red. masses --      1.9109                 2.1366                 3.5116
 Frc consts  --      1.6577                 1.9022                 3.2903
 IR Inten    --     20.1605                 4.7857               119.2114

                     52                     53                     54
                      A                      A                      A
 Frequencies --   1263.2504              1289.7014              1310.7872
 Red. masses --      3.0562                 5.4504                 2.4424
 Frc consts  --      2.8735                 5.3414                 2.4725
 IR Inten    --     17.2513               144.7057                11.7900

                     55                     56                     57
                      A                      A                      A
 Frequencies --   1350.9813              1382.6013              1400.3912
 Red. masses --      6.4543                 4.0714                 6.7908
 Frc consts  --      6.9406                 4.5855                 7.8463
 IR Inten    --    180.1692                 8.8265               272.5727

                     58                     59                     60
                      A                      A                      A
 Frequencies --   1432.4977              1460.7807              1494.3966
 Red. masses --      2.8825                 2.9699                 4.4180
 Frc consts  --      3.4850                 3.7339                 5.8130
 IR Inten    --    125.7353                13.5230                44.2528

                     61                     62                     63
                      A                      A                      A
 Frequencies --   1511.9664              1547.5777              1567.6778
 Red. masses --      6.6325                 7.3982                 2.5701
 Frc consts  --      8.9333                10.4395                 3.7215
 IR Inten    --    908.2603               102.6539               233.2181

                     64                     65                     66
                      A                      A                      A
 Frequencies --   1570.9251              1600.7179              1634.4096
 Red. masses --      3.6456                 5.0477                 1.9764
 Frc consts  --      5.3006                 7.6203                 3.1107
 IR Inten    --    173.2703                43.2351               228.7300

                     67                     68                     69
                      A                      A                      A
 Frequencies --   1703.1118              2552.0949              2714.0776
 Red. masses --      1.5149                 1.0789                 1.0808
 Frc consts  --      2.5888                 4.1401                 4.6906
 IR Inten    --      8.1862              1103.3329                39.1645

                     70                     71                     72
                      A                      A                      A
 Frequencies --   3075.2854              3096.7833              3136.5556
 Red. masses --      1.0861                 1.0847                 1.0906
 Frc consts  --      6.0517                 6.1291                 6.3217
 IR Inten    --     95.0041                66.1753                99.1755

                     73                     74                     75
                      A                      A                      A
 Frequencies --   3143.4751              3172.2955              3787.8163
 Red. masses --      1.0902                 1.0906                 1.0648
 Frc consts  --      6.3470                 6.4662                 9.0013
 IR Inten    --     74.1963                34.1492                 2.0156

 - Thermochemistry -
 -------------------
 Temperature   298.150 Kelvin.  Pressure   1.00000 Atm.
 Atom     1 has atomic number  8 and mass  15.99491

 Molecular mass:   256.03717 amu.
 Principal axes and moments of inertia in atomic units:
                           1         2         3
     Eigenvalues --  2946.204885184.778158130.97660
           X            0.98522   0.17120  -0.00489
           Y           -0.16782   0.97070   0.17200
           Z            0.03419  -0.16864   0.98509
 This molecule is an asymmetric top.
 Rotational symmetry number  1.
 Warning -- assumption of classical behavior for rotation
           may cause significant error
 Rotational temperatures (Kelvin)      0.02940     0.01671     0.01065
 Rotational constants (GHZ):           0.61256     0.34808     0.22196
 Zero-point vibrational energy     485015.1 (Joules/Mol)
                                  115.92140 (Kcal/Mol)
 Warning -- explicit consideration of  26 degrees of freedom as
           vibrations may cause significant error
 Vibrational temperatures:     25.86    81.77    93.47   140.69   171.18
          (Kelvin)            243.55   315.37   331.56   395.02   432.93
                              498.76   510.05   517.58   539.14   597.80
                              652.09   659.41   681.30   688.71   723.71
                              753.47   768.26   839.25   851.92   873.19
                              876.72   957.84  1003.55  1026.29  1052.09
                             1067.61  1084.58  1096.93  1145.15  1154.75
                             1188.20  1257.32  1333.83  1363.20  1408.11
                             1421.31  1476.89  1500.46  1517.60  1607.25
                             1650.64  1670.51  1742.83  1745.82  1768.66
                             1814.40  1817.54  1855.59  1885.93  1943.76
                             1989.25  2014.85  2061.04  2101.74  2150.10
                             2175.38  2226.62  2255.54  2260.21  2303.08
                             2351.55  2450.40  3671.90  3904.95  4424.65
                             4455.58  4512.80  4522.76  4564.23  5449.82

 Zero-point correction=                           0.184733 (Hartree/Particle)
 Thermal correction to Energy=                    0.199546
 Thermal correction to Enthalpy=                  0.200490
 Thermal correction to Gibbs Free Energy=         0.141900
 Sum of electronic and zero-point Energies=           -914.520546
 Sum of electronic and thermal Energies=              -914.505733
 Sum of electronic and thermal Enthalpies=            -914.504789
 Sum of electronic and thermal Free Energies=         -914.563379

                     E (Thermal)             CV                S
                      KCal/Mol        Cal/Mol-Kelvin    Cal/Mol-Kelvin
 Total                  125.217             58.972            123.313
 Electronic               0.000              0.000              0.000
 Translational            0.889              2.981             42.520
 Rotational               0.889              2.981             33.185
 Vibrational            123.439             53.010             47.608
 Vibration     1          0.593              1.986              6.846
 Vibration     2          0.596              1.975              4.564
 Vibration     3          0.597              1.971              4.300
 Vibration     4          0.603              1.951              3.498
 Vibration     5          0.609              1.934              3.117
 Vibration     6          0.625              1.880              2.444
 Vibration     7          0.647              1.812              1.966
 Vibration     8          0.652              1.794              1.875
 Vibration     9          0.677              1.720              1.567
 Vibration    10          0.693              1.672              1.412
 Vibration    11          0.725              1.582              1.181
 Vibration    12          0.730              1.566              1.146
 Vibration    13          0.734              1.555              1.123
 Vibration    14          0.746              1.524              1.060
 Vibration    15          0.779              1.437              0.907
 Vibration    16          0.812              1.354              0.786
 Vibration    17          0.816              1.343              0.771
 Vibration    18          0.830              1.309              0.728
 Vibration    19          0.835              1.297              0.714
 Vibration    20          0.858              1.243              0.651
 Vibration    21          0.879              1.198              0.601
 Vibration    22          0.889              1.175              0.578
 Vibration    23          0.940              1.067              0.479
 Vibration    24          0.950              1.049              0.463
 Vibration    25          0.966              1.017              0.438
 Vibration    26          0.968              1.012              0.434

                           ! Non-Optimized Parameters !
 Normal termination of Gaussian 16 at Sun Jan  7 08:14:44 2024.
