 Q-Chem 5.4, Q-Chem, Inc., Pleasanton, CA (2021)
 Q-Chem 5.4.0 for Intel X86 EM64T Linux

User input:
--------------------------------------------------------------
$molecule
-2 1
C                 -2.0289050000      4.8045230000      5.4312490000
C                 -3.3115750000      4.2946730000      5.4704160000
C                 -3.7624570000      3.4373860000      4.4392160000
C                 -1.1422040000      4.4826330000      4.3744110000
C                 -1.5959050000      3.6111830000      3.3278050000
C                 -2.9116640000      3.1149670000      3.3939070000
C                  0.1834070000      5.0270290000      4.3276890000
C                  0.9914260000      4.6082290000      3.2246050000
C                  0.6157150000      3.7156010000      2.2150230000
C                 -0.7433320000      3.2317380000      2.1889390000
O                  0.6989590000      5.8519650000      5.1781820000
O                 -1.2338880000      2.5251350000      1.2430960000
O                  2.2331240000      5.1866860000      3.2296590000
H                 -1.6607630000      5.4681080000      6.2066730000
H                 -3.9760190000      4.5527580000      6.2917360000
H                 -4.7716720000      3.0349570000      4.4669840000
H                 -3.2314560000      2.4652490000      2.5864760000
H                  2.1710060000      5.7347350000      4.0502380000
C                  2.9687310000      2.8442050000      1.5994630000
C                  3.0664090000      2.0902600000      2.7701760000
C                  4.1213280000      3.0117360000      0.8236160000
C                  5.3350220000      2.4402040000      1.1994050000
C                  5.4189460000      1.6846170000      2.3702420000
C                  4.2779210000      1.5149760000      3.1533340000
H                  2.1840960000      1.9718580000      3.3886370000
H                  4.0540920000      3.5940150000     -0.0901000000
H                  6.2170150000      2.5868420000      0.5822450000
H                  4.3310010000      0.9374230000      4.0714120000
H                  6.3633670000      1.2409650000      2.6711460000
C                  1.6502290000      3.4529150000      1.1087860000
H                  1.9279690000      4.4439220000      0.7233740000
N                  1.1805900000      2.6949660000     -0.0849520000
C                  1.1705260000      1.2317770000      0.0475040000
C                  0.5247300000      0.6068930000     -1.1902830000
C                  0.5405140000     -0.9258290000     -1.1747100000
C                 -0.0850620000     -1.5588180000     -2.4239150000
C                 -0.0476660000     -3.0920460000     -2.4315300000
C                 -0.6523290000     -3.7202350000     -3.6932980000
H                  0.1954620000      2.9443620000     -0.1727770000
H                  0.6148570000      0.9029260000      0.9375630000
H                  2.2012050000      0.8729110000      0.1369820000
H                  1.0464020000      0.9744140000     -2.0836250000
H                 -0.5111890000      0.9602950000     -1.2568910000
H                  0.0101020000     -1.2843460000     -0.2835010000
H                  1.5766890000     -1.2780190000     -1.0759300000
H                  0.4344390000     -1.1831170000     -3.3159790000
H                 -1.1257280000     -1.2214950000     -2.5155080000
H                 -0.5779850000     -3.4712180000     -1.5481300000
H                  0.9929420000     -3.4273360000     -2.3262460000
H                 -0.1288660000     -3.3288140000     -4.5759000000
H                 -1.6965590000     -3.3960310000     -3.7934900000
C                 -0.5949590000     -5.2526640000     -3.7149050000
C                 -1.1834590000     -5.8763240000     -4.9864450000
C                 -1.1116410000     -7.4079340000     -5.0177690000
C                 -1.6883400000     -8.0282150000     -6.2963140000
C                 -1.6079090000     -9.5592460000     -6.3332610000
C                 -2.1775220000    -10.1775640000     -7.6159040000
C                 -2.0917910000    -11.7084370000     -7.6537330000
C                 -2.6577340000    -12.3259030000     -8.9382360000
C                 -2.5684560000    -13.8568490000     -8.9753010000
C                 -3.1325740000    -14.4725870000    -10.2589280000
H                 -1.1263490000     -5.6471650000     -2.8388340000
H                  0.4489620000     -5.5754660000     -3.6055770000
H                 -0.6566730000     -5.4736140000     -5.8617840000
H                 -2.2299230000     -5.5613390000     -5.0926520000
H                 -1.6442420000     -7.8129840000     -4.1472150000
H                 -0.0654800000     -7.7220640000     -4.9051570000
H                 -1.1581340000     -7.6187860000     -7.1663870000
H                 -2.7359960000     -7.7188990000     -6.4074900000
H                 -2.1416000000     -9.9703940000     -5.4661740000
H                 -0.5604440000     -9.8683000000     -6.2186720000
H                 -1.6451770000     -9.7650850000     -8.4831870000
H                 -3.2257230000     -9.8714790000     -7.7308520000
H                 -2.6259610000    -12.1219810000     -6.7880870000
H                 -1.0435710000    -12.0142740000     -7.5377000000
H                 -2.1250210000    -11.9134540000     -9.8050230000
H                 -3.7064670000    -12.0234090000     -9.0558700000
H                 -3.1009150000    -14.2700440000     -8.1091980000
H                 -1.5201780000    -14.1594880000     -8.8572320000
H                 -4.1917850000    -14.2234260000    -10.3894500000
H                 -3.0521880000    -15.5650970000    -10.2503470000
H                 -2.5958940000    -14.1121860000    -11.1438860000
$end
$rem
MAX_SCF_CYCLES=200
BASIS  =  6-311++G(d,p)
GUI  =  2
JOB_TYPE  =  SP
METHOD  =  B3LYP
THRESH = 14
SCF_CONVERGENCE  = 6
SOLVENT_METHOD = COSMO
$end
$solvent
dielectric 37.219
opticaldielectric 1.43
$end

--------------------------------------------------------------

             Standard Nuclear Orientation (Angstroms)
    I     Atom           X                Y                Z
 ----------------------------------------------------------------
    1      C       8.2669607575     3.3790930178     0.8402737128
    2      C       7.6962551035     4.6309360370     0.9582038490
    3      C       6.3411271494     4.8256359003     0.6013716623
    4      C       7.5188883007     2.2718526353     0.3699921708
    5      C       6.1430150667     2.4656303477     0.0093304718
    6      C       5.5941440478     3.7559740451     0.1341314592
    7      C       8.1189019438     0.9768942312     0.2326574223
    8      C       7.2550129725    -0.0653879797    -0.2282396307
    9      C       5.8956215438     0.0605886773    -0.5338278212
   10      C       5.2958536803     1.3723134102    -0.4954968788
   11      O       9.3513406151     0.6778127286     0.4802393038
   12      O       4.1048849376     1.6268386637    -0.8845499838
   13      O       7.9002465893    -1.2664675479    -0.3606534428
   14      H       9.3052913064     3.2045802345     1.1021342170
   15      H       8.2875454835     5.4675127080     1.3231358958
   16      H       5.8892815972     5.8098886196     0.6925706730
   17      H       4.5550798586     3.8763049507    -0.1525936814
   18      H       8.8100850332    -1.0131252923    -0.0681163425
   19      C       5.1870283064    -2.3810612339    -0.0742946518
   20      C       5.2925941832    -2.2195619807     1.3082091709
   21      C       5.0324667414    -3.6775630062    -0.5779601408
   22      C       4.9786624105    -4.7810922967     0.2707138391
   23      C       5.0809724495    -4.6061906614     1.6519293570
   24      C       5.2398318919    -3.3193391094     2.1644973628
   25      H       5.4331997298    -1.2213991942     1.7068197628
   26      H       4.9465078601    -3.8124479251    -1.6516749872
   27      H       4.8612044245    -5.7783077555    -0.1440942744
   28      H       5.3300318277    -3.1696216782     3.2362719803
   29      H       5.0449652528    -5.4629487747     2.3182403629
   30      C       5.1872170091    -1.2010942461    -1.0527716206
   31      H       5.7880876749    -1.5470924129    -1.9054242480
   32      N       3.8124283887    -1.0238210410    -1.5992040039
   33      C       2.7268098328    -1.0015982201    -0.6095038356
   34      C       1.4058195657    -0.6611716386    -1.3014168369
   35      C       0.1998825356    -0.6914869693    -0.3556233909
   36      C      -1.1312990245    -0.3734403971    -1.0479640367
   37      C      -2.3481240616    -0.4300710660    -0.1160979811
   38      C      -3.6798193600    -0.1351836543    -0.8174725570
   39      H       3.8137394590    -0.0814018728    -1.9893746902
   40      H       2.9084262888    -0.2624246659     0.1840665526
   41      H       2.6462265943    -1.9893208724    -0.1436705787
   42      H       1.2479789777    -1.3675168594    -2.1269082468
   43      H       1.4947714850     0.3367786835    -1.7471078559
   44      H       0.3623311632     0.0229939501     0.4612317186
   45      H       0.1308938977    -1.6823700678     0.1143182737
   46      H      -1.2822085509    -1.0772827551    -1.8778091791
   47      H      -1.0705441572     0.6232681195    -1.5040811121
   48      H      -2.2066707921     0.2822978965     0.7072650259
   49      H      -2.3992028713    -1.4235912151     0.3493886278
   50      H      -3.8120821533    -0.8405472543    -1.6488442834
   51      H      -3.6350779937     0.8628857496    -1.2729049213
   52      C      -4.9013166383    -0.2144316289     0.1065193136
   53      C      -6.2327950853     0.0625524984    -0.6023833283
   54      C      -7.4572424037    -0.0329608908     0.3160796090
   55      C      -8.7884286283     0.2309819380    -0.3982627396
   56      C     -10.0144624760     0.1258117229     0.5169806049
   57      C     -11.3454618358     0.3819475690    -0.2005041106
   58      C     -12.5711098571     0.2714177857     0.7148772715
   59      C     -13.9019885499     0.5235677992    -0.0039314464
   60      C     -15.1267220923     0.4097563677     0.9127008345
   61      C     -16.4554432492     0.6603487990     0.1938377053
   62      H      -4.7765167165     0.4971320678     0.9333257318
   63      H      -4.9396049189    -1.2101096666     0.5681295928
   64      H      -6.3513208905    -0.6442625843    -1.4344057265
   65      H      -6.1992506000     1.0613210946    -1.0572662132
   66      H      -7.3442516553     0.6784027653     1.1448066051
   67      H      -7.4863771149    -1.0299703994     0.7753563946
   68      H      -8.8980101900    -0.4778874347    -1.2296914062
   69      H      -8.7624913365     1.2297152024    -0.8537610477
   70      H      -9.9085193474     0.8373764458     1.3465348983
   71      H     -10.0382080785    -0.8719577506     0.9749327465
   72      H     -11.4506614200    -0.3283348191    -1.0312519082
   73      H     -11.3243944543     1.3803165047    -0.6570586417
   74      H     -12.4679897392     0.9830930291     1.5446867769
   75      H     -12.5913379318    -0.7267204060     1.1721256409
   76      H     -14.0068654373    -0.1869607449    -0.8342127530
   77      H     -13.8854349999     1.5218018900    -0.4604793226
   78      H     -15.0228035265     1.1198733214     1.7429489571
   79      H     -15.1432013962    -0.5879376497     1.3695952409
   80      H     -16.4903909661     1.6652185424    -0.2421216904
   81      H     -17.3063316729     0.5708425976     0.8780095937
   82      H     -16.6117882418    -0.0587946054    -0.6182300087
 ----------------------------------------------------------------

  122   -1565.5130479499      2.64e-07  Convergence criterion met
 Total energy in the final basis set =    -1565.5130479499
    7   -1565.7482360410      8.91e-07  Convergence criterion met
 Total energy in the final basis set =    -1565.7482360410

                    Orbital Energies (a.u.)
 --------------------------------------------------------------

 Alpha MOs
 -- Occupied --
-19.1117 -19.0307 -19.0186 -14.2718 -10.1859 -10.1792 -10.1772 -10.1677
-10.1660 -10.1652 -10.1646 -10.1631 -10.1628 -10.1611 -10.1589 -10.1576
-10.1552 -10.1550 -10.1549 -10.1548 -10.1546 -10.1544 -10.1542 -10.1540
-10.1536 -10.1531 -10.1524 -10.1515 -10.1513 -10.1487 -10.1466 -10.1448
-10.1446 -10.1436 -10.1373 -10.1332 -10.1293  -1.0292  -0.9456  -0.9394
 -0.8835  -0.8448  -0.8262  -0.8093  -0.8018  -0.7904  -0.7774  -0.7688
 -0.7539  -0.7458  -0.7369  -0.7279  -0.7225  -0.7112  -0.6995  -0.6745
 -0.6533  -0.6360  -0.6263  -0.6082  -0.5984  -0.5897  -0.5852  -0.5753
 -0.5733  -0.5696  -0.5687  -0.5646  -0.5631  -0.5530  -0.5359  -0.5057
 -0.5001  -0.4828  -0.4809  -0.4751  -0.4661  -0.4563  -0.4546  -0.4498
 -0.4436  -0.4399  -0.4338  -0.4298  -0.4276  -0.4227  -0.4209  -0.4184
 -0.4167  -0.4112  -0.4090  -0.4029  -0.4001  -0.3992  -0.3936  -0.3872
 -0.3813  -0.3791  -0.3769  -0.3722  -0.3670  -0.3643  -0.3597  -0.3583
 -0.3554  -0.3521  -0.3499  -0.3443  -0.3400  -0.3374  -0.3340  -0.3315
 -0.3292  -0.3268  -0.3229  -0.3215  -0.3201  -0.3181  -0.3172  -0.3155
 -0.3151  -0.3145  -0.3141  -0.3132  -0.3111  -0.3044  -0.3040  -0.3018
 -0.2853  -0.2484  -0.2394  -0.2319  -0.2282  -0.2233  -0.2179  -0.1948
 -0.1878  -0.1098

          Ground-State Mulliken Net Atomic Charges

     Atom                 Charge (a.u.)
  ----------------------------------------
      1 C                    -0.134728
      2 C                    -0.478429
      3 C                    -0.621698
      4 C                     0.065796
      5 C                     0.410133
      6 C                    -0.050777
      7 C                    -0.777276
      8 C                    -0.503238
      9 C                     0.967293
     10 C                    -0.568719
     11 O                    -0.764321
     12 O                    -0.634528
     13 O                    -0.312313
     14 H                     0.170302
     15 H                     0.173286
     16 H                     0.173697
     17 H                     0.165521
     18 H                     0.303285
     19 C                     0.137836
     20 C                    -0.214121
     21 C                     0.126771
     22 C                    -0.337900
     23 C                    -0.457063
     24 C                    -0.317150
     25 H                     0.168721
     26 H                     0.184960
     27 H                     0.216676
     28 H                     0.217844
     29 H                     0.187262
     30 C                     0.278342
     31 H                     0.212793
     32 N                     0.028929
     33 C                    -0.797067
     34 C                    -0.329961
     35 C                    -0.043660
     36 C                    -0.086959
     37 C                    -0.208861
     38 C                    -0.280887
     39 H                     0.262632
     40 H                     0.205982
     41 H                     0.081539
     42 H                     0.146591
     43 H                     0.151658
     44 H                     0.122934
     45 H                     0.135267
     46 H                     0.120353
     47 H                     0.132788
     48 H                     0.138113
     49 H                     0.135331
     50 H                     0.135760
     51 H                     0.137471
     52 C                    -0.410135
     53 C                    -0.403667
     54 C                    -0.343243
     55 C                    -0.199385
     56 C                    -0.053931
     57 C                    -0.036558
     58 C                    -0.194442
     59 C                    -0.397244
     60 C                    -0.272504
     61 C                    -0.713981
     62 H                     0.136143
     63 H                     0.133318
     64 H                     0.132983
     65 H                     0.134813
     66 H                     0.135616
     67 H                     0.133926
     68 H                     0.134226
     69 H                     0.135467
     70 H                     0.134015
     71 H                     0.133031
     72 H                     0.133662
     73 H                     0.133774
     74 H                     0.131715
     75 H                     0.131339
     76 H                     0.128491
     77 H                     0.128951
     78 H                     0.136582
     79 H                     0.136436
     80 H                     0.145609
     81 H                     0.153061
     82 H                     0.145722
  ----------------------------------------
  Sum of atomic charges =    -2.000000

                    Cartesian Multipole Moments
 -----------------------------------------------------------------
    Charge (ESU x 10^10)
                -9.6064
    Dipole Moment (Debye)
         X     -63.6814      Y      -9.4594      Z       2.2877
       Tot      64.4207
    Quadrupole Moments (Debye-Ang)
        XX    -721.0254     XY     -61.8875     YY    -273.1779
        XZ      -1.0656     YZ      -1.3966     ZZ    -248.2934

 Total job time:  7016.93s(wall), 54209.94s(cpu)
        *  Thank you very much for using Q-Chem.  Have a nice day.  *
