 Q-Chem 5.4, Q-Chem, Inc., Pleasanton, CA (2021)
 Q-Chem 5.4.0 for Intel X86 EM64T Linux

User input:
--------------------------------------------------------------
$molecule
-1 2
C                 -1.7548970000      1.4676680000      1.0452310000
C                 -2.9564850000      0.6946390000      0.8071560000
C                 -3.0034310000     -0.5302170000      0.2003500000
C                 -1.7575910000     -1.1536650000     -0.2651010000
C                 -0.5320410000     -0.3853450000     -0.0323550000
C                 -0.5210690000      0.8435810000      0.5806530000
O                 -1.7294970000     -2.2751530000     -0.8291650000
O                 -1.7962560000      2.5866160000      1.6098220000
I                  1.2191360000      1.9958370000      0.9410810000
I                  1.2156260000     -1.3595140000     -0.7352950000
H                 -3.8551510000      1.1828590000      1.1622340000
C                 -4.3303060000     -1.2839020000     -0.0131470000
C                 -5.5391990000     -0.4972260000      0.5296020000
C                 -4.2874070000     -2.6450910000      0.7230470000
C                 -4.5644960000     -1.5196890000     -1.5251500000
H                 -5.6547200000      0.4697390000      0.0315570000
H                 -5.4608020000     -0.3183370000      1.6058350000
H                 -6.4527190000     -1.0746580000      0.3530400000
H                 -4.1538630000     -2.4938270000      1.7991970000
H                 -3.4660970000     -3.2569760000      0.3524280000
H                 -5.2305400000     -3.1841620000      0.5715050000
H                 -4.6295870000     -0.5640530000     -2.0555620000
H                 -5.5077520000     -2.0576340000     -1.6799760000
H                 -3.7501170000     -2.1018720000     -1.9543080000
$end
$rem
MAX_SCF_CYCLES=200
BASIS  =  6-311++G(d,p)
GUI  =  2
JOB_TYPE  =  SP
METHOD  =  B3LYP
SOLVENT_METHOD = COSMO
$end
$solvent
dielectric 37.219
opticaldielectric 1.43
$end

--------------------------------------------------------------

             Standard Nuclear Orientation (Angstroms)
    I     Atom           X                Y                Z
 ----------------------------------------------------------------
    1      C      -0.3486045921    -2.0450113829    -0.0006327644
    2      C      -1.7734874691    -1.7846730473    -0.0006186594
    3      C      -2.3525822316    -0.5455851464    -0.0003038235
    4      C      -1.4995153873     0.6501264855    -0.0002911781
    5      C      -0.0550359590     0.4053034749    -0.0002901904
    6      C       0.4932990754    -0.8538577504    -0.0003618158
    7      O      -1.9654601905     1.8161403118    -0.0002761873
    8      O       0.1042496578    -3.2143877957    -0.0007891194
    9      I       2.5711631840    -1.2642186161     0.0002552553
   10      I       1.0979953193     2.1851879241    -0.0000754253
   11      H      -2.3719557573    -2.6868234975    -0.0007035770
   12      C      -3.8822940664    -0.3606506829     0.0002067415
   13      C      -4.6304263659    -1.7079278965    -0.0000453482
   14      C      -4.3191681154     0.4188954415    -1.2639555617
   15      C      -4.3180996228     0.4177612847     1.2654110188
   16      H      -4.3957330645    -2.3060468605     0.8851597094
   17      H      -4.3965922391    -2.3052763835    -0.8860031465
   18      H      -5.7092677631    -1.5202540121     0.0005852287
   19      H      -4.0458422530    -0.1347327528    -2.1681692618
   20      H      -3.8416897592     1.3972950323    -1.2965204614
   21      H      -5.4077866117     0.5529492161    -1.2652714299
   22      H      -4.0445205962    -0.1370498686     2.1688228811
   23      H      -5.4066638347     0.5523393902     1.2675287771
   24      H      -3.8401761296     1.3959216040     1.2988522301
 ----------------------------------------------------------------

   11  -14376.7764777980      3.63e-06  Convergence criterion met
 Total energy in the final basis set =   -14376.7764777980
    4  -14376.8519314225      8.82e-06  Convergence criterion met
 Total energy in the final basis set =   -14376.8519314225

                    Orbital Energies (a.u.)
 --------------------------------------------------------------

 Alpha MOs
 -- Occupied --
*****************-176.2939-176.2932-165.6975-165.6968-165.6956-165.6954
********-165.6947 -35.7903 -35.7897 -31.2832 -31.2825 -31.2778 -31.2773
-31.2772 -31.2767 -22.9338 -22.9331 -22.9326 -22.9323 -22.9320 -22.9316
-22.9285 -22.9285 -22.9279 -22.9278 -19.0921 -19.0887 -10.2400 -10.2393
-10.2209 -10.2197 -10.1857 -10.1836 -10.1686 -10.1503 -10.1464 -10.1464
 -6.3397  -6.3391  -4.7513  -4.7506  -4.7382  -4.7377  -4.7371  -4.7364
 -2.0173  -2.0165  -2.0133  -2.0128  -2.0124  -2.0117  -2.0011  -2.0011
 -2.0006  -2.0003  -1.0197  -1.0170  -0.8472  -0.8149  -0.7544  -0.7068
 -0.6806  -0.6763  -0.6553  -0.6434  -0.5853  -0.5682  -0.5275  -0.4979
 -0.4698  -0.4431  -0.4365  -0.4288  -0.4255  -0.4244  -0.3993  -0.3986
 -0.3813  -0.3737  -0.3673  -0.3568  -0.3532  -0.3373  -0.3288  -0.3218
 -0.3214  -0.2807  -0.2787  -0.2734  -0.2615  -0.2546  -0.2399  -0.2327
 -0.1731

 Beta MOs
 -- Occupied --
*****************-176.2938-176.2932-165.6975-165.6968-165.6956-165.6954
********-165.6947 -35.7903 -35.7896 -31.2832 -31.2825 -31.2778 -31.2773
-31.2772 -31.2767 -22.9338 -22.9331 -22.9326 -22.9323 -22.9319 -22.9316
-22.9285 -22.9285 -22.9278 -22.9278 -19.0854 -19.0820 -10.2386 -10.2380
-10.2194 -10.2181 -10.1857 -10.1827 -10.1679 -10.1503 -10.1463 -10.1463
 -6.3397  -6.3390  -4.7513  -4.7506  -4.7381  -4.7376  -4.7371  -4.7364
 -2.0173  -2.0165  -2.0132  -2.0128  -2.0125  -2.0118  -2.0011  -2.0010
 -2.0005  -2.0003  -1.0081  -1.0051  -0.8420  -0.8128  -0.7522  -0.6984
 -0.6802  -0.6761  -0.6518  -0.6422  -0.5825  -0.5644  -0.5253  -0.4957
 -0.4674  -0.4392  -0.4327  -0.4239  -0.4232  -0.4120  -0.3959  -0.3839
 -0.3795  -0.3664  -0.3630  -0.3523  -0.3516  -0.3356  -0.3277  -0.3213
 -0.3068  -0.2802  -0.2701  -0.2581  -0.2569  -0.2492  -0.2344  -0.2299

          Ground-State Mulliken Net Atomic Charges

     Atom                 Charge (a.u.)    Spin (a.u.)
  --------------------------------------------------------
      1 C                    -0.984584       0.090403
      2 C                    -0.443464       0.051185
      3 C                     1.117594       0.099420
      4 C                    -0.878642       0.083942
      5 C                    -0.169983       0.083112
      6 C                     0.839252       0.117432
      7 O                    -0.358524       0.245681
      8 O                    -0.430356       0.233099
      9 I                    -0.013400       0.003956
     10 I                    -0.007978       0.003646
     11 H                     0.211413      -0.005979
     12 C                     0.602486      -0.025213
     13 C                    -0.507158       0.000987
     14 C                    -0.701605       0.009674
     15 C                    -0.701983       0.009675
     16 H                     0.141844      -0.000241
     17 H                     0.141826      -0.000241
     18 H                     0.180288       0.000115
     19 H                     0.142209       0.000513
     20 H                     0.179131      -0.000998
     21 H                     0.160090       0.000156
     22 H                     0.142177       0.000512
     23 H                     0.160132       0.000159
     24 H                     0.179231      -0.000998
  --------------------------------------------------------
  Sum of atomic charges =    -1.000000

                    Cartesian Multipole Moments
 -----------------------------------------------------------------
    Charge (ESU x 10^10)
                -4.8032
    Dipole Moment (Debye)
         X       0.0551      Y       2.4997      Z       0.0028
       Tot       2.5003
    Quadrupole Moments (Debye-Ang)
        XX    -137.7022     XY      12.3288     YY    -168.8662
        XZ      -0.0014     YZ      -0.0009     ZZ    -134.2047

 Total job time:  76.97s(wall), 578.57s(cpu)
        *  Thank you very much for using Q-Chem.  Have a nice day.  *
