 Q-Chem 5.4, Q-Chem, Inc., Pleasanton, CA (2021)
 Q-Chem 5.4.0 for Intel X86 EM64T Linux

User input:
--------------------------------------------------------------
$molecule
0 1
C                  5.0797030000     -2.4449790000      0.3199690000
C                  5.8188840000     -1.4927630000     -0.3690730000
C                  5.1471940000     -0.5196680000     -1.1110920000
C                  3.6826380000     -2.4244720000      0.2706520000
C                  3.0213180000     -1.4318170000     -0.4728490000
C                  3.7623260000     -0.4697700000     -1.1643060000
C                  2.9188880000     -3.4651590000      1.0237320000
C                  1.4284950000     -3.4067380000      0.9557170000
C                  0.7671740000     -2.4141220000      0.2121510000
C                  1.5309280000     -1.3734060000     -0.5408840000
C                  0.6874940000     -4.3687630000      1.6471990000
C                 -0.6298830000     -2.3936560000      0.1627940000
C                 -1.3690680000     -3.3458530000      0.8518740000
O                  3.4905990000     -4.3240920000      1.6701090000
O                  0.9592170000     -0.5144750000     -1.1872630000
H                  5.5677740000     -3.2125010000      0.9073470000
H                 -2.4509040000     -3.3520440000      0.8083280000
H                  3.2447090000      0.3034830000     -1.7177170000
H                  1.2051530000     -5.1419630000      2.2006470000
H                 -1.1179710000     -1.6261650000     -0.4246130000
C                 -0.6973750000     -4.3188960000      1.5939410000
S                  6.1083820000      0.7154870000     -2.0119080000
H                  6.9007220000     -1.4865870000     -0.3255390000
S                 -1.6585800000     -5.5540680000      2.4947170000
O                 -0.8242560000     -6.7425930000      2.6286670000
O                 -2.9889440000     -5.5844400000      1.8951020000
N                 -1.8167760000     -4.8649380000      4.0272490000
H                 -1.3449590000     -5.4286000000      4.7270580000
H                 -2.7943620000     -4.7120320000      4.2526280000
O                  5.2739330000      1.9038940000     -2.1460690000
O                  7.4386700000      0.7460940000     -1.4121410000
N                  6.2667920000      0.0262280000     -3.5442520000
H                  7.2443170000     -0.1271160000     -3.7695300000
H                  5.7950260000      0.5895820000     -4.2443250000
$end
$rem
MAX_SCF_CYCLES=200
BASIS  =  6-311++G(d,p)
GUI  =  2
JOB_TYPE  =  SP
METHOD  =  B3LYP
SOLVENT_METHOD = PCM
$end
$pcm
theory = CPCM
$end
$solvent
dielectric 37.219
opticaldielectric 1.43
$end

--------------------------------------------------------------

             Standard Nuclear Orientation (Angstroms)
    I     Atom           X                Y                Z
 ----------------------------------------------------------------
    1      C       5.0797030000    -2.4449790000     0.3199690000
    2      C       5.8188840000    -1.4927630000    -0.3690730000
    3      C       5.1471940000    -0.5196680000    -1.1110920000
    4      C       3.6826380000    -2.4244720000     0.2706520000
    5      C       3.0213180000    -1.4318170000    -0.4728490000
    6      C       3.7623260000    -0.4697700000    -1.1643060000
    7      C       2.9188880000    -3.4651590000     1.0237320000
    8      C       1.4284950000    -3.4067380000     0.9557170000
    9      C       0.7671740000    -2.4141220000     0.2121510000
   10      C       1.5309280000    -1.3734060000    -0.5408840000
   11      C       0.6874940000    -4.3687630000     1.6471990000
   12      C      -0.6298830000    -2.3936560000     0.1627940000
   13      C      -1.3690680000    -3.3458530000     0.8518740000
   14      O       3.4905990000    -4.3240920000     1.6701090000
   15      O       0.9592170000    -0.5144750000    -1.1872630000
   16      H       5.5677740000    -3.2125010000     0.9073470000
   17      H      -2.4509040000    -3.3520440000     0.8083280000
   18      H       3.2447090000     0.3034830000    -1.7177170000
   19      H       1.2051530000    -5.1419630000     2.2006470000
   20      H      -1.1179710000    -1.6261650000    -0.4246130000
   21      C      -0.6973750000    -4.3188960000     1.5939410000
   22      S       6.1083820000     0.7154870000    -2.0119080000
   23      H       6.9007220000    -1.4865870000    -0.3255390000
   24      S      -1.6585800000    -5.5540680000     2.4947170000
   25      O      -0.8242560000    -6.7425930000     2.6286670000
   26      O      -2.9889440000    -5.5844400000     1.8951020000
   27      N      -1.8167760000    -4.8649380000     4.0272490000
   28      H      -1.3449590000    -5.4286000000     4.7270580000
   29      H      -2.7943620000    -4.7120320000     4.2526280000
   30      O       5.2739330000     1.9038940000    -2.1460690000
   31      O       7.4386700000     0.7460940000    -1.4121410000
   32      N       6.2667920000     0.0262280000    -3.5442520000
   33      H       7.2443170000    -0.1271160000    -3.7695300000
   34      H       5.7950260000     0.5895820000    -4.2443250000
 ----------------------------------------------------------------

    9   -1897.0181509677      4.59e-06  Convergence criterion met
 Total energy in the final basis set =    -1897.0181509677

                    Orbital Energies (a.u.)
 --------------------------------------------------------------

 Alpha MOs
 -- Occupied --
-89.0902 -89.0902 -19.1443 -19.1443 -19.1437 -19.1437 -19.1434 -19.1434
-14.3505 -14.3505 -10.2966 -10.2966 -10.2411 -10.2411 -10.2255 -10.2255
-10.2250 -10.2249 -10.2198 -10.2198 -10.2187 -10.2187 -10.2119 -10.2119
 -8.1516  -8.1516  -6.1144  -6.1144  -6.1143  -6.1143  -6.1125  -6.1125
 -1.1482  -1.1482  -1.0806  -1.0789  -1.0411  -1.0411  -0.9220  -0.9216
 -0.9130  -0.9040  -0.8383  -0.8053  -0.7979  -0.7951  -0.7197  -0.7179
 -0.6768  -0.6755  -0.6341  -0.6332  -0.6031  -0.5797  -0.5758  -0.5493
 -0.5415  -0.5408  -0.5310  -0.5284  -0.5198  -0.5182  -0.5059  -0.4854
 -0.4759  -0.4728  -0.4698  -0.4687  -0.4670  -0.4649  -0.4638  -0.4401
 -0.4321  -0.4182  -0.4131  -0.3992  -0.3914  -0.3862  -0.3831  -0.3824
 -0.3544  -0.3542  -0.3431  -0.3421  -0.3397  -0.3396  -0.3245  -0.3235
 -0.3011  -0.2996  -0.2928  -0.2921  -0.2887  -0.2878

          Ground-State Mulliken Net Atomic Charges

     Atom                 Charge (a.u.)
  ----------------------------------------
      1 C                     0.059808
      2 C                    -0.393800
      3 C                    -0.364066
      4 C                     0.555396
      5 C                     0.177690
      6 C                    -0.011621
      7 C                    -0.681409
      8 C                     0.177435
      9 C                     0.554388
     10 C                    -0.681357
     11 C                    -0.011646
     12 C                     0.060255
     13 C                    -0.392603
     14 O                    -0.245978
     15 O                    -0.245994
     16 H                     0.209354
     17 H                     0.283442
     18 H                     0.256431
     19 H                     0.256485
     20 H                     0.209382
     21 C                    -0.364635
     22 S                     0.461842
     23 H                     0.283355
     24 S                     0.461206
     25 O                    -0.289957
     26 O                    -0.287280
     27 N                    -0.435584
     28 H                     0.351304
     29 H                     0.354902
     30 O                    -0.289957
     31 O                    -0.287304
     32 N                    -0.435720
     33 H                     0.354912
     34 H                     0.351323
  ----------------------------------------
  Sum of atomic charges =    -0.000002

                    Cartesian Multipole Moments
 -----------------------------------------------------------------
    Charge (ESU x 10^10)
                -0.0000
    Dipole Moment (Debye)
         X       0.0009      Y      -0.0015      Z      -0.0008
       Tot       0.0019
    Quadrupole Moments (Debye-Ang)
        XX    -150.8672     XY     -20.8167     YY    -203.0322
        XZ     -29.4888     YZ      -0.8882     ZZ    -117.8503

 Total job time:  136.94s(wall), 609.93s(cpu)
        *  Thank you very much for using Q-Chem.  Have a nice day.  *
