 Q-Chem 5.4, Q-Chem, Inc., Pleasanton, CA (2021)
 Q-Chem 5.4.0 for Intel X86 EM64T Linux

User input:
--------------------------------------------------------------
$molecule
-1 2
C                 -0.3038570000      1.1747840000     -0.2733370000
C                 -1.3689470000      0.3007860000     -0.7430280000
C                 -1.3104270000     -1.0574160000     -0.6541120000
C                 -0.1716090000     -1.7565660000     -0.0786180000
C                  0.8941540000     -0.9099310000      0.3925660000
C                  0.8438250000      0.4737450000      0.3064090000
O                 -0.3735040000      2.4214770000     -0.3624900000
O                 -0.1244590000     -3.0162220000      0.0005430000
C                  1.9381580000      1.2470580000      0.7945160000
N                  2.8465690000      1.8414020000      1.2016070000
H                 -2.2299390000      0.8010080000     -1.1768840000
H                 -2.1252490000     -1.6788700000     -1.0155380000
H                  1.7584050000     -1.4005860000      0.8274060000
$end
$rem
MAX_SCF_CYCLES=200
BASIS  =  6-311++G(d,p)
GUI  =  2
JOB_TYPE  =  SP
METHOD  =  B3LYP
SOLVENT_METHOD = COSMO
$end
$solvent
dielectric 37.219
opticaldielectric 1.43
$end

--------------------------------------------------------------

             Standard Nuclear Orientation (Angstroms)
    I     Atom           X                Y                Z
 ----------------------------------------------------------------
    1      C       0.6488701946    -1.1239375756    -0.0000247518
    2      C      -0.7011343193    -1.6683516190     0.0000717955
    3      C      -1.8179679356    -0.8881426780     0.0000801047
    4      C      -1.7581450774     0.5655876014     0.0000162117
    5      C      -0.4309413394     1.1252180090    -0.0000291108
    6      C       0.7121547825     0.3391858430    -0.0000279446
    7      O       1.6649048274    -1.8551803655    -0.0000989128
    8      O      -2.7980047786     1.2824659870    -0.0000659760
    9      C       1.9936108814     0.9650423921    -0.0000580240
   10      N       3.0170067904     1.5098719060     0.0001199292
   11      H      -0.7703915239    -2.7523090608     0.0001495944
   12      H      -2.8107964621    -1.3297989164     0.0001379152
   13      H      -0.3517430570     2.2071078255     0.0000224132
 ----------------------------------------------------------------

   10    -473.9260186033      8.14e-06  Convergence criterion met
 Total energy in the final basis set =     -473.9260186033
    5    -474.0098797642      6.27e-06  Convergence criterion met
 Total energy in the final basis set =     -474.0098797642

                    Orbital Energies (a.u.)
 --------------------------------------------------------------

 Alpha MOs
 -- Occupied --
-19.0994 -19.0967 -14.3189 -10.2482 -10.2373 -10.2225 -10.2097 -10.1908
-10.1809 -10.1797  -1.0260  -1.0169  -0.9201  -0.8459  -0.7767  -0.7097
 -0.6446  -0.5994  -0.5215  -0.4958  -0.4798  -0.4431  -0.4331  -0.4257
 -0.4034  -0.3968  -0.3889  -0.3786  -0.3717  -0.3474  -0.2992  -0.2755
 -0.2642  -0.2590  -0.1842

 Beta MOs
 -- Occupied --
-19.0933 -19.0891 -14.3183 -10.2473 -10.2362 -10.2227 -10.2086 -10.1883
-10.1804 -10.1788  -1.0154  -1.0034  -0.9191  -0.8396  -0.7739  -0.6990
 -0.6405  -0.5955  -0.5174  -0.4935  -0.4760  -0.4402  -0.4197  -0.4168
 -0.3995  -0.3873  -0.3766  -0.3719  -0.3599  -0.3466  -0.2679  -0.2657
 -0.2581  -0.2522

          Ground-State Mulliken Net Atomic Charges

     Atom                 Charge (a.u.)    Spin (a.u.)
  --------------------------------------------------------
      1 C                    -1.041935       0.040841
      2 C                     0.135516       0.073120
      3 C                     0.028138       0.030996
      4 C                    -0.300286       0.104030
      5 C                    -0.445442       0.169415
      6 C                     2.127791       0.078789
      7 O                    -0.486136       0.219045
      8 O                    -0.512450       0.267859
      9 C                    -0.834734       0.005654
     10 N                    -0.351152       0.031266
     11 H                     0.226696      -0.005635
     12 H                     0.225311      -0.003273
     13 H                     0.228683      -0.012107
  --------------------------------------------------------
  Sum of atomic charges =    -1.000000

                    Cartesian Multipole Moments
 -----------------------------------------------------------------
    Charge (ESU x 10^10)
                -4.8032
    Dipole Moment (Debye)
         X      -3.2829      Y      -1.7929      Z       0.0006
       Tot       3.7406
    Quadrupole Moments (Debye-Ang)
        XX    -104.3113     XY      10.5994     YY     -72.4382
        XZ      -0.0014     YZ      -0.0009     ZZ     -59.7288

 Total job time:  16.69s(wall), 120.93s(cpu)
        *  Thank you very much for using Q-Chem.  Have a nice day.  *
