 Gaussian 16, Revision A.03,
 Gaussian 16:  ES64L-G16RevA.03 25-Dec-2016

 ----------------------------------------------------------------------
 #P UB3LYP/6-311++G(d,p) nosym opt freq SCRF=(PCM,Solvent=n,n-DiMethylF
 ormamide)
 ----------------------------------------------------------------------

 -------
 Reduced
 -------
 Symbolic Z-matrix:
 Charge = -2 Multiplicity = 1

 SCF Done:  E(UB3LYP) =  -842.871269546     A.U. after   16 cycles
 SCF Done:  E(UB3LYP) =  -842.872029981     A.U. after   14 cycles
 SCF Done:  E(UB3LYP) =  -842.872130490     A.U. after   13 cycles
 SCF Done:  E(UB3LYP) =  -842.872164090     A.U. after   12 cycles
 SCF Done:  E(UB3LYP) =  -842.872168699     A.U. after   11 cycles
 SCF Done:  E(UB3LYP) =  -842.872171265     A.U. after   10 cycles
 Optimization completed.
    -- Stationary point found.
 Normal termination of Gaussian 16 at Sat Feb 10 18:27:36 2024.

 ----------------------------------------------------------------------
 #P Geom=AllCheck Guess=TCheck SCRF=Check GenChk UB3LYP/6-311++G(d,p) F
 req
 ----------------------------------------------------------------------

 Structure from the checkpoint file:  "133-an.chk"
 -------
 Reduced
 -------
 Charge = -2 Multiplicity = 1

                          Input orientation:
 ---------------------------------------------------------------------
 Center     Atomic      Atomic             Coordinates (Angstroms)
 Number     Number       Type             X           Y           Z
 ---------------------------------------------------------------------
      1          8           0        1.559531   -3.127116    0.073660
      2          6           0        1.298500   -1.854187    0.038268
      3          6           0        2.360251   -0.873836   -0.008888
      4          6           0        3.716359   -1.295128   -0.015848
      5          6           0        4.760011   -0.395434   -0.059849
      6          6           0        4.482672    0.993664   -0.098412
      7          6           0        3.174478    1.431383   -0.091685
      8          6           0        2.075537    0.532455   -0.047240
      9          6           0        0.720207    1.065920   -0.042307
     10          8           0        0.550817    2.355639   -0.075208
     11          6           0       -0.340796    0.102925    0.001570
     12          6           0       -1.756323    0.492488    0.007930
     13          6           0       -2.198678    1.842068   -0.039775
     14          6           0       -3.548305    2.181972   -0.029854
     15          6           0       -4.535828    1.192213    0.029488
     16          6           0       -4.143193   -0.138507    0.074436
     17          6           0       -2.783617   -0.510948    0.063867
     18          6           0       -2.415135   -1.900292    0.106884
     19          6           0       -1.104784   -2.266355    0.094568
     20          6           0       -0.031137   -1.325616    0.043126
     21          1           0        3.905122   -2.362389    0.014704
     22          1           0        5.787721   -0.745702   -0.064442
     23          1           0        5.298412    1.709482   -0.133270
     24          1           0        2.947205    2.490480   -0.120830
     25          1           0       -1.435907    2.604500   -0.083916
     26          1           0       -3.832734    3.229428   -0.067817
     27          1           0       -5.588160    1.456982    0.038902
     28          1           0       -4.891277   -0.925422    0.118967
     29          1           0       -3.203642   -2.646604    0.147860
     30          1           0       -0.827305   -3.314061    0.125109
 ---------------------------------------------------------------------

 SCF Done:  E(UB3LYP) =  -842.872171265     A.U. after    1 cycles

 Alpha  occ. eigenvalues --  -19.01977 -19.01869 -10.17750 -10.17608 -10.16434
 Alpha  occ. eigenvalues --  -10.16248 -10.15571 -10.15486 -10.15375 -10.15281
 Alpha  occ. eigenvalues --  -10.15232 -10.14901 -10.14802 -10.14604 -10.14403
 Alpha  occ. eigenvalues --  -10.14240 -10.14140 -10.14114 -10.13988 -10.13348
 Alpha  occ. eigenvalues --   -0.93520  -0.93111  -0.84694  -0.82868  -0.79661
 Alpha  occ. eigenvalues --   -0.75749  -0.73636  -0.72508  -0.71829  -0.69248
 Alpha  occ. eigenvalues --   -0.64254  -0.61135  -0.59938  -0.58197  -0.56654
 Alpha  occ. eigenvalues --   -0.52930  -0.52302  -0.48913  -0.47503  -0.46894
 Alpha  occ. eigenvalues --   -0.44275  -0.43568  -0.42842  -0.40834  -0.40369
 Alpha  occ. eigenvalues --   -0.40182  -0.38911  -0.38592  -0.37569  -0.36730
 Alpha  occ. eigenvalues --   -0.36179  -0.36042  -0.34994  -0.33047  -0.32774
 Alpha  occ. eigenvalues --   -0.32072  -0.31587  -0.31375  -0.29872  -0.29228
 Alpha  occ. eigenvalues --   -0.25451  -0.23258  -0.22473  -0.22399  -0.20017
 Alpha  occ. eigenvalues --   -0.19659  -0.19155  -0.11311
 Alpha virt. eigenvalues --   -0.02898  -0.01741  -0.00013   0.00568   0.00797
 Alpha virt. eigenvalues --    0.01224   0.02033   0.02132   0.02286   0.03722
 Alpha virt. eigenvalues --    0.03847   0.04745   0.04978   0.05627   0.05934

  Beta  occ. eigenvalues --  -19.01977 -19.01869 -10.17750 -10.17608 -10.16434
  Beta  occ. eigenvalues --  -10.16248 -10.15571 -10.15486 -10.15375 -10.15281
  Beta  occ. eigenvalues --  -10.15232 -10.14901 -10.14802 -10.14604 -10.14403
  Beta  occ. eigenvalues --  -10.14240 -10.14140 -10.14114 -10.13988 -10.13348
  Beta  occ. eigenvalues --   -0.93520  -0.93111  -0.84694  -0.82868  -0.79661
  Beta  occ. eigenvalues --   -0.75749  -0.73636  -0.72508  -0.71829  -0.69248
  Beta  occ. eigenvalues --   -0.64254  -0.61135  -0.59938  -0.58197  -0.56654
  Beta  occ. eigenvalues --   -0.52930  -0.52302  -0.48913  -0.47503  -0.46894
  Beta  occ. eigenvalues --   -0.44275  -0.43568  -0.42842  -0.40834  -0.40369
  Beta  occ. eigenvalues --   -0.40182  -0.38911  -0.38592  -0.37569  -0.36730
  Beta  occ. eigenvalues --   -0.36179  -0.36042  -0.34994  -0.33047  -0.32774
  Beta  occ. eigenvalues --   -0.32072  -0.31587  -0.31375  -0.29872  -0.29228
  Beta  occ. eigenvalues --   -0.25451  -0.23258  -0.22473  -0.22399  -0.20017
  Beta  occ. eigenvalues --   -0.19659  -0.19155  -0.11311
  Beta virt. eigenvalues --   -0.02898  -0.01741  -0.00013   0.00568   0.00797
  Beta virt. eigenvalues --    0.01224   0.02033   0.02132   0.02286   0.03722
  Beta virt. eigenvalues --    0.03847   0.04745   0.04978   0.05627   0.05934

 Mulliken charges and spin densities:
               1          2
     1  O   -0.652883   0.000000
     2  C   -0.717324   0.000000
     3  C    0.243316  -0.000000
     4  C   -0.128348   0.000000
     5  C   -0.497072   0.000000
     6  C   -0.502271  -0.000000
     7  C   -0.058833   0.000000
     8  C    0.266544  -0.000000
     9  C   -0.508442   0.000000
    10  O   -0.613093   0.000000
    11  C    0.525665   0.000000
    12  C    0.860722  -0.000000
    13  C   -0.620482  -0.000000
    14  C   -0.577094  -0.000000
    15  C   -0.351660  -0.000000
    16  C   -0.463045   0.000000
    17  C    0.432379  -0.000000
    18  C   -0.537071   0.000000
    19  C   -0.285694   0.000000
    20  C    0.660550   0.000000
    21  H    0.148224  -0.000000
    22  H    0.160633  -0.000000
    23  H    0.161469  -0.000000
    24  H    0.144519  -0.000000
    25  H    0.153878  -0.000000
    26  H    0.171264  -0.000000
    27  H    0.162183   0.000000
    28  H    0.134098   0.000000
    29  H    0.143175  -0.000000
    30  H    0.144694   0.000000
 Sum of Mulliken charges =  -2.00000  -0.00000

 Dipole moment (field-independent basis, Debye):
    X=             -6.1534    Y=              3.0435    Z=             -0.0241  Tot=              6.8650
 Quadrupole moment (field-independent basis, Debye-Ang):
   XX=           -154.9134   YY=           -175.5726   ZZ=           -130.5956
   XY=             14.1928   XZ=             -0.1077   YZ=              1.0710

  Exact polarizability: 769.291 -42.670 428.390  -7.696  -7.598 179.933
 Approx polarizability: 827.258 -38.754 505.621  -8.495  -9.528 201.114

                      1                      2                      3
                      A                      A                      A
 Frequencies --     58.5095                62.9329               124.7065
 Red. masses --      6.4274                 4.8663                 5.4207
 Frc consts  --      0.0130                 0.0114                 0.0497
 IR Inten    --     11.6832                 1.7167                10.5154

                      4                      5                      6
                      A                      A                      A
 Frequencies --    143.0294               179.9287               189.9472
 Red. masses --      4.4978                 5.2626                 6.8012
 Frc consts  --      0.0542                 0.1004                 0.1446
 IR Inten    --      0.0064                 9.1046                 2.8613

                      7                      8                      9
                      A                      A                      A
 Frequencies --    226.6412               280.8692               288.8346
 Red. masses --      4.3682                 5.2112                 5.8497
 Frc consts  --      0.1322                 0.2422                 0.2875
 IR Inten    --      5.6027                 0.2340                12.0460

                     10                     11                     12
                      A                      A                      A
 Frequencies --    309.3910               361.9098               384.9255
 Red. masses --      8.9959                 6.6550                11.5140
 Frc consts  --      0.5074                 0.5136                 1.0052
 IR Inten    --      2.7840                 2.3801                 8.7131

                     13                     14                     15
                      A                      A                      A
 Frequencies --    396.6633               439.6539               443.5548
 Red. masses --      4.9312                 4.4161                 5.6874
 Frc consts  --      0.4571                 0.5029                 0.6593
 IR Inten    --      1.3706                 6.0926                 7.5384

                     16                     17                     18
                      A                      A                      A
 Frequencies --    450.1343               491.1013               520.6488
 Red. masses --      3.2269                11.9892                 3.7750
 Frc consts  --      0.3852                 1.7037                 0.6029
 IR Inten    --      0.0480                17.1538                 3.8823

                     19                     20                     21
                      A                      A                      A
 Frequencies --    534.0983               542.8136               560.8385
 Red. masses --      7.0547                 3.3623                 6.8565
 Frc consts  --      1.1857                 0.5837                 1.2707
 IR Inten    --     10.6520                28.0899                20.5616

                     22                     23                     24
                      A                      A                      A
 Frequencies --    608.1837               634.7471               666.6393
 Red. masses --      4.0578                 6.9112                 6.5530
 Frc consts  --      0.8843                 1.6406                 1.7158
 IR Inten    --      0.7219                25.8658                 4.1231

                     25                     26                     27
                      A                      A                      A
 Frequencies --    676.0752               690.8411               703.2446
 Red. masses --      6.9256                 3.6751                 2.1611
 Frc consts  --      1.8651                 1.0334                 0.6297
 IR Inten    --      2.2166                14.9471                45.6755

                     28                     29                     30
                      A                      A                      A
 Frequencies --    750.6424               754.4029               769.7685
 Red. masses --      6.3238                 1.3576                 3.0571
 Frc consts  --      2.0994                 0.4552                 1.0673
 IR Inten    --      5.3782               122.7801                46.3075

                     31                     32                     33
                      A                      A                      A
 Frequencies --    783.9540               803.7642               806.4167
 Red. masses --      1.9395                 2.2294                 5.9077
 Frc consts  --      0.7023                 0.8486                 2.2635
 IR Inten    --      1.5260                50.6709                15.0840

                     34                     35                     36
                      A                      A                      A
 Frequencies --    818.5012               861.3367               869.2119
 Red. masses --      2.5264                 5.4532                 1.6702
 Frc consts  --      0.9972                 2.3837                 0.7435
 IR Inten    --     35.4990                55.3977                 0.1362

                     37                     38                     39
                      A                      A                      A
 Frequencies --    874.7269               918.4730               950.1175
 Red. masses --      1.5422                 6.6803                 1.3468
 Frc consts  --      0.6952                 3.3203                 0.7163
 IR Inten    --      0.5494                 9.0181                 9.4211

                     40                     41                     42
                      A                      A                      A
 Frequencies --    980.8014               988.2490               989.0747
 Red. masses --      1.3632                 1.2637                 5.9262
 Frc consts  --      0.7726                 0.7272                 3.4158
 IR Inten    --      3.5280                 1.2150               134.9282

                     43                     44                     45
                      A                      A                      A
 Frequencies --    989.7709               994.3492              1023.6502
 Red. masses --      1.2788                 1.2929                 1.9926
 Frc consts  --      0.7381                 0.7532                 1.2302
 IR Inten    --      4.3111                 2.4758               157.7054

                     46                     47                     48
                      A                      A                      A
 Frequencies --   1049.4549              1073.7839              1106.0081
 Red. masses --      2.0245                 3.7783                 1.9151
 Frc consts  --      1.3137                 2.5667                 1.3802
 IR Inten    --     26.8689               123.4450                74.2871

                     49                     50                     51
                      A                      A                      A
 Frequencies --   1117.2666              1140.0047              1156.7023
 Red. masses --      1.6446                 1.2859                 1.6637
 Frc consts  --      1.2095                 0.9846                 1.3115
 IR Inten    --    475.9213                86.3702                69.1696

                     52                     53                     54
                      A                      A                      A
 Frequencies --   1163.1501              1184.5357              1204.9686
 Red. masses --      1.2479                 1.9585                 2.1312
 Frc consts  --      0.9947                 1.6191                 1.8231
 IR Inten    --     23.1687               118.9890               601.2977

                     55                     56                     57
                      A                      A                      A
 Frequencies --   1219.0070              1232.7128              1252.5880
 Red. masses --      2.9171                 2.3518                 2.3940
 Frc consts  --      2.5539                 2.1056                 2.2130
 IR Inten    --     34.5878               386.6750               721.5735

                     58                     59                     60
                      A                      A                      A
 Frequencies --   1284.9934              1302.4854              1335.7912
 Red. masses --      2.8779                 4.7058                 6.7816
 Frc consts  --      2.7998                 4.7036                 7.1296
 IR Inten    --    239.5481               503.0189                36.3581

                     61                     62                     63
                      A                      A                      A
 Frequencies --   1354.6325              1371.0333              1403.3716
 Red. masses --      7.7236                 3.0036                 2.6694
 Frc consts  --      8.3505                 3.3265                 3.0975
 IR Inten    --    390.4555              1543.0424                55.0725

                     64                     65                     66
                      A                      A                      A
 Frequencies --   1436.5023              1445.5370              1462.3107
 Red. masses --      5.0128                 2.5144                 2.4910
 Frc consts  --      6.0946                 3.0956                 3.1383
 IR Inten    --      2.8276               200.2180                70.1328

                     67                     68                     69
                      A                      A                      A
 Frequencies --   1477.9548              1489.9680              1518.3239
 Red. masses --      2.8608                 3.7222                 3.7942
 Frc consts  --      3.6818                 4.8686                 5.1535
 IR Inten    --    154.7139               107.3385                11.3128

                     70                     71                     72
                      A                      A                      A
 Frequencies --   1553.7896              1579.6678              1609.4713
 Red. masses --      5.1473                 7.2735                 6.0239
 Frc consts  --      7.3217                10.6936                 9.1938
 IR Inten    --     61.0480               163.4349                43.4388

                     73                     74                     75
                      A                      A                      A
 Frequencies --   1612.2724              1617.9004              3137.4700
 Red. masses --      5.5531                 5.7568                 1.0857
 Frc consts  --      8.5048                 8.8783                 6.2967
 IR Inten    --     10.0872               126.2091                 3.1179

                     76                     77                     78
                      A                      A                      A
 Frequencies --   3139.6076              3140.6951              3146.0373
 Red. masses --      1.0865                 1.0851                 1.0892
 Frc consts  --      6.3099                 6.3064                 6.3515
 IR Inten    --     43.0321                18.0541                58.5613

                     79                     80                     81
                      A                      A                      A
 Frequencies --   3156.7270              3168.0716              3171.0269
 Red. masses --      1.0903                 1.0960                 1.0922
 Frc consts  --      6.4016                 6.4814                 6.4707
 IR Inten    --     47.6434               102.1944                63.4030

                     82                     83                     84
                      A                      A                      A
 Frequencies --   3177.6518              3183.7132              3212.6644
 Red. masses --      1.0914                 1.0917                 1.0913
 Frc consts  --      6.4932                 6.5199                 6.6361
 IR Inten    --     52.0835                64.7240                25.7677

 - Thermochemistry -
 -------------------
 Temperature   298.150 Kelvin.  Pressure   1.00000 Atm.
 Atom     1 has atomic number  8 and mass  15.99491

 Molecular mass:   258.06808 amu.
 Principal axes and moments of inertia in atomic units:
                           1         2         3
     Eigenvalues --  2321.997037337.037109658.96630
           X            0.99233   0.12271   0.01509
           Y           -0.12315   0.99184   0.03298
           Z           -0.01092  -0.03459   0.99934
 This molecule is an asymmetric top.
 Rotational symmetry number  1.
 Warning -- assumption of classical behavior for rotation
           may cause significant error
 Rotational temperatures (Kelvin)      0.03730     0.01181     0.00897
 Rotational constants (GHZ):           0.77724     0.24598     0.18685
 Zero-point vibrational energy     581911.0 (Joules/Mol)
                                  139.08007 (Kcal/Mol)
 Warning -- explicit consideration of  22 degrees of freedom as
           vibrations may cause significant error
 Vibrational temperatures:     84.18    90.55   179.42   205.79   258.88
          (Kelvin)            273.29   326.09   404.11   415.57   445.14
                              520.71   553.82   570.71   632.56   638.18
                              647.64   706.59   749.10   768.45   780.99
                              806.92   875.04   913.26   959.15   972.72
                              993.97  1011.81  1080.01  1085.42  1107.53
                             1127.93  1156.44  1160.25  1177.64  1239.27
                             1250.60  1258.54  1321.48  1367.01  1411.15
                             1421.87  1423.06  1424.06  1430.65  1472.80
                             1509.93  1544.94  1591.30  1607.50  1640.21
                             1664.24  1673.51  1704.28  1733.68  1753.88
                             1773.60  1802.19  1848.82  1873.99  1921.91
                             1949.01  1972.61  2019.14  2066.81  2079.81
                             2103.94  2126.45  2143.73  2184.53  2235.56
                             2272.79  2315.67  2319.70  2327.80  4514.12
                             4517.20  4518.76  4526.45  4541.83  4558.15
                             4562.40  4571.93  4580.65  4622.31

 Zero-point correction=                           0.221638 (Hartree/Particle)
 Thermal correction to Energy=                    0.235440
 Thermal correction to Enthalpy=                  0.236384
 Thermal correction to Gibbs Free Energy=         0.181341
 Sum of electronic and zero-point Energies=           -842.650533
 Sum of electronic and thermal Energies=              -842.636732
 Sum of electronic and thermal Enthalpies=            -842.635787
 Sum of electronic and thermal Free Energies=         -842.690830

                     E (Thermal)             CV                S
                      KCal/Mol        Cal/Mol-Kelvin    Cal/Mol-Kelvin
 Total                  147.741             58.302            115.847
 Electronic               0.000              0.000              0.000
 Translational            0.889              2.981             42.544
 Rotational               0.889              2.981             33.464
 Vibrational            145.963             52.340             39.838
 Vibration     1          0.596              1.974              4.507
 Vibration     2          0.597              1.972              4.363
 Vibration     3          0.610              1.928              3.026
 Vibration     4          0.616              1.910              2.763
 Vibration     5          0.629              1.867              2.329
 Vibration     6          0.633              1.854              2.228
 Vibration     7          0.650              1.800              1.905
 Vibration     8          0.681              1.709              1.528
 Vibration     9          0.685              1.694              1.481
 Vibration    10          0.699              1.656              1.366
 Vibration    11          0.736              1.551              1.114
 Vibration    12          0.754              1.502              1.020
 Vibration    13          0.763              1.477              0.975
 Vibration    14          0.800              1.384              0.828
 Vibration    15          0.803              1.375              0.816
 Vibration    16          0.809              1.361              0.795
 Vibration    17          0.847              1.270              0.681
 Vibration    18          0.876              1.204              0.608
 Vibration    19          0.889              1.175              0.578
 Vibration    20          0.898              1.155              0.559
 Vibration    21          0.916              1.116              0.522
 Vibration    22          0.967              1.014              0.436

 Optimization completed.
    -- Stationary point found.
 Normal termination of Gaussian 16 at Sat Feb 10 20:12:04 2024.
