 Gaussian 16, Revision A.03,
 Gaussian 16:  ES64L-G16RevA.03 25-Dec-2016

 --------------------------------------
 #P UB3LYP/6-311++G(d,p) nosym opt freq
 --------------------------------------

 --------
 Oxidized
 --------
 Symbolic Z-matrix:
 Charge =  0 Multiplicity = 1

 SCF Done:  E(UB3LYP) =  -5685.87973956     A.U. after   17 cycles
 SCF Done:  E(UB3LYP) =  -5685.91013543     A.U. after   17 cycles
 SCF Done:  E(UB3LYP) =  -5685.93080326     A.U. after   14 cycles
 SCF Done:  E(UB3LYP) =  -5685.93711591     A.U. after   14 cycles
 SCF Done:  E(UB3LYP) =  -5685.93943477     A.U. after   14 cycles
 SCF Done:  E(UB3LYP) =  -5685.94073811     A.U. after   14 cycles
 SCF Done:  E(UB3LYP) =  -5685.94203865     A.U. after   14 cycles
 SCF Done:  E(UB3LYP) =  -5685.94290906     A.U. after   14 cycles
 SCF Done:  E(UB3LYP) =  -5685.94333151     A.U. after   14 cycles
 SCF Done:  E(UB3LYP) =  -5685.94358611     A.U. after   13 cycles
 SCF Done:  E(UB3LYP) =  -5685.94391382     A.U. after   10 cycles
 SCF Done:  E(UB3LYP) =  -5685.94391388     A.U. after    9 cycles
 SCF Done:  E(UB3LYP) =  -5685.94391392     A.U. after    8 cycles
 SCF Done:  E(UB3LYP) =  -5685.94391395     A.U. after    8 cycles
 SCF Done:  E(UB3LYP) =  -5685.94391399     A.U. after    8 cycles
 SCF Done:  E(UB3LYP) =  -5685.94391403     A.U. after    9 cycles
 SCF Done:  E(UB3LYP) =  -5685.94391407     A.U. after    8 cycles
 SCF Done:  E(UB3LYP) =  -5685.94391409     A.U. after    8 cycles
 SCF Done:  E(UB3LYP) =  -5685.94391411     A.U. after    8 cycles
 Optimization completed.
    -- Stationary point found.
 Normal termination of Gaussian 16 at Sun Dec 17 22:12:39 2023.

 ----------------------------------------------------------------------
 #P Geom=AllCheck Guess=TCheck SCRF=Check GenChk UB3LYP/6-311++G(d,p) F
 req
 ----------------------------------------------------------------------

 Structure from the checkpoint file:  "019.chk"
 --------
 Oxidized
 --------
 Charge =  0 Multiplicity = 1

                          Input orientation:
 ---------------------------------------------------------------------
 Center     Atomic      Atomic             Coordinates (Angstroms)
 Number     Number       Type             X           Y           Z
 ---------------------------------------------------------------------
      1          6           0       -2.925761    0.424076    0.525328
      2          6           0       -1.961558   -0.407516   -0.343273
      3          6           0       -2.300310   -0.334031   -1.845104
      4          6           0       -0.496926   -0.114182   -0.050727
      5          6           0        0.176617    1.037155   -0.241499
      6         35           0       -0.610140    2.623835   -0.956804
      7          6           0        1.629667    1.213718    0.085159
      8          8           0        2.196515    2.269779   -0.103708
      9          6           0        2.383373    0.048807    0.656973
     10          6           0        1.718556   -1.103103    0.849741
     11         35           0        2.585499   -2.636952    1.568338
     12          6           0        0.273207   -1.283816    0.526813
     13          8           0       -0.278225   -2.347110    0.722215
     14          6           0        3.833189    0.262517    0.971401
     15          1           0       -2.904421    1.484984    0.275789
     16          1           0       -2.691233    0.315843    1.587490
     17          1           0       -3.945859    0.061254    0.372154
     18          1           0       -2.096264   -1.447703   -0.046118
     19          1           0       -2.239794    0.680768   -2.238537
     20          1           0       -1.631796   -0.970395   -2.430790
     21          1           0       -3.320896   -0.695575   -1.998056
     22          1           0        4.453624   -0.440899    0.409325
     23          1           0        4.128006    1.279712    0.723501
     24          1           0        4.024932    0.078834    2.032145
 ---------------------------------------------------------------------

 SCF Done:  E(UB3LYP) =  -5685.94391411     A.U. after    1 cycles

 Alpha  occ. eigenvalues -- -482.85172-482.84878 -62.50444 -62.50157 -56.32487
 Alpha  occ. eigenvalues --  -56.32203 -56.32109 -56.32058 -56.31818 -56.31768
 Alpha  occ. eigenvalues --  -19.15355 -19.15311 -10.30544 -10.30480 -10.26896
 Alpha  occ. eigenvalues --  -10.26761 -10.23980 -10.23748 -10.20070 -10.19097
 Alpha  occ. eigenvalues --  -10.17262 -10.17261  -8.71413  -8.71133  -6.54577
 Alpha  occ. eigenvalues --   -6.54305  -6.53309  -6.53159  -6.53021  -6.52878
 Alpha  occ. eigenvalues --   -2.65670  -2.65395  -2.65333  -2.65219  -2.65053
 Alpha  occ. eigenvalues --   -2.64945  -2.64209  -2.64206  -2.63923  -2.63921
 Alpha  occ. eigenvalues --   -1.09042  -1.08835  -0.89953  -0.86884  -0.81483
 Alpha  occ. eigenvalues --   -0.80468  -0.77803  -0.72483  -0.70053  -0.70044
 Alpha  occ. eigenvalues --   -0.63721  -0.60854  -0.58395  -0.55460  -0.50229
 Alpha  occ. eigenvalues --   -0.48115  -0.48105  -0.46989  -0.45773  -0.44661
 Alpha  occ. eigenvalues --   -0.44055  -0.43780  -0.43154  -0.42637  -0.42033
 Alpha  occ. eigenvalues --   -0.40341  -0.40026  -0.37545  -0.36685  -0.35106
 Alpha  occ. eigenvalues --   -0.35029  -0.34481  -0.31097  -0.30806  -0.30127
 Alpha  occ. eigenvalues --   -0.29523  -0.28843  -0.27528
 Alpha virt. eigenvalues --   -0.14528  -0.04663  -0.03204  -0.03116  -0.01499
 Alpha virt. eigenvalues --   -0.01179  -0.00174   0.01189   0.01644   0.01834
 Alpha virt. eigenvalues --    0.02867   0.02891   0.04045   0.04335   0.04602

  Beta  occ. eigenvalues -- -482.85172-482.84878 -62.50444 -62.50157 -56.32487
  Beta  occ. eigenvalues --  -56.32203 -56.32109 -56.32058 -56.31818 -56.31768
  Beta  occ. eigenvalues --  -19.15355 -19.15311 -10.30544 -10.30480 -10.26896
  Beta  occ. eigenvalues --  -10.26761 -10.23980 -10.23748 -10.20070 -10.19097
  Beta  occ. eigenvalues --  -10.17262 -10.17261  -8.71413  -8.71133  -6.54577
  Beta  occ. eigenvalues --   -6.54305  -6.53309  -6.53159  -6.53021  -6.52878
  Beta  occ. eigenvalues --   -2.65670  -2.65395  -2.65333  -2.65219  -2.65053
  Beta  occ. eigenvalues --   -2.64945  -2.64209  -2.64206  -2.63923  -2.63921
  Beta  occ. eigenvalues --   -1.09042  -1.08835  -0.89953  -0.86884  -0.81483
  Beta  occ. eigenvalues --   -0.80468  -0.77803  -0.72483  -0.70053  -0.70044
  Beta  occ. eigenvalues --   -0.63721  -0.60854  -0.58395  -0.55460  -0.50229
  Beta  occ. eigenvalues --   -0.48115  -0.48105  -0.46989  -0.45773  -0.44661
  Beta  occ. eigenvalues --   -0.44055  -0.43780  -0.43154  -0.42637  -0.42033
  Beta  occ. eigenvalues --   -0.40341  -0.40026  -0.37545  -0.36685  -0.35106
  Beta  occ. eigenvalues --   -0.35029  -0.34481  -0.31097  -0.30806  -0.30127
  Beta  occ. eigenvalues --   -0.29523  -0.28843  -0.27528
  Beta virt. eigenvalues --   -0.14528  -0.04663  -0.03204  -0.03116  -0.01499
  Beta virt. eigenvalues --   -0.01179  -0.00174   0.01189   0.01644   0.01834
  Beta virt. eigenvalues --    0.02867   0.02891   0.04045   0.04335   0.04602

 Mulliken charges and spin densities:
               1          2
     1  C   -0.653632   0.000000
     2  C    0.208818  -0.000000
     3  C   -0.653592   0.000000
     4  C    1.158120   0.000000
     5  C    0.193172   0.000000
     6  Br  -0.011941   0.000000
     7  C   -1.300694  -0.000000
     8  O   -0.129416  -0.000000
     9  C    0.868645   0.000000
    10  C    0.152194   0.000000
    11  Br  -0.072209   0.000000
    12  C   -1.055471  -0.000000
    13  O   -0.121782   0.000000
    14  C   -0.306822  -0.000000
    15  H    0.156199  -0.000000
    16  H    0.150976   0.000000
    17  H    0.151935  -0.000000
    18  H    0.237992   0.000000
    19  H    0.156116  -0.000000
    20  H    0.150941   0.000000
    21  H    0.151912   0.000000
    22  H    0.180674  -0.000000
    23  H    0.207050   0.000000
    24  H    0.180816  -0.000000
 Sum of Mulliken charges =  -0.00000   0.00000

 Dipole moment (field-independent basis, Debye):
    X=             -0.1863    Y=             -0.1191    Z=             -0.0107  Tot=              0.2214
 Quadrupole moment (field-independent basis, Debye-Ang):
   XX=           -100.4406   YY=           -120.6466   ZZ=           -107.0009
   XY=             -5.1437   XZ=              3.3488   YZ=              3.0388

  Exact polarizability: 179.314   0.949 201.446  18.922 -30.156 121.037
 Approx polarizability: 250.574  43.595 385.049   8.820 -59.168 185.454

                      1                      2                      3
                      A                      A                      A
 Frequencies --     30.0248                41.8667                57.6002
 Red. masses --      9.6388                 4.3695                 2.7528
 Frc consts  --      0.0051                 0.0045                 0.0054
 IR Inten    --      1.9515                 1.6824                 0.3642

                      4                      5                      6
                      A                      A                      A
 Frequencies --     59.7767                84.7515               150.0281
 Red. masses --      1.6547                 2.1168                 3.1545
 Frc consts  --      0.0035                 0.0090                 0.0418
 IR Inten    --      0.1370                 1.5847                 1.0402

                      7                      8                      9
                      A                      A                      A
 Frequencies --    152.7193               165.7505               194.2654
 Red. masses --      8.2791                 6.0594                42.9958
 Frc consts  --      0.1138                 0.0981                 0.9560
 IR Inten    --      0.1706                 0.2586                 0.0565

                     10                     11                     12
                      A                      A                      A
 Frequencies --    208.5341               210.3472               234.3532
 Red. masses --      1.1967                 1.2738                 3.8961
 Frc consts  --      0.0307                 0.0332                 0.1261
 IR Inten    --      0.1826                 0.2443                 1.4684

                     13                     14                     15
                      A                      A                      A
 Frequencies --    235.8642               259.8961               324.8921
 Red. masses --      3.3333                 2.6460                 5.6346
 Frc consts  --      0.1093                 0.1053                 0.3504
 IR Inten    --      0.0375                 0.2794                 0.4650

                     16                     17                     18
                      A                      A                      A
 Frequencies --    338.9308               376.0520               418.8557
 Red. masses --      8.2094                 5.3247                 3.4736
 Frc consts  --      0.5556                 0.4437                 0.3590
 IR Inten    --      0.0115                 1.8866                 0.1498

                     19                     20                     21
                      A                      A                      A
 Frequencies --    450.2542               455.4092               497.6564
 Red. masses --      4.9554                 5.3008                 9.2042
 Frc consts  --      0.5919                 0.6477                 1.3431
 IR Inten    --      0.0088                15.6455                13.6559

                     22                     23                     24
                      A                      A                      A
 Frequencies --    533.3107               589.8015               709.1391
 Red. masses --      3.7515                 7.3446                 7.5528
 Frc consts  --      0.6287                 1.5053                 2.2378
 IR Inten    --     10.3047                 0.4591                68.1606

                     25                     26                     27
                      A                      A                      A
 Frequencies --    721.1410               730.0214               781.8567
 Red. masses --      4.6302                 7.9842                 9.8150
 Frc consts  --      1.4187                 2.5070                 3.5350
 IR Inten    --     28.5567                14.7854                 1.2575

                     28                     29                     30
                      A                      A                      A
 Frequencies --    807.9156               869.3860               903.3809
 Red. masses --      7.4218                 3.3404                 3.2623
 Frc consts  --      2.8543                 1.4876                 1.5686
 IR Inten    --     11.5354                 8.1187                37.7203

                     31                     32                     33
                      A                      A                      A
 Frequencies --    941.5085               969.1426              1020.9773
 Red. masses --      1.1883                 1.4699                 3.8439
 Frc consts  --      0.6206                 0.8134                 2.3608
 IR Inten    --      1.1313                 0.0126                47.4935

                     34                     35                     36
                      A                      A                      A
 Frequencies --   1042.6426              1056.3510              1116.8317
 Red. masses --      1.4759                 2.2239                 2.6694
 Frc consts  --      0.9453                 1.4621                 1.9618
 IR Inten    --      0.1524                39.9596                61.9253

                     37                     38                     39
                      A                      A                      A
 Frequencies --   1117.6571              1147.4050              1201.4768
 Red. masses --      2.6591                 2.2620                 2.3304
 Frc consts  --      1.9571                 1.7546                 1.9820
 IR Inten    --      2.4420                85.3751                13.1140

                     40                     41                     42
                      A                      A                      A
 Frequencies --   1217.6303              1259.9329              1372.0016
 Red. masses --      6.3568                 6.1380                 1.2494
 Frc consts  --      5.5529                 5.7408                 1.3857
 IR Inten    --    155.3661                82.0706                 0.4721

                     43                     44                     45
                      A                      A                      A
 Frequencies --   1399.3126              1401.0803              1406.0609
 Red. masses --      1.2001                 1.3280                 1.2224
 Frc consts  --      1.3845                 1.5360                 1.4239
 IR Inten    --      7.2249                 9.6450                11.6740

                     46                     47                     48
                      A                      A                      A
 Frequencies --   1422.2933              1476.2141              1488.1291
 Red. masses --      1.2265                 1.0756                 1.0394
 Frc consts  --      1.4619                 1.3810                 1.3561
 IR Inten    --      3.1825                19.2416                 1.9801

                     49                     50                     51
                      A                      A                      A
 Frequencies --   1488.4529              1498.0424              1501.8666
 Red. masses --      1.0435                 1.0477                 1.0409
 Frc consts  --      1.3621                 1.3853                 1.3833
 IR Inten    --     11.7264                 1.0371                16.5129

                     52                     53                     54
                      A                      A                      A
 Frequencies --   1515.7462              1621.0723              1660.2263
 Red. masses --      1.0617                 8.6468                10.2750
 Frc consts  --      1.4372                13.3879                16.6865
 IR Inten    --      7.0377               117.1535                14.6962

                     55                     56                     57
                      A                      A                      A
 Frequencies --   1723.9775              1726.5583              3032.1685
 Red. masses --     12.7831                12.9465                 1.0365
 Frc consts  --     22.3846                22.7388                 5.6147
 IR Inten    --     43.8681               343.7398                31.1120

                     58                     59                     60
                      A                      A                      A
 Frequencies --   3035.0092              3037.9287              3082.8922
 Red. masses --      1.0372                 1.0389                 1.0852
 Frc consts  --      5.6293                 5.6489                 6.0770
 IR Inten    --     26.3590                 3.4803                 3.4370

                     61                     62                     63
                      A                      A                      A
 Frequencies --   3086.8545              3089.8720              3092.2224
 Red. masses --      1.0995                 1.1020                 1.1012
 Frc consts  --      6.1728                 6.1987                 6.2036
 IR Inten    --      4.9755                13.1988                41.2526

                     64                     65                     66
                      A                      A                      A
 Frequencies --   3119.8214              3126.2834              3150.7622
 Red. masses --      1.1002                 1.0975                 1.0987
 Frc consts  --      6.3091                 6.3201                 6.4264
 IR Inten    --      0.6065                19.0682                 3.9249

 - Thermochemistry -
 -------------------
 Temperature   298.150 Kelvin.  Pressure   1.00000 Atm.
 Atom     1 has atomic number  6 and mass  12.00000

 Molecular mass:   319.90475 amu.
 Principal axes and moments of inertia in atomic units:
                           1         2         3
     Eigenvalues --  2632.578587699.143909919.96933
           X           -0.58995   0.76984  -0.24355
           Y            0.71086   0.63824   0.29551
           Z           -0.38294  -0.00120   0.92377
 This molecule is an asymmetric top.
 Rotational symmetry number  1.
 Warning -- assumption of classical behavior for rotation
           may cause significant error
 Rotational temperatures (Kelvin)      0.03290     0.01125     0.00873
 Rotational constants (GHZ):           0.68554     0.23441     0.18193
 Zero-point vibrational energy     461998.9 (Joules/Mol)
                                  110.42039 (Kcal/Mol)
 Warning -- explicit consideration of  23 degrees of freedom as
           vibrations may cause significant error
 Vibrational temperatures:     43.20    60.24    82.87    86.01   121.94
          (Kelvin)            215.86   219.73   238.48   279.50   300.03
                              302.64   337.18   339.36   373.93   467.45
                              487.65   541.05   602.64   647.82   655.23
                              716.02   767.32   848.59  1020.29  1037.56
                             1050.34  1124.92  1162.41  1250.85  1299.76
                             1354.62  1394.38  1468.96  1500.13  1519.85
                             1606.87  1608.06  1650.86  1728.66  1751.90
                             1812.76  1974.00  2013.30  2015.84  2023.01
                             2046.36  2123.94  2141.09  2141.55  2155.35
                             2160.85  2180.82  2332.36  2388.70  2480.42
                             2484.13  4362.61  4366.70  4370.90  4435.59
                             4441.30  4445.64  4449.02  4488.73  4498.02
                             4533.24

 Zero-point correction=                           0.175966 (Hartree/Particle)
 Thermal correction to Energy=                    0.191438
 Thermal correction to Enthalpy=                  0.192382
 Thermal correction to Gibbs Free Energy=         0.130483
 Sum of electronic and zero-point Energies=          -5685.767948
 Sum of electronic and thermal Energies=             -5685.752476
 Sum of electronic and thermal Enthalpies=           -5685.751532
 Sum of electronic and thermal Free Energies=        -5685.813431

                     E (Thermal)             CV                S
                      KCal/Mol        Cal/Mol-Kelvin    Cal/Mol-Kelvin
 Total                  120.129             53.792            130.278
 Electronic               0.000              0.000              0.000
 Translational            0.889              2.981             43.184
 Rotational               0.889              2.981             33.663
 Vibrational            118.352             47.831             53.430
 Vibration     1          0.594              1.984              5.828
 Vibration     2          0.594              1.980              5.169
 Vibration     3          0.596              1.974              4.538
 Vibration     4          0.597              1.973              4.465
 Vibration     5          0.601              1.960              3.778
 Vibration     6          0.618              1.903              2.672
 Vibration     7          0.619              1.900              2.638
 Vibration     8          0.624              1.885              2.483
 Vibration     9          0.635              1.848              2.187
 Vibration    10          0.642              1.828              2.056
 Vibration    11          0.643              1.825              2.041
 Vibration    12          0.654              1.788              1.845
 Vibration    13          0.655              1.786              1.834
 Vibration    14          0.668              1.746              1.662
 Vibration    15          0.709              1.626              1.285
 Vibration    16          0.719              1.598              1.217
 Vibration    17          0.747              1.521              1.055
 Vibration    18          0.782              1.429              0.896
 Vibration    19          0.809              1.360              0.795
 Vibration    20          0.814              1.349              0.780
 Vibration    21          0.853              1.255              0.664
 Vibration    22          0.888              1.176              0.580
 Vibration    23          0.947              1.054              0.468

                           ! Non-Optimized Parameters !
 Normal termination of Gaussian 16 at Sun Dec 17 22:38:25 2023.
