 Q-Chem 5.4, Q-Chem, Inc., Pleasanton, CA (2021)
 Q-Chem 5.4.0 for Intel X86 EM64T Linux

User input:
--------------------------------------------------------------
$molecule
-1 2
O                 -2.2105280000     -2.0697640000      0.2059750000
C                 -1.6612840000     -0.8347380000      0.0995210000
C                 -2.4931360000      0.2813700000      0.0316690000
C                 -1.9581830000      1.5669810000     -0.0783700000
C                 -0.5794250000      1.7651580000     -0.1229990000
O                 -0.0903630000      3.0251650000     -0.2299710000
C                  0.2924950000      0.6485120000     -0.0559820000
C                  1.7381340000      0.8499970000     -0.1023200000
O                  2.2405700000      2.0243490000     -0.2029810000
C                  2.5586360000     -0.3187230000     -0.0302950000
C                  2.0309120000     -1.5869520000      0.0782050000
C                  0.6228320000     -1.8302980000      0.1269870000
O                  0.1438830000     -3.0143960000      0.2279780000
C                 -0.2538730000     -0.6645320000      0.0564090000
H                 -1.4245400000     -2.6963520000      0.2372790000
H                 -3.5663470000      0.1281770000      0.0663310000
H                 -2.6064530000      2.4349800000     -0.1310750000
H                  0.9086150000      2.9102950000     -0.2421970000
H                  3.6321560000     -0.1605720000     -0.0653650000
H                  2.6759000000     -2.4586590000      0.1312000000
$end

$rem
BASIS  =  6-311++G(d,p)
GUI  =  2
JOB_TYPE  =  SP
METHOD  =  B3LYP
SCF_CONVERGENCE  = 8
SOLVENT_METHOD = sm12
$end

$smx
solvent dimethylformamide
charges CM5
$end

--------------------------------------------------------------

             Standard Nuclear Orientation (Angstroms)
    I     Atom           X                Y                Z
 ----------------------------------------------------------------
    1      O      -2.2105280000    -2.0697640000     0.2059750000
    2      C      -1.6612840000    -0.8347380000     0.0995210000
    3      C      -2.4931360000     0.2813700000     0.0316690000
    4      C      -1.9581830000     1.5669810000    -0.0783700000
    5      C      -0.5794250000     1.7651580000    -0.1229990000
    6      O      -0.0903630000     3.0251650000    -0.2299710000
    7      C       0.2924950000     0.6485120000    -0.0559820000
    8      C       1.7381340000     0.8499970000    -0.1023200000
    9      O       2.2405700000     2.0243490000    -0.2029810000
   10      C       2.5586360000    -0.3187230000    -0.0302950000
   11      C       2.0309120000    -1.5869520000     0.0782050000
   12      C       0.6228320000    -1.8302980000     0.1269870000
   13      O       0.1438830000    -3.0143960000     0.2279780000
   14      C      -0.2538730000    -0.6645320000     0.0564090000
   15      H      -1.4245400000    -2.6963520000     0.2372790000
   16      H      -3.5663470000     0.1281770000     0.0663310000
   17      H      -2.6064530000     2.4349800000    -0.1310750000
   18      H       0.9086150000     2.9102950000    -0.2421970000
   19      H       3.6321560000    -0.1605720000    -0.0653650000
   20      H       2.6759000000    -2.4586590000     0.1312000000
 ----------------------------------------------------------------

   16    -685.8617911557      7.35e-09  Convergence criterion met
 Total energy in the final basis set =     -685.9459097509

                    Orbital Energies (a.u.)
 --------------------------------------------------------------

 Alpha MOs
 -- Occupied --
-19.1334 -19.1334 -19.0951 -19.0950 -10.2380 -10.2380 -10.2379 -10.2379
-10.1859 -10.1855 -10.1817 -10.1812 -10.1778 -10.1772  -1.0562  -1.0548
 -1.0089  -1.0071  -0.8627  -0.8166  -0.7570  -0.7433  -0.6906  -0.6433
 -0.6262  -0.5909  -0.5279  -0.5176  -0.5166  -0.5078  -0.4787  -0.4437
 -0.4431  -0.4302  -0.4173  -0.4155  -0.4059  -0.4026  -0.3937  -0.3878
 -0.3722  -0.3672  -0.3557  -0.3128  -0.2881  -0.2663  -0.2634  -0.2530
 -0.2216  -0.1633

 Beta MOs
 -- Occupied --
-19.1328 -19.1328 -19.0893 -19.0893 -10.2374 -10.2374 -10.2364 -10.2364
-10.1861 -10.1857 -10.1809 -10.1804 -10.1762 -10.1756  -1.0543  -1.0529
 -0.9997  -0.9977  -0.8605  -0.8113  -0.7549  -0.7403  -0.6822  -0.6399
 -0.6241  -0.5891  -0.5264  -0.5167  -0.5141  -0.5046  -0.4766  -0.4412
 -0.4354  -0.4270  -0.4163  -0.4117  -0.4004  -0.3968  -0.3861  -0.3794
 -0.3654  -0.3541  -0.3522  -0.3055  -0.2622  -0.2612  -0.2584  -0.2484
 -0.2097

          Ground-State Mulliken Net Atomic Charges

     Atom                 Charge (a.u.)    Spin (a.u.)
  --------------------------------------------------------
      1 O                    -0.322125       0.018674
      2 C                    -0.660809       0.058164
      3 C                     0.957317       0.057305
      4 C                     0.958249       0.057388
      5 C                    -0.656032       0.058139
      6 O                    -0.322153       0.018675
      7 C                    -0.557624      -0.008199
      8 C                    -0.876288       0.085496
      9 O                    -0.399645       0.206028
     10 C                     0.449967       0.102023
     11 C                     0.450201       0.102009
     12 C                    -0.873217       0.085565
     13 O                    -0.399836       0.206020
     14 C                    -0.555294      -0.008169
     15 H                     0.331287      -0.004954
     16 H                     0.294171      -0.004625
     17 H                     0.294136      -0.004631
     18 H                     0.331275      -0.004961
     19 H                     0.278236      -0.009971
     20 H                     0.278187      -0.009977
  --------------------------------------------------------
  Sum of atomic charges =    -1.000000

                    Cartesian Multipole Moments
 -----------------------------------------------------------------
    Charge (ESU x 10^10)
                -4.8032
    Dipole Moment (Debye)
         X      -1.1822      Y       0.4907      Z      -0.0122
       Tot       1.2800
    Quadrupole Moments (Debye-Ang)
        XX     -96.2776     XY     -11.1622     YY    -118.4412
        XZ       1.0718     YZ       2.7336     ZZ     -86.1506

 Total job time:  334.62s(wall), 2199.03s(cpu)
        *  Thank you very much for using Q-Chem.  Have a nice day.  *
