 Q-Chem 5.4, Q-Chem, Inc., Pleasanton, CA (2021)
 Q-Chem 5.4.0 for Intel X86 EM64T Linux

User input:
--------------------------------------------------------------
$molecule
0 1
C                 -1.6215830000     -1.4055470000     -0.1355960000
C                 -0.3198500000     -0.6560130000     -0.0929520000
C                 -0.2514980000      0.6778720000      0.1360370000
C                 -1.4715330000      1.5243050000      0.3665490000
C                  1.0723840000      1.3731980000      0.1682030000
O                  1.1588650000      2.5743850000      0.3735070000
C                  2.2989730000      0.5705160000     -0.0562430000
C                  2.2316150000     -0.7444910000     -0.2821330000
C                  0.9275850000     -1.4500260000     -0.3172420000
O                  0.8908760000     -2.6531770000     -0.5262370000
H                 -1.4474190000     -2.4622540000     -0.3307880000
H                 -2.2764890000     -1.0078780000     -0.9174810000
H                 -2.1605860000     -1.3077090000      0.8121100000
H                 -2.0328380000      1.1725490000      1.2380840000
H                 -2.1498620000      1.4744360000     -0.4911360000
H                 -1.1903060000      2.5633560000      0.5291030000
H                  3.2343720000      1.1180310000     -0.0239180000
H                  3.1072940000     -1.3615530000     -0.4498670000
$end
$rem
MAX_SCF_CYCLES=200
BASIS  =  6-311++G(d,p)
GUI  =  2
JOB_TYPE  =  SP
METHOD  =  B3LYP
SOLVENT_METHOD = COSMO
$end
$solvent
dielectric 37.219
opticaldielectric 1.43
$end

--------------------------------------------------------------

             Standard Nuclear Orientation (Angstroms)
    I     Atom           X                Y                Z
 ----------------------------------------------------------------
    1      C      -1.4883105108    -1.9516382147    -0.0006849037
    2      C      -0.6776060484    -0.6863767172    -0.0002992841
    3      C       0.6775164725    -0.6864326560     0.0000191434
    4      C       1.4880454873    -1.9517832258     0.0008307037
    5      C       1.4342102507     0.6037576224    -0.0001204185
    6      O       2.6556277602     0.6286158949    -0.0006088727
    7      C       0.6681020987     1.8735108129     0.0002104585
    8      C      -0.6678645037     1.8736030571     0.0000341154
    9      C      -1.4341023787     0.6038054216    -0.0000191087
   10      O      -2.6555642591     0.6288944176     0.0004354111
   11      H      -2.5526456919    -1.7230566403    -0.0026305920
   12      H      -1.2622623317    -2.5613041977     0.8799945304
   13      H      -1.2588681551    -2.5630235105    -0.8792105983
   14      H       1.2609438874    -2.5624910404    -0.8788451863
   15      H       1.2595795722    -2.5619952078     0.8804245709
   16      H       2.5524751717    -1.7234665064     0.0014065469
   17      H       1.2597174522     2.7822352583     0.0003713584
   18      H      -1.2593931187     2.7823427420     0.0000528266
 ----------------------------------------------------------------

    8    -460.2221335459      5.59e-06  Convergence criterion met
 Total energy in the final basis set =     -460.2221335459
    4    -460.2347287844      7.77e-06  Convergence criterion met
 Total energy in the final basis set =     -460.2347287844

                    Orbital Energies (a.u.)
 --------------------------------------------------------------

 Alpha MOs
 -- Occupied --
-19.1419 -19.1419 -10.2851 -10.2850 -10.2117 -10.2110 -10.2083 -10.2075
-10.1708 -10.1708  -1.0735  -1.0718  -0.8660  -0.8125  -0.7487  -0.6929
 -0.6903  -0.6036  -0.5890  -0.5322  -0.5044  -0.4783  -0.4633  -0.4492
 -0.4368  -0.4269  -0.4222  -0.4195  -0.4105  -0.3990  -0.3833  -0.3758
 -0.3107  -0.2944  -0.2784  -0.2764

          Ground-State Mulliken Net Atomic Charges

     Atom                 Charge (a.u.)
  ----------------------------------------
      1 C                    -0.520451
      2 C                     0.604723
      3 C                     0.604454
      4 C                    -0.520138
      5 C                    -0.599149
      6 O                    -0.321484
      7 C                     0.020112
      8 C                     0.020032
      9 C                    -0.599153
     10 O                    -0.321557
     11 H                     0.195810
     12 H                     0.182719
     13 H                     0.182384
     14 H                     0.182532
     15 H                     0.182436
     16 H                     0.195789
     17 H                     0.255457
     18 H                     0.255484
  ----------------------------------------
  Sum of atomic charges =     0.000000

                    Cartesian Multipole Moments
 -----------------------------------------------------------------
    Charge (ESU x 10^10)
                 0.0000
    Dipole Moment (Debye)
         X       0.0010      Y      -1.2202      Z       0.0009
       Tot       1.2202
    Quadrupole Moments (Debye-Ang)
        XX     -80.5305     XY       0.0013     YY     -47.7533
        XZ       0.0082     YZ      -0.0006     ZZ     -58.2555

 Total job time:  14.18s(wall), 102.02s(cpu)
        *  Thank you very much for using Q-Chem.  Have a nice day.  *
