 Q-Chem 5.4, Q-Chem, Inc., Pleasanton, CA (2021)
 Q-Chem 5.4.0 for Intel X86 EM64T Linux

User input:
--------------------------------------------------------------
$molecule
-1 2
C                  5.7258200000     -5.2348820000      1.1210680000
C                  6.6628240000     -5.1070330000      0.1161860000
C                  6.5391410000     -4.0718940000     -0.8357440000
C                  4.6398730000     -4.3458680000      1.2164740000
C                  4.5167870000     -3.3057600000      0.2589670000
C                  5.4798000000     -3.1904020000     -0.7573990000
C                  3.6630590000     -4.5164050000      2.3027600000
C                  2.5734940000     -3.5625690000      2.3327640000
C                  2.4697230000     -2.5572650000      1.3933850000
C                  3.3980780000     -2.3490090000      0.3152050000
O                  3.7723730000     -5.4411260000      3.1514060000
O                  3.2752400000     -1.4222610000     -0.5270380000
H                  5.8013800000     -6.0212250000      1.8613980000
H                  5.3624870000     -2.3881840000     -1.4751310000
Br                 8.1165540000     -6.3707780000      0.0647420000
Br                 7.8124680000     -3.8388040000     -2.2625700000
C                  1.5598180000     -3.7175320000      3.4347450000
H                  1.6408920000     -1.8552430000      1.4409170000
H                  2.0389650000     -3.6559610000      4.4175800000
H                  1.0857520000     -4.7039630000      3.3935460000
H                  0.7854430000     -2.9487630000      3.3683810000
$end

$rem
BASIS  =  6-311++G(d,p)
GUI  =  2
JOB_TYPE  =  SP
METHOD  =  B3LYP
SCF_CONVERGENCE  = 8
SOLVENT_METHOD = sm12
$end

$smx
solvent dimethylformamide
charges CM5
$end

--------------------------------------------------------------

             Standard Nuclear Orientation (Angstroms)
    I     Atom           X                Y                Z
 ----------------------------------------------------------------
    1      C       5.7258200000    -5.2348820000     1.1210680000
    2      C       6.6628240000    -5.1070330000     0.1161860000
    3      C       6.5391410000    -4.0718940000    -0.8357440000
    4      C       4.6398730000    -4.3458680000     1.2164740000
    5      C       4.5167870000    -3.3057600000     0.2589670000
    6      C       5.4798000000    -3.1904020000    -0.7573990000
    7      C       3.6630590000    -4.5164050000     2.3027600000
    8      C       2.5734940000    -3.5625690000     2.3327640000
    9      C       2.4697230000    -2.5572650000     1.3933850000
   10      C       3.3980780000    -2.3490090000     0.3152050000
   11      O       3.7723730000    -5.4411260000     3.1514060000
   12      O       3.2752400000    -1.4222610000    -0.5270380000
   13      H       5.8013800000    -6.0212250000     1.8613980000
   14      H       5.3624870000    -2.3881840000    -1.4751310000
   15      Br      8.1165540000    -6.3707780000     0.0647420000
   16      Br      7.8124680000    -3.8388040000    -2.2625700000
   17      C       1.5598180000    -3.7175320000     3.4347450000
   18      H       1.6408920000    -1.8552430000     1.4409170000
   19      H       2.0389650000    -3.6559610000     4.4175800000
   20      H       1.0857520000    -4.7039630000     3.3935460000
   21      H       0.7854430000    -2.9487630000     3.3683810000
 ----------------------------------------------------------------

   18   -5721.7455013257      8.57e-09  Convergence criterion met
 Total energy in the final basis set =    -5721.8260690891

                    Orbital Energies (a.u.)
 --------------------------------------------------------------

 Alpha MOs
 -- Occupied --
********-482.8387 -62.4913 -62.4913 -56.3119 -56.3118 -56.3080 -56.3079
-56.3078 -56.3077 -19.0819 -19.0809 -10.2476 -10.2471 -10.2290 -10.2272
-10.1955 -10.1951 -10.1903 -10.1896 -10.1827 -10.1697 -10.1685  -8.6999
 -8.6998  -6.5314  -6.5314  -6.5184  -6.5183  -6.5179  -6.5178  -2.6423
 -2.6422  -2.6385  -2.6384  -2.6384  -2.6382  -2.6279  -2.6278  -2.6278
 -2.6278  -1.0066  -1.0039  -0.8977  -0.8371  -0.8165  -0.8043  -0.7558
 -0.7460  -0.7068  -0.6677  -0.6314  -0.6051  -0.5698  -0.5175  -0.4977
 -0.4874  -0.4520  -0.4499  -0.4393  -0.4364  -0.4162  -0.4146  -0.4003
 -0.3935  -0.3874  -0.3842  -0.3765  -0.3636  -0.3583  -0.3243  -0.3158
 -0.3138  -0.2851  -0.2761  -0.2649  -0.2515  -0.2494  -0.2420  -0.1596

 Beta MOs
 -- Occupied --
********-482.8387 -62.4913 -62.4913 -56.3119 -56.3118 -56.3080 -56.3079
-56.3078 -56.3077 -19.0751 -19.0743 -10.2472 -10.2466 -10.2279 -10.2258
-10.1956 -10.1950 -10.1896 -10.1888 -10.1812 -10.1687 -10.1685  -8.6999
 -8.6998  -6.5314  -6.5314  -6.5183  -6.5183  -6.5179  -6.5178  -2.6423
 -2.6422  -2.6385  -2.6384  -2.6384  -2.6382  -2.6279  -2.6278  -2.6278
 -2.6277  -0.9951  -0.9923  -0.8965  -0.8329  -0.8158  -0.8021  -0.7543
 -0.7442  -0.7032  -0.6611  -0.6304  -0.6020  -0.5667  -0.5161  -0.4951
 -0.4847  -0.4511  -0.4494  -0.4334  -0.4302  -0.4118  -0.4107  -0.3976
 -0.3918  -0.3834  -0.3742  -0.3619  -0.3558  -0.3545  -0.3217  -0.3137
 -0.3078  -0.2850  -0.2594  -0.2493  -0.2467  -0.2432  -0.2359

          Ground-State Mulliken Net Atomic Charges

     Atom                 Charge (a.u.)    Spin (a.u.)
  --------------------------------------------------------
      1 C                    -0.271348       0.021028
      2 C                     1.532985       0.017836
      3 C                     1.445252       0.034475
      4 C                    -0.782792       0.017364
      5 C                    -0.552382       0.076171
      6 C                    -0.251510       0.009401
      7 C                    -1.632559       0.082756
      8 C                     0.622699       0.095323
      9 C                    -0.664428       0.090666
     10 C                    -1.764665       0.053910
     11 O                    -0.322873       0.253366
     12 O                    -0.366380       0.239513
     13 H                     0.170590      -0.002556
     14 H                     0.165857      -0.002661
     15 Br                    0.117609       0.001627
     16 Br                    0.108423       0.002123
     17 C                     0.680405       0.008475
     18 H                     0.125616      -0.009299
     19 H                     0.188370       0.005262
     20 H                     0.188247       0.005327
     21 H                     0.262884      -0.000110
  --------------------------------------------------------
  Sum of atomic charges =    -1.000000

                    Cartesian Multipole Moments
 -----------------------------------------------------------------
    Charge (ESU x 10^10)
                -4.8032
    Dipole Moment (Debye)
         X     -20.8487      Y      17.6472      Z      -3.8517
       Tot      27.5849
    Quadrupole Moments (Debye-Ang)
        XX    -220.0214     XY      83.9707     YY    -201.8344
        XZ     -12.7106     YZ      27.8192     ZZ    -137.9794

 Total job time:  462.45s(wall), 3500.15s(cpu)
        *  Thank you very much for using Q-Chem.  Have a nice day.  *
