 Q-Chem 5.4, Q-Chem, Inc., Pleasanton, CA (2021)
 Q-Chem 5.4.0 for Intel X86 EM64T Linux

User input:
--------------------------------------------------------------
$molecule
-1 2
O                  0.0022440000     -2.5336490000     -0.4294580000
C                  0.0324690000     -1.2932110000     -0.2186530000
C                  1.3208560000     -0.6374100000     -0.0649950000
C                  2.4484120000     -1.5187760000     -0.1687140000
C                  3.7505330000     -1.1039780000     -0.0541700000
C                  4.0416220000      0.2674520000      0.1794540000
C                  2.9879240000      1.1483540000      0.2847370000
C                  1.6239410000      0.7627630000      0.1734000000
C                  0.6776180000      1.8182710000      0.3086270000
C                 -0.6877130000      1.8234660000      0.2633360000
C                 -1.6415800000      0.7520550000      0.0653220000
C                 -3.0049760000      1.1362410000      0.0886560000
C                 -4.0495740000      0.2311820000     -0.0845360000
C                 -3.7532590000     -1.1089980000     -0.2900540000
C                 -2.4124060000     -1.5122820000     -0.3181480000
C                 -1.3403060000     -0.6256960000     -0.1469580000
H                  2.2199570000     -2.5612440000     -0.3468780000
H                  4.5576480000     -1.8259690000     -0.1424540000
H                  5.0658430000      0.6142200000      0.2726050000
H                  3.1924000000      2.2015230000      0.4628270000
H                  1.1297760000      2.7942700000      0.4787540000
H                 -1.1529120000      2.7969780000      0.4020590000
H                 -3.2332460000      2.1859370000      0.2496930000
H                 -5.0787150000      0.5784550000     -0.0576870000
H                 -4.5439290000     -1.8399710000     -0.4286420000
H                 -2.1526300000     -2.5499850000     -0.4781230000
$end
$rem
MAX_SCF_CYCLES=200
BASIS  =  6-311++G(d,p)
GUI  =  2
JOB_TYPE  =  SP
METHOD  =  B3LYP
SOLVENT_METHOD = PCM
$end
$pcm
theory = CPCM
$end
$solvent
dielectric 37.219
opticaldielectric 1.43
$end

--------------------------------------------------------------

             Standard Nuclear Orientation (Angstroms)
    I     Atom           X                Y                Z
 ----------------------------------------------------------------
    1      O       0.0022440000    -2.5336490000    -0.4294580000
    2      C       0.0324690000    -1.2932110000    -0.2186530000
    3      C       1.3208560000    -0.6374100000    -0.0649950000
    4      C       2.4484120000    -1.5187760000    -0.1687140000
    5      C       3.7505330000    -1.1039780000    -0.0541700000
    6      C       4.0416220000     0.2674520000     0.1794540000
    7      C       2.9879240000     1.1483540000     0.2847370000
    8      C       1.6239410000     0.7627630000     0.1734000000
    9      C       0.6776180000     1.8182710000     0.3086270000
   10      C      -0.6877130000     1.8234660000     0.2633360000
   11      C      -1.6415800000     0.7520550000     0.0653220000
   12      C      -3.0049760000     1.1362410000     0.0886560000
   13      C      -4.0495740000     0.2311820000    -0.0845360000
   14      C      -3.7532590000    -1.1089980000    -0.2900540000
   15      C      -2.4124060000    -1.5122820000    -0.3181480000
   16      C      -1.3403060000    -0.6256960000    -0.1469580000
   17      H       2.2199570000    -2.5612440000    -0.3468780000
   18      H       4.5576480000    -1.8259690000    -0.1424540000
   19      H       5.0658430000     0.6142200000     0.2726050000
   20      H       3.1924000000     2.2015230000     0.4628270000
   21      H       1.1297760000     2.7942700000     0.4787540000
   22      H      -1.1529120000     2.7969780000     0.4020590000
   23      H      -3.2332460000     2.1859370000     0.2496930000
   24      H      -5.0787150000     0.5784550000    -0.0576870000
   25      H      -4.5439290000    -1.8399710000    -0.4286420000
   26      H      -2.1526300000    -2.5499850000    -0.4781230000
 ----------------------------------------------------------------

    9    -653.1096810322      8.53e-06  Convergence criterion met
 Total energy in the final basis set =     -653.1096810322

                    Orbital Energies (a.u.)
 --------------------------------------------------------------

 Alpha MOs
 -- Occupied --
-19.0539 -10.2117 -10.1825 -10.1741 -10.1692 -10.1654 -10.1649 -10.1633
-10.1621 -10.1619 -10.1614 -10.1605 -10.1597 -10.1547 -10.1543 -10.1516
 -0.9885  -0.8538  -0.8424  -0.7910  -0.7514  -0.7457  -0.7368  -0.7060
 -0.6385  -0.6290  -0.5886  -0.5803  -0.5517  -0.5413  -0.4922  -0.4786
 -0.4674  -0.4529  -0.4404  -0.4231  -0.4115  -0.4056  -0.4015  -0.4009
 -0.3911  -0.3694  -0.3642  -0.3488  -0.3450  -0.3355  -0.3277  -0.3183
 -0.3093  -0.2641  -0.2495  -0.2448  -0.2278  -0.2084  -0.1063

 Beta MOs
 -- Occupied --
-19.0500 -10.2083 -10.1829 -10.1744 -10.1668 -10.1663 -10.1646 -10.1628
-10.1626 -10.1612 -10.1609 -10.1602 -10.1581 -10.1538 -10.1515 -10.1504
 -0.9808  -0.8518  -0.8399  -0.7885  -0.7491  -0.7423  -0.7336  -0.7037
 -0.6327  -0.6265  -0.5865  -0.5791  -0.5497  -0.5381  -0.4902  -0.4775
 -0.4662  -0.4515  -0.4388  -0.4219  -0.4102  -0.4048  -0.3991  -0.3895
 -0.3889  -0.3687  -0.3579  -0.3438  -0.3342  -0.3331  -0.3264  -0.3173
 -0.3023  -0.2570  -0.2429  -0.2318  -0.2241  -0.1989

          Ground-State Mulliken Net Atomic Charges

     Atom                 Charge (a.u.)    Spin (a.u.)
  --------------------------------------------------------
      1 O                    -0.488563       0.163223
      2 C                    -0.337679       0.206128
      3 C                     0.374126       0.033427
      4 C                     0.023098       0.149816
      5 C                    -0.374037      -0.039888
      6 C                    -0.458740       0.225792
      7 C                    -0.245978      -0.110702
      8 C                    -0.145878       0.157017
      9 C                    -0.226389      -0.090448
     10 C                    -0.299250       0.190434
     11 C                    -0.002313      -0.058803
     12 C                    -0.261979       0.076179
     13 C                    -0.408452       0.026689
     14 C                    -0.388754       0.044274
     15 C                     0.109792       0.094977
     16 C                     0.403593      -0.025336
     17 H                     0.165374      -0.007962
     18 H                     0.183053       0.001522
     19 H                     0.177229      -0.015893
     20 H                     0.156379       0.006019
     21 H                     0.165611       0.005078
     22 H                     0.165958      -0.012208
     23 H                     0.162453      -0.006365
     24 H                     0.187056      -0.001687
     25 H                     0.188796      -0.003211
     26 H                     0.175493      -0.008072
  --------------------------------------------------------
  Sum of atomic charges =    -1.000000

                    Cartesian Multipole Moments
 -----------------------------------------------------------------
    Charge (ESU x 10^10)
                -4.8032
    Dipole Moment (Debye)
         X      -1.3895      Y       6.9696      Z       1.1381
       Tot       7.1973
    Quadrupole Moments (Debye-Ang)
        XX    -103.5076     XY       0.3589     YY    -110.2333
        XZ       0.0943     YZ      -1.0379     ZZ    -104.9596

 Total job time:  55.00s(wall), 384.72s(cpu)
        *  Thank you very much for using Q-Chem.  Have a nice day.  *
