 Q-Chem 5.4, Q-Chem, Inc., Pleasanton, CA (2021)
 Q-Chem 5.4.0 for Intel X86 EM64T Linux

User input:
--------------------------------------------------------------
$molecule
-1 2
C                  3.7362650000      0.0881790000     -0.2305650000
C                  2.7733300000      0.1299170000      0.9716410000
C                  1.3211200000      0.2744930000      0.5819990000
C                  0.5925010000     -0.9628150000      0.3416400000
O                  1.1718790000     -2.0677630000      0.4631980000
C                 -0.8272780000     -0.8419560000     -0.0449610000
C                 -1.6517450000     -1.9641330000     -0.2940510000
O                 -1.1960880000     -3.2526920000     -0.1894150000
C                 -2.9846040000     -1.7804510000     -0.6609050000
O                 -3.7556300000     -2.9100470000     -0.8948280000
C                 -3.5327700000     -0.5090730000     -0.7906730000
O                 -4.8600580000     -0.3954660000     -1.1575750000
C                 -2.7569390000      0.6122360000     -0.5541380000
C                 -1.4017740000      0.4624030000     -0.1792000000
C                 -0.6426870000      1.6758520000      0.0571060000
C                  0.7266080000      1.5158010000      0.4358940000
O                  1.4156990000      2.6907960000      0.6436070000
O                 -1.1899720000      2.8365050000     -0.0740160000
O                 -3.3515680000      1.8253190000     -0.6967070000
H                  3.4819740000     -0.7578120000     -0.8725920000
H                  3.6706300000      1.0000290000     -0.8329320000
H                  4.7761330000     -0.0305190000      0.0969600000
H                  2.8703180000     -0.8081830000      1.5230650000
H                  3.0832280000      0.9284730000      1.6639750000
H                 -1.9424110000     -3.8257040000     -0.4065680000
H                  2.3032450000      2.4618900000      0.9362330000
H                 -2.5826900000      2.4826130000     -0.4697170000
H                 -4.6409510000     -2.6124920000     -1.1356000000
H                 -5.0415990000      0.5554590000     -1.1900020000
$end
$rem
MAX_SCF_CYCLES=200
BASIS  =  6-311++G(d,p)
GUI  =  2
JOB_TYPE  =  SP
METHOD  =  B3LYP
SOLVENT_METHOD = COSMO
$end
$solvent
dielectric 37.219
opticaldielectric 1.43
$end

--------------------------------------------------------------

             Standard Nuclear Orientation (Angstroms)
    I     Atom           X                Y                Z
 ----------------------------------------------------------------
    1      C      -4.3318423454    -1.0978462586     1.0194510293
    2      C      -3.6835536802    -0.8115949814    -0.3487840215
    3      C      -2.2860194333    -0.2465625366    -0.2524857494
    4      C      -1.2010936907    -1.2162454072    -0.2051523926
    5      O      -1.4522426522    -2.4436805658    -0.2462915154
    6      C       0.1722306871    -0.6833090723    -0.1061642314
    7      C       1.3157719061    -1.5150132094    -0.0654875769
    8      O       1.2364613747    -2.8823376095    -0.1210763827
    9      C       2.5857205230    -0.9473612199     0.0336879120
   10      O       3.6782665099    -1.8018888078     0.0699377923
   11      C       2.7616693655     0.4306931071     0.0948106828
   12      O       4.0464550868     0.9296438565     0.1927436338
   13      C       1.6664669808     1.2758405150     0.0566791246
   14      C       0.3643112490     0.7339971537    -0.0447941781
   15      C      -0.7415173552     1.6721890436    -0.0828881504
   16      C      -2.0547622462     1.1164088215    -0.1856581333
   17      O      -3.0782617027     2.0385844988    -0.2110595036
   18      O      -0.5344459391     2.9439948199    -0.0240601600
   19      O       1.9051967400     2.6117288097     0.1190529837
   20      H      -3.7224154875    -1.8188934682     1.5683163861
   21      H      -4.4100086089    -0.1907389547     1.6274565827
   22      H      -5.3379808779    -1.5181875597     0.9024649523
   23      H      -3.6170008109    -1.7515625552    -0.9015392890
   24      H      -4.3416278506    -0.1531920757    -0.9374255279
   25      H       2.1432662641    -3.2113942609    -0.0772265186
   26      H      -3.9031486839     1.5573038157    -0.3280902995
   27      H       0.9511711962     3.0147730498     0.0729678043
   28      H       4.4709969828    -1.2568075643     0.1389902533
   29      H       3.9510207749     1.8931638255     0.2208249802
 ----------------------------------------------------------------

   11    -990.2289720225      6.27e-06  Convergence criterion met
 Total energy in the final basis set =     -990.2289720225
    5    -990.3243655192      3.58e-06  Convergence criterion met
 Total energy in the final basis set =     -990.3243655192

                    Orbital Energies (a.u.)
 --------------------------------------------------------------

 Alpha MOs
 -- Occupied --
-19.1666 -19.1647 -19.1534 -19.1529 -19.1345 -19.0948 -19.0741 -10.2387
-10.2379 -10.2350 -10.2330 -10.2311 -10.2300 -10.2278 -10.1806 -10.1801
-10.1679 -10.1673 -10.1547  -1.0899  -1.0730  -1.0652  -1.0542  -1.0455
 -1.0040  -1.0024  -0.8595  -0.8124  -0.7716  -0.7449  -0.7289  -0.6852
 -0.6525  -0.6428  -0.6137  -0.5838  -0.5811  -0.5513  -0.5456  -0.5204
 -0.5067  -0.4880  -0.4685  -0.4660  -0.4614  -0.4423  -0.4364  -0.4235
 -0.4189  -0.4148  -0.4115  -0.4045  -0.3905  -0.3890  -0.3870  -0.3845
 -0.3790  -0.3671  -0.3660  -0.3627  -0.3538  -0.3446  -0.3365  -0.3046
 -0.2644  -0.2531  -0.2383  -0.2232  -0.2184  -0.1493

 Beta MOs
 -- Occupied --
-19.1663 -19.1645 -19.1530 -19.1526 -19.1339 -19.0895 -19.0690 -10.2383
-10.2371 -10.2348 -10.2320 -10.2289 -10.2278 -10.2269 -10.1810 -10.1799
-10.1674 -10.1663 -10.1545  -1.0891  -1.0722  -1.0636  -1.0532  -1.0439
 -0.9953  -0.9937  -0.8574  -0.8084  -0.7696  -0.7421  -0.7273  -0.6783
 -0.6509  -0.6414  -0.6119  -0.5816  -0.5804  -0.5497  -0.5434  -0.5197
 -0.5057  -0.4863  -0.4664  -0.4635  -0.4568  -0.4406  -0.4296  -0.4203
 -0.4135  -0.4115  -0.4079  -0.4031  -0.3887  -0.3855  -0.3852  -0.3807
 -0.3737  -0.3651  -0.3636  -0.3540  -0.3433  -0.3387  -0.3355  -0.2950
 -0.2602  -0.2365  -0.2333  -0.2182  -0.2074

          Ground-State Mulliken Net Atomic Charges

     Atom                 Charge (a.u.)    Spin (a.u.)
  --------------------------------------------------------
      1 C                    -0.604491       0.002804
      2 C                    -0.155554       0.007065
      3 C                     1.304747       0.113626
      4 C                    -0.409833       0.069832
      5 O                    -0.493511       0.186505
      6 C                     0.562566       0.029017
      7 C                    -0.257661       0.036894
      8 O                    -0.298974       0.007176
      9 C                    -0.328994       0.053528
     10 O                    -0.354761       0.008445
     11 C                    -0.249384       0.012716
     12 O                    -0.358862       0.003658
     13 C                     0.067994       0.082715
     14 C                     0.858985      -0.043574
     15 C                    -0.564253       0.198983
     16 C                    -0.843011       0.010264
     17 O                    -0.304542       0.012069
     18 O                    -0.578626       0.187401
     19 O                    -0.539111       0.020535
     20 H                     0.171831      -0.001630
     21 H                     0.152267       0.000725
     22 H                     0.146989       0.003384
     23 H                     0.197074       0.003077
     24 H                     0.142900       0.000530
     25 H                     0.318749      -0.000457
     26 H                     0.312017      -0.000791
     27 H                     0.437828      -0.003927
     28 H                     0.331852      -0.000360
     29 H                     0.335770      -0.000208
  --------------------------------------------------------
  Sum of atomic charges =    -1.000000

                    Cartesian Multipole Moments
 -----------------------------------------------------------------
    Charge (ESU x 10^10)
                -4.8032
    Dipole Moment (Debye)
         X       2.6818      Y      -0.8775      Z       0.4588
       Tot       2.8588
    Quadrupole Moments (Debye-Ang)
        XX    -103.4563     XY      -2.9544     YY    -158.1126
        XZ       0.9734     YZ      -1.5892     ZZ    -114.7856

 Total job time:  108.29s(wall), 818.58s(cpu)
        *  Thank you very much for using Q-Chem.  Have a nice day.  *
