 Q-Chem 5.4, Q-Chem, Inc., Pleasanton, CA (2021)
 Q-Chem 5.4.0 for Intel X86 EM64T Linux

User input:
--------------------------------------------------------------
$molecule
-1 2
C                 -4.8306810000     -0.2853360000     -3.9392860000
C                 -4.2570910000     -1.3368760000     -4.6251590000
C                 -3.1442240000     -2.0168940000     -4.0995590000
C                 -4.3060650000      0.1253180000     -2.6944640000
C                 -3.1811410000     -0.5539310000     -2.1507600000
C                 -2.6256780000     -1.6190070000     -2.8784690000
C                 -4.9057010000      1.2260510000     -1.9741000000
C                 -4.3055220000      1.5769360000     -0.7083820000
C                 -3.2112020000      0.9470530000     -0.1540690000
C                 -2.5958510000     -0.1636020000     -0.8507270000
O                 -5.9146020000      1.8989650000     -2.3738530000
O                 -1.6032550000     -0.7747990000     -0.3783770000
O                 -4.9260160000      2.6207950000     -0.0848250000
O                 -4.7411180000     -1.7706990000     -5.8490700000
C                 -2.6434040000      1.3721630000      1.1753190000
C                 -3.1989590000      0.5614530000      2.3622440000
C                 -2.5934510000      0.9729450000      3.7086170000
C                 -3.1350850000      0.1722210000      4.8984920000
C                 -2.5299450000      0.5796110000      6.2470310000
C                 -3.0693800000     -0.2247550000      7.4354640000
C                 -2.4621640000      0.1806040000      8.7835020000
C                 -3.0008050000     -0.6256740000      9.9709480000
C                 -2.3930250000     -0.2212240000     11.3187200000
C                 -2.9308270000     -1.0277410000     12.5062920000
C                 -2.3175690000     -0.6161480000     13.8482410000
H                 -5.6908470000      0.2499860000     -4.3321320000
H                 -2.7137400000     -2.8393880000     -4.6596480000
H                 -1.7689960000     -2.1245470000     -2.4474000000
H                 -5.6387440000      2.8439480000     -0.7234390000
H                 -5.4944890000     -1.2185790000     -6.0817570000
H                 -2.8507510000      2.4346860000      1.3394920000
H                 -1.5576590000      1.2352440000      1.1425860000
H                 -3.0005360000     -0.5000270000      2.1794550000
H                 -4.2884470000      0.6815470000      2.3986590000
H                 -2.7793010000      2.0423990000      3.8792610000
H                 -1.5023880000      0.8565640000      3.6625000000
H                 -2.9490400000     -0.8960350000      4.7270280000
H                 -4.2263410000      0.2860660000      4.9433820000
H                 -2.7171620000      1.6479410000      6.4193910000
H                 -1.4385600000      0.4673690000      6.2011800000
H                 -2.8831380000     -1.2927990000      7.2621710000
H                 -4.1605860000     -0.1120980000      7.4823200000
H                 -2.6490550000      1.2485140000      8.9575820000
H                 -1.3709530000      0.0684400000      8.7362570000
H                 -2.8141680000     -1.6934600000      9.7965810000
H                 -4.0919560000     -0.5133620000     10.0185800000
H                 -2.5797880000      0.8465160000     11.4945380000
H                 -1.3016720000     -0.3333610000     11.2720840000
H                 -2.7436160000     -2.0944040000     12.3316530000
H                 -4.0210190000     -0.9155900000     12.5538310000
H                 -1.2309360000     -0.7500350000     13.8436930000
H                 -2.7216990000     -1.2097690000     14.6736480000
H                 -2.5180090000      0.4376240000     14.0676410000
$end
$rem
MAX_SCF_CYCLES=200
BASIS  =  6-311++G(d,p)
GUI  =  2
JOB_TYPE  =  SP
THRESH = 14
SCF_CONVERGENCE = 8
SCF_ALGORITHM = RCA_DIIS
scf_guess = GWH
METHOD  =  B3LYP
SOLVENT_METHOD = PCM
$end
$pcm
theory = CPCM
$end
$solvent
dielectric 37.219
opticaldielectric 1.43
$end

--------------------------------------------------------------

             Standard Nuclear Orientation (Angstroms)
    I     Atom           X                Y                Z
 ----------------------------------------------------------------
    1      C      -4.8306810000    -0.2853360000    -3.9392860000
    2      C      -4.2570910000    -1.3368760000    -4.6251590000
    3      C      -3.1442240000    -2.0168940000    -4.0995590000
    4      C      -4.3060650000     0.1253180000    -2.6944640000
    5      C      -3.1811410000    -0.5539310000    -2.1507600000
    6      C      -2.6256780000    -1.6190070000    -2.8784690000
    7      C      -4.9057010000     1.2260510000    -1.9741000000
    8      C      -4.3055220000     1.5769360000    -0.7083820000
    9      C      -3.2112020000     0.9470530000    -0.1540690000
   10      C      -2.5958510000    -0.1636020000    -0.8507270000
   11      O      -5.9146020000     1.8989650000    -2.3738530000
   12      O      -1.6032550000    -0.7747990000    -0.3783770000
   13      O      -4.9260160000     2.6207950000    -0.0848250000
   14      O      -4.7411180000    -1.7706990000    -5.8490700000
   15      C      -2.6434040000     1.3721630000     1.1753190000
   16      C      -3.1989590000     0.5614530000     2.3622440000
   17      C      -2.5934510000     0.9729450000     3.7086170000
   18      C      -3.1350850000     0.1722210000     4.8984920000
   19      C      -2.5299450000     0.5796110000     6.2470310000
   20      C      -3.0693800000    -0.2247550000     7.4354640000
   21      C      -2.4621640000     0.1806040000     8.7835020000
   22      C      -3.0008050000    -0.6256740000     9.9709480000
   23      C      -2.3930250000    -0.2212240000    11.3187200000
   24      C      -2.9308270000    -1.0277410000    12.5062920000
   25      C      -2.3175690000    -0.6161480000    13.8482410000
   26      H      -5.6908470000     0.2499860000    -4.3321320000
   27      H      -2.7137400000    -2.8393880000    -4.6596480000
   28      H      -1.7689960000    -2.1245470000    -2.4474000000
   29      H      -5.6387440000     2.8439480000    -0.7234390000
   30      H      -5.4944890000    -1.2185790000    -6.0817570000
   31      H      -2.8507510000     2.4346860000     1.3394920000
   32      H      -1.5576590000     1.2352440000     1.1425860000
   33      H      -3.0005360000    -0.5000270000     2.1794550000
   34      H      -4.2884470000     0.6815470000     2.3986590000
   35      H      -2.7793010000     2.0423990000     3.8792610000
   36      H      -1.5023880000     0.8565640000     3.6625000000
   37      H      -2.9490400000    -0.8960350000     4.7270280000
   38      H      -4.2263410000     0.2860660000     4.9433820000
   39      H      -2.7171620000     1.6479410000     6.4193910000
   40      H      -1.4385600000     0.4673690000     6.2011800000
   41      H      -2.8831380000    -1.2927990000     7.2621710000
   42      H      -4.1605860000    -0.1120980000     7.4823200000
   43      H      -2.6490550000     1.2485140000     8.9575820000
   44      H      -1.3709530000     0.0684400000     8.7362570000
   45      H      -2.8141680000    -1.6934600000     9.7965810000
   46      H      -4.0919560000    -0.5133620000    10.0185800000
   47      H      -2.5797880000     0.8465160000    11.4945380000
   48      H      -1.3016720000    -0.3333610000    11.2720840000
   49      H      -2.7436160000    -2.0944040000    12.3316530000
   50      H      -4.0210190000    -0.9155900000    12.5538310000
   51      H      -1.2309360000    -0.7500350000    13.8436930000
   52      H      -2.7216990000    -1.2097690000    14.6736480000
   53      H      -2.5180090000     0.4376240000    14.0676410000
 ----------------------------------------------------------------

  104   -1118.4990666657      6.10E-09 Convergence criterion met
 Total energy in the final basis set = -1118.49906667

                    Orbital Energies (a.u.)
 --------------------------------------------------------------

 Alpha MOs
 -- Occupied --
-19.1540 -19.1433 -19.0865 -19.0753 -10.2362 -10.2246 -10.2214 -10.2205
-10.1782 -10.1738 -10.1709 -10.1695 -10.1689 -10.1613 -10.1573 -10.1564
-10.1547 -10.1545 -10.1543 -10.1541 -10.1541 -10.1539 -10.1537 -10.1534
-10.1511  -1.0631  -1.0601  -1.0014  -0.9959  -0.8591  -0.8132  -0.8057
 -0.7923  -0.7742  -0.7564  -0.7498  -0.7313  -0.7050  -0.6793  -0.6581
 -0.6364  -0.6230  -0.5999  -0.5851  -0.5743  -0.5720  -0.5664  -0.5653
 -0.5509  -0.5202  -0.4934  -0.4822  -0.4799  -0.4717  -0.4657  -0.4478
 -0.4395  -0.4338  -0.4291  -0.4254  -0.4250  -0.4190  -0.4139  -0.4103
 -0.4080  -0.4015  -0.3966  -0.3893  -0.3873  -0.3842  -0.3770  -0.3725
 -0.3640  -0.3596  -0.3551  -0.3466  -0.3437  -0.3399  -0.3327  -0.3276
 -0.3261  -0.3234  -0.3210  -0.3168  -0.3163  -0.3143  -0.3134  -0.2935
 -0.2658  -0.2613  -0.2475  -0.2409  -0.2213  -0.1514

 Beta MOs
 -- Occupied --
-19.1539 -19.1429 -19.0802 -19.0704 -10.2362 -10.2233 -10.2206 -10.2173
-10.1780 -10.1741 -10.1701 -10.1687 -10.1681 -10.1602 -10.1573 -10.1565
-10.1547 -10.1545 -10.1543 -10.1541 -10.1540 -10.1539 -10.1537 -10.1534
-10.1511  -1.0610  -1.0600  -0.9927  -0.9851  -0.8568  -0.8114  -0.8049
 -0.7914  -0.7732  -0.7548  -0.7483  -0.7306  -0.7037  -0.6746  -0.6541
 -0.6353  -0.6219  -0.5982  -0.5838  -0.5732  -0.5711  -0.5664  -0.5647
 -0.5501  -0.5183  -0.4916  -0.4804  -0.4789  -0.4706  -0.4655  -0.4476
 -0.4347  -0.4289  -0.4280  -0.4249  -0.4233  -0.4173  -0.4094  -0.4078
 -0.4062  -0.4001  -0.3941  -0.3879  -0.3859  -0.3768  -0.3740  -0.3683
 -0.3637  -0.3542  -0.3480  -0.3452  -0.3403  -0.3392  -0.3313  -0.3255
 -0.3251  -0.3209  -0.3177  -0.3168  -0.3147  -0.3141  -0.3112  -0.2930
 -0.2558  -0.2527  -0.2363  -0.2329  -0.2152

          Ground-State Mulliken Net Atomic Charges

     Atom                 Charge (a.u.)    Spin (a.u.)
  --------------------------------------------------------
      1 C                     0.270754       0.095728
      2 C                    -0.754656      -0.003921
      3 C                    -0.154216       0.056346
      4 C                     0.713309       0.006998
      5 C                    -0.387189       0.034231
      6 C                     0.021409       0.000527
      7 C                    -0.849355       0.182700
      8 C                    -0.723581       0.043686
      9 C                     1.947680       0.080942
     10 C                    -0.591279       0.076283
     11 O                    -0.541435       0.232479
     12 O                    -0.481543       0.184140
     13 O                    -0.296502       0.014415
     14 O                    -0.305507       0.001919
     15 C                    -0.314672       0.011739
     16 C                    -0.890340       0.000438
     17 C                    -0.351136      -0.000328
     18 C                    -0.019127      -0.005074
     19 C                     0.026296      -0.001828
     20 C                     0.052812      -0.000143
     21 C                    -0.050524       0.000469
     22 C                    -0.310026       0.000030
     23 C                    -0.506098       0.000032
     24 C                    -0.300610      -0.000007
     25 C                    -0.710971       0.000003
     26 H                     0.171432      -0.006318
     27 H                     0.221415      -0.004481
     28 H                     0.180947      -0.000030
     29 H                     0.303682      -0.003717
     30 H                     0.316878      -0.000119
     31 H                     0.218122      -0.000216
     32 H                     0.201912       0.002963
     33 H                     0.178841      -0.001830
     34 H                     0.172010       0.001971
     35 H                     0.120477      -0.000481
     36 H                     0.120909       0.000528
     37 H                     0.130012      -0.000041
     38 H                     0.130444      -0.000017
     39 H                     0.136670      -0.000008
     40 H                     0.136936       0.000002
     41 H                     0.133678       0.000004
     42 H                     0.134021      -0.000006
     43 H                     0.133171      -0.000013
     44 H                     0.132823       0.000004
     45 H                     0.131592      -0.000001
     46 H                     0.131440       0.000001
     47 H                     0.128671       0.000003
     48 H                     0.128532      -0.000002
     49 H                     0.135219      -0.000000
     50 H                     0.135106       0.000001
     51 H                     0.144637      -0.000000
     52 H                     0.152311       0.000001
     53 H                     0.144621      -0.000000
  --------------------------------------------------------
  Sum of atomic charges =    -1.000000

                    Cartesian Multipole Moments
 -----------------------------------------------------------------
    Charge (ESU x 10^10)
                -4.8032
    Dipole Moment (Debye)
         X      16.4377      Y      -1.8091      Z       5.8384
       Tot      17.5373
    Quadrupole Moments (Debye-Ang)
        XX    -230.4868     XY      16.2749     YY    -173.0875
        XZ     -23.8070     YZ       0.2150     ZZ    -176.8303

 Total job time:  4024.92s(wall), 25379.77s(cpu)
        *  Thank you very much for using Q-Chem.  Have a nice day.  *
