 Gaussian 16, Revision A.03,
 Gaussian 16:  ES64L-G16RevA.03 25-Dec-2016

 --------------------------------------
 #P UB3LYP/6-311++G(d,p) nosym opt freq
 --------------------------------------

 -------
 Radical
 -------
 Symbolic Z-matrix:
 Charge = -1 Multiplicity = 2

 SCF Done:  E(UB3LYP) =  -669.308870364     A.U. after   24 cycles
 SCF Done:  E(UB3LYP) =  -669.325915093     A.U. after   19 cycles
 SCF Done:  E(UB3LYP) =  -669.325998202     A.U. after   18 cycles
 SCF Done:  E(UB3LYP) =  -669.328223656     A.U. after   19 cycles
 SCF Done:  E(UB3LYP) =  -669.328610431     A.U. after   17 cycles
 SCF Done:  E(UB3LYP) =  -669.329629822     A.U. after   16 cycles
 SCF Done:  E(UB3LYP) =  -669.331127077     A.U. after   19 cycles
 SCF Done:  E(UB3LYP) =  -669.332090079     A.U. after   19 cycles
 SCF Done:  E(UB3LYP) =  -669.332833325     A.U. after   17 cycles
 SCF Done:  E(UB3LYP) =  -669.333111260     A.U. after   16 cycles
 SCF Done:  E(UB3LYP) =  -669.333162391     A.U. after   14 cycles
 SCF Done:  E(UB3LYP) =  -669.333179180     A.U. after   14 cycles
 SCF Done:  E(UB3LYP) =  -669.333183257     A.U. after   13 cycles
 SCF Done:  E(UB3LYP) =  -669.333183625     A.U. after   11 cycles
 SCF Done:  E(UB3LYP) =  -669.333183699     A.U. after   10 cycles
 Optimization completed.
    -- Stationary point found.
 Normal termination of Gaussian 16 at Tue Dec 26 21:51:24 2023.

 ----------------------------------------------------------------------
 #P Geom=AllCheck Guess=TCheck SCRF=Check GenChk UB3LYP/6-311++G(d,p) F
 req
 ----------------------------------------------------------------------

 Structure from the checkpoint file:  "274-rad.chk"
 -------
 Radical
 -------
 Charge = -1 Multiplicity = 2

                          Input orientation:
 ---------------------------------------------------------------------
 Center     Atomic      Atomic             Coordinates (Angstroms)
 Number     Number       Type             X           Y           Z
 ---------------------------------------------------------------------
      1          6           0       -1.700702    3.082466    0.278738
      2          6           0       -2.874481    2.364484    0.141591
      3          6           0       -2.829739    0.981847   -0.129353
      4          6           0       -0.441876    2.456121    0.148181
      5          6           0       -0.400881    1.061840   -0.121056
      6          6           0       -1.605785    0.348059   -0.255801
      7          6           0        0.775037    3.259192    0.321168
      8          6           0        2.041082    2.550458    0.147074
      9          6           0        2.057085    1.187149   -0.121395
     10          6           0        0.889170    0.367014   -0.259812
     11          8           0        0.705903    4.485198    0.621359
     12          8           0        0.955877   -0.868028   -0.504217
     13          7           0        3.241627    3.274619    0.338983
     14          6           0        3.404526    4.514063   -0.415513
     15          6           0        4.474443    2.522777    0.435591
     16          1           0       -1.709508    4.145222    0.491605
     17          1           0       -3.832856    2.866139    0.243386
     18          1           0       -3.751978    0.418031   -0.236521
     19          1           0       -1.534153   -0.714151   -0.462019
     20          1           0        2.994427    0.660817   -0.254529
     21          1           0        2.478645    5.081988   -0.373349
     22          1           0        3.677045    4.317868   -1.469699
     23          1           0        4.206209    5.108492    0.036617
     24          1           0        4.369979    1.711098    1.158218
     25          1           0        5.265963    3.194955    0.781856
     26          1           0        4.803844    2.084071   -0.525470
 ---------------------------------------------------------------------

 SCF Done:  E(UB3LYP) =  -669.333183699     A.U. after    2 cycles

 Alpha  occ. eigenvalues --  -18.93785 -18.93238 -14.20485 -10.08649 -10.08634
 Alpha  occ. eigenvalues --  -10.08346 -10.07417 -10.07154 -10.05088 -10.04996
 Alpha  occ. eigenvalues --  -10.04318 -10.04280 -10.04187 -10.03954 -10.02344
 Alpha  occ. eigenvalues --   -0.86513  -0.85533  -0.81587  -0.72837  -0.66859
 Alpha  occ. eigenvalues --   -0.62166  -0.61428  -0.60200  -0.55623  -0.52129
 Alpha  occ. eigenvalues --   -0.48751  -0.46405  -0.42947  -0.38708  -0.38640
 Alpha  occ. eigenvalues --   -0.35831  -0.34821  -0.33765  -0.32694  -0.30353
 Alpha  occ. eigenvalues --   -0.29646  -0.28972  -0.28455  -0.27766  -0.27566
 Alpha  occ. eigenvalues --   -0.26306  -0.25854  -0.25251  -0.23470  -0.22505
 Alpha  occ. eigenvalues --   -0.22257  -0.20845  -0.16142  -0.13030  -0.12721
 Alpha  occ. eigenvalues --   -0.10570  -0.09749  -0.08864  -0.01249
 Alpha virt. eigenvalues --    0.07854   0.08666   0.09454   0.10071   0.10606
 Alpha virt. eigenvalues --    0.10884   0.11539   0.12028   0.13123   0.13463
 Alpha virt. eigenvalues --    0.13747   0.14585   0.15527   0.16229   0.16522

  Beta  occ. eigenvalues --  -18.93116 -18.92643 -14.20430 -10.08639 -10.08446
  Beta  occ. eigenvalues --  -10.08252 -10.07286 -10.07149 -10.05068 -10.04928
  Beta  occ. eigenvalues --  -10.04347 -10.04262 -10.04138 -10.03853 -10.02250
  Beta  occ. eigenvalues --   -0.85438  -0.84500  -0.81346  -0.72641  -0.66394
  Beta  occ. eigenvalues --   -0.61996  -0.61237  -0.60152  -0.55163  -0.51586
  Beta  occ. eigenvalues --   -0.48584  -0.46148  -0.42734  -0.38524  -0.38493
  Beta  occ. eigenvalues --   -0.35619  -0.34677  -0.33549  -0.32622  -0.30142
  Beta  occ. eigenvalues --   -0.29571  -0.28889  -0.28113  -0.27475  -0.26684
  Beta  occ. eigenvalues --   -0.25805  -0.25614  -0.24965  -0.22354  -0.21463
  Beta  occ. eigenvalues --   -0.21049  -0.20636  -0.14878  -0.12107  -0.11195
  Beta  occ. eigenvalues --   -0.09927  -0.09163  -0.07871
  Beta virt. eigenvalues --    0.05238   0.07868   0.08659   0.09903   0.10232
  Beta virt. eigenvalues --    0.10605   0.10930   0.12031   0.12563   0.13165
  Beta virt. eigenvalues --    0.13469   0.13758   0.14604   0.15557   0.16241

 Mulliken charges and spin densities:
               1          2
     1  C    0.146688   0.059174
     2  C   -0.396403   0.015241
     3  C   -0.325867   0.055136
     4  C    0.152861   0.003031
     5  C    0.811880   0.075114
     6  C    0.076421  -0.003123
     7  C   -1.026748   0.131697
     8  C   -0.533543   0.079793
     9  C    0.552027   0.056636
    10  C   -0.521530   0.051089
    11  O   -0.396470   0.253082
    12  O   -0.401375   0.216528
    13  N    0.155482   0.011668
    14  C   -0.402107   0.007960
    15  C   -0.369899  -0.000130
    16  H    0.158901  -0.002876
    17  H    0.117070  -0.001498
    18  H    0.122111  -0.004246
    19  H    0.147729  -0.000861
    20  H    0.159018  -0.008312
    21  H    0.196712  -0.004275
    22  H    0.090691   0.004352
    23  H    0.110406   0.002148
    24  H    0.149251  -0.000277
    25  H    0.121539  -0.000867
    26  H    0.105153   0.003816
 Sum of Mulliken charges =  -1.00000   1.00000

 Dipole moment (field-independent basis, Debye):
    X=             -2.2379    Y=             -8.2605    Z=             -0.3468  Tot=              8.5653
 Quadrupole moment (field-independent basis, Debye-Ang):
   XX=            -99.5897   YY=           -138.7100   ZZ=            -97.8796
   XY=             -2.8080   XZ=              0.2688   YZ=             -8.0065

  Exact polarizability: 259.134  21.755 207.566  -3.668  16.219 105.794
 Approx polarizability: 358.323  17.251 375.248  -2.830  42.171 166.633

                      1                      2                      3
                      A                      A                      A
 Frequencies --     55.8874                85.6074               136.0170
 Red. masses --      4.7479                 3.0339                 4.5319
 Frc consts  --      0.0087                 0.0131                 0.0494
 IR Inten    --      6.7594                 1.8729                 0.1932

                      4                      5                      6
                      A                      A                      A
 Frequencies --    150.4154               192.1729               199.7635
 Red. masses --      4.2670                 3.1555                 3.7513
 Frc consts  --      0.0569                 0.0687                 0.0882
 IR Inten    --      2.5287                 5.7524                 0.1896

                      7                      8                      9
                      A                      A                      A
 Frequencies --    237.3588               274.0849               281.7723
 Red. masses --      1.3626                 3.4517                 1.6175
 Frc consts  --      0.0452                 0.1528                 0.0757
 IR Inten    --      0.7285                 5.0681                 5.5492

                     10                     11                     12
                      A                      A                      A
 Frequencies --    306.0836               335.2852               376.5774
 Red. masses --      2.8143                 2.7799                 8.2368
 Frc consts  --      0.1553                 0.1841                 0.6882
 IR Inten    --      1.2341                 0.6266                12.9947

                     13                     14                     15
                      A                      A                      A
 Frequencies --    391.4849               419.0495               450.1490
 Red. masses --      4.1367                 4.0396                 4.3952
 Frc consts  --      0.3735                 0.4179                 0.5247
 IR Inten    --      2.5868                 1.6623                 1.4799

                     16                     17                     18
                      A                      A                      A
 Frequencies --    468.8980               478.9312               529.7060
 Red. masses --      4.0854                 7.4479                 4.1680
 Frc consts  --      0.5292                 1.0065                 0.6890
 IR Inten    --      2.4330                 1.6935                 1.8128

                     19                     20                     21
                      A                      A                      A
 Frequencies --    543.8936               637.9528               657.5776
 Red. masses --      4.4414                 5.7197                 3.4153
 Frc consts  --      0.7741                 1.3715                 0.8701
 IR Inten    --      2.0673                 9.1944                 1.6284

                     22                     23                     24
                      A                      A                      A
 Frequencies --    689.3314               716.1310               727.2084
 Red. masses --      5.6696                 2.9905                 5.5204
 Frc consts  --      1.5873                 0.9036                 1.7200
 IR Inten    --      0.1017                34.9364                 8.7448

                     25                     26                     27
                      A                      A                      A
 Frequencies --    771.1690               783.9723               836.6537
 Red. masses --      1.8304                 3.7902                 3.8486
 Frc consts  --      0.6414                 1.3725                 1.5872
 IR Inten    --     39.4521                 3.2823                 4.7045

                     28                     29                     30
                      A                      A                      A
 Frequencies --    849.7526               866.9127               873.2042
 Red. masses --      1.8085                 1.4481                 5.2905
 Frc consts  --      0.7694                 0.6412                 2.3767
 IR Inten    --     23.6643                 0.0083                10.8362

                     31                     32                     33
                      A                      A                      A
 Frequencies --    975.4961               978.9783              1003.2944
 Red. masses --      1.3313                 1.2773                 3.5702
 Frc consts  --      0.7464                 0.7212                 2.1174
 IR Inten    --      2.0845                 0.6457               113.9099

                     34                     35                     36
                      A                      A                      A
 Frequencies --   1039.4628              1071.8875              1099.3180
 Red. masses --      1.9936                 1.4822                 2.6117
 Frc consts  --      1.2692                 1.0034                 1.8596
 IR Inten    --      5.3596                17.9616                 5.3666

                     37                     38                     39
                      A                      A                      A
 Frequencies --   1116.4658              1134.2715              1151.9878
 Red. masses --      1.2921                 2.0530                 1.6420
 Frc consts  --      0.9489                 1.5563                 1.2838
 IR Inten    --      8.7221                 6.6133               118.0537

                     40                     41                     42
                      A                      A                      A
 Frequencies --   1157.1337              1171.8404              1221.3397
 Red. masses --      1.4660                 1.5477                 2.6174
 Frc consts  --      1.1565                 1.2522                 2.3003
 IR Inten    --     49.1607                 7.9720                 5.2209

                     43                     44                     45
                      A                      A                      A
 Frequencies --   1234.0411              1244.4648              1303.2025
 Red. masses --      3.3126                 1.8754                 1.9166
 Frc consts  --      2.9722                 1.7112                 1.9178
 IR Inten    --     34.7700                30.9747                16.8246

                     46                     47                     48
                      A                      A                      A
 Frequencies --   1335.9391              1356.7720              1396.0403
 Red. masses --      2.9793                 9.6932                 3.6218
 Frc consts  --      3.1329                10.5131                 4.1589
 IR Inten    --     82.2138                28.3875                86.2652

                     49                     50                     51
                      A                      A                      A
 Frequencies --   1420.9191              1447.3045              1464.8685
 Red. masses --      1.2499                 1.4457                 2.4495
 Frc consts  --      1.4868                 1.7843                 3.0969
 IR Inten    --     46.3379                42.1928               112.2427

                     52                     53                     54
                      A                      A                      A
 Frequencies --   1473.4625              1480.8602              1488.3930
 Red. masses --      2.0897                 1.1163                 1.4168
 Frc consts  --      2.6731                 1.4423                 1.8492
 IR Inten    --      1.9313                12.1191                64.2809

                     55                     56                     57
                      A                      A                      A
 Frequencies --   1501.0453              1510.5986              1524.1216
 Red. masses --      1.4241                 1.1564                 1.4987
 Frc consts  --      1.8904                 1.5548                 2.0511
 IR Inten    --      9.6128                 8.1416                87.1390

                     58                     59                     60
                      A                      A                      A
 Frequencies --   1529.9877              1550.4071              1613.7979
 Red. masses --      4.5728                 4.8501                 7.1022
 Frc consts  --      6.3068                 6.8690                10.8979
 IR Inten    --    317.7305               158.9818                24.1267

                     61                     62                     63
                      A                      A                      A
 Frequencies --   1626.4709              2891.8110              2900.2858
 Red. masses --      6.2427                 1.0623                 1.0647
 Frc consts  --      9.7301                 5.2339                 5.2764
 IR Inten    --     49.1318                55.6710               337.0936

                     64                     65                     66
                      A                      A                      A
 Frequencies --   3025.2469              3033.4083              3090.6325
 Red. masses --      1.0772                 1.0688                 1.0991
 Frc consts  --      5.8084                 5.7943                 6.1854
 IR Inten    --     72.1024               122.2018                26.1648

                     67                     68                     69
                      A                      A                      A
 Frequencies --   3129.4842              3140.1895              3149.3104
 Red. masses --      1.0845                 1.0943                 1.0912
 Frc consts  --      6.2578                 6.3577                 6.3763
 IR Inten    --     17.6254                10.5354                53.8981

                     70                     71                     72
                      A                      A                      A
 Frequencies --   3177.9081              3180.3379              3183.0843
 Red. masses --      1.0915                 1.0876                 1.0920
 Frc consts  --      6.4949                 6.4811                 6.5191
 IR Inten    --     20.1059                19.2200                19.4957

 - Thermochemistry -
 -------------------
 Temperature   298.150 Kelvin.  Pressure   1.00000 Atm.
 Atom     1 has atomic number  6 and mass  12.00000

 Molecular mass:   201.07898 amu.
 Principal axes and moments of inertia in atomic units:
                           1         2         3
     Eigenvalues --  1623.971063891.476315396.37312
           X            0.93505  -0.35416   0.01590
           Y            0.35270   0.92480  -0.14263
           Z            0.03581   0.13897   0.98965
 This molecule is an asymmetric top.
 Rotational symmetry number  1.
 Warning -- assumption of classical behavior for rotation
           may cause significant error
 Rotational temperatures (Kelvin)      0.05333     0.02226     0.01605
 Rotational constants (GHZ):           1.11131     0.46377     0.33444
 Zero-point vibrational energy     531434.3 (Joules/Mol)
                                  127.01584 (Kcal/Mol)
 Warning -- explicit consideration of  19 degrees of freedom as
           vibrations may cause significant error
 Vibrational temperatures:     80.41   123.17   195.70   216.41   276.49
          (Kelvin)            287.42   341.51   394.35   405.41   440.39
                              482.40   541.81   563.26   602.92   647.66
                              674.64   689.08   762.13   782.54   917.87
                              946.11   991.79  1030.35  1046.29  1109.54
                             1127.96  1203.76  1222.60  1247.29  1256.35
                             1403.52  1408.53  1443.52  1495.56  1542.21
                             1581.67  1606.35  1631.96  1657.45  1664.86
                             1686.02  1757.24  1775.51  1790.51  1875.02
                             1922.12  1952.09  2008.59  2044.39  2082.35
                             2107.62  2119.98  2130.63  2141.47  2159.67
                             2173.41  2192.87  2201.31  2230.69  2321.90
                             2340.13  4160.67  4172.86  4352.66  4364.40
                             4446.73  4502.63  4518.03  4531.16  4572.30
                             4575.80  4579.75

 Zero-point correction=                           0.202413 (Hartree/Particle)
 Thermal correction to Energy=                    0.215029
 Thermal correction to Enthalpy=                  0.215973
 Thermal correction to Gibbs Free Energy=         0.163215
 Sum of electronic and zero-point Energies=           -669.130771
 Sum of electronic and thermal Energies=              -669.118155
 Sum of electronic and thermal Enthalpies=            -669.117211
 Sum of electronic and thermal Free Energies=         -669.169968

                     E (Thermal)             CV                S
                      KCal/Mol        Cal/Mol-Kelvin    Cal/Mol-Kelvin
 Total                  134.932             49.889            111.038
 Electronic               0.000              0.000              1.377
 Translational            0.889              2.981             41.800
 Rotational               0.889              2.981             31.900
 Vibrational            133.155             43.927             35.960
 Vibration     1          0.596              1.975              4.597
 Vibration     2          0.601              1.959              3.758
 Vibration     3          0.614              1.917              2.859
 Vibration     4          0.618              1.902              2.667
 Vibration     5          0.634              1.851              2.207
 Vibration     6          0.638              1.840              2.135
 Vibration     7          0.656              1.783              1.823
 Vibration     8          0.676              1.721              1.570
 Vibration     9          0.681              1.707              1.523
 Vibration    10          0.696              1.662              1.383
 Vibration    11          0.716              1.605              1.234
 Vibration    12          0.747              1.520              1.053
 Vibration    13          0.759              1.488              0.994
 Vibration    14          0.782              1.429              0.895
 Vibration    15          0.809              1.361              0.795
 Vibration    16          0.826              1.319              0.741
 Vibration    17          0.835              1.297              0.713
 Vibration    18          0.885              1.184              0.588
 Vibration    19          0.899              1.153              0.557

 Optimization completed.
    -- Stationary point found.
 Normal termination of Gaussian 16 at Tue Dec 26 23:03:05 2023.
