 Q-Chem 5.4, Q-Chem, Inc., Pleasanton, CA (2021)
 Q-Chem 5.4.0 for Intel X86 EM64T Linux

User input:
--------------------------------------------------------------
$molecule
-1 2
C                 -3.0100270000     -1.5508880000     -0.1485220000
O                 -2.2713110000     -0.5576750000      0.5573870000
C                 -0.9205940000     -0.5208050000      0.2820480000
C                 -0.3821670000      0.6291430000     -0.2545340000
O                 -1.2354800000      1.6413010000     -0.6427230000
C                 -1.0743430000      2.8740830000      0.0526930000
C                  1.0481720000      0.7805150000     -0.4953050000
O                  1.5344450000      1.8344310000     -1.0000480000
C                  1.8820350000     -0.3555660000     -0.1372140000
C                  1.3276130000     -1.4978480000      0.3822090000
C                 -0.0839230000     -1.6623190000      0.6365210000
O                 -0.5639690000     -2.7170670000      1.1444460000
C                  3.3620970000     -0.2230530000     -0.3796860000
H                 -2.6202210000     -2.5488600000      0.0630860000
H                 -4.0423500000     -1.4707550000      0.2009940000
H                 -2.9828470000     -1.3541140000     -1.2289420000
H                 -1.3023080000      2.7461750000      1.1196530000
H                 -1.7965230000      3.5685770000     -0.3836660000
H                 -0.0611460000      3.2621440000     -0.0728370000
H                  1.9533780000     -2.3470240000      0.6456990000
H                  3.7785710000      0.6242050000      0.1761840000
H                  3.8897990000     -1.1339980000     -0.0827680000
H                  3.5710990000     -0.0206020000     -1.4357520000
$end

$rem
BASIS  =  6-311++G(d,p)
GUI  =  2
JOB_TYPE  =  SP
METHOD  =  B3LYP
SCF_CONVERGENCE  = 8
SOLVENT_METHOD = sm12
$end

$smx
solvent dimethylformamide
charges CM5
$end

--------------------------------------------------------------

             Standard Nuclear Orientation (Angstroms)
    I     Atom           X                Y                Z
 ----------------------------------------------------------------
    1      C      -3.0100270000    -1.5508880000    -0.1485220000
    2      O      -2.2713110000    -0.5576750000     0.5573870000
    3      C      -0.9205940000    -0.5208050000     0.2820480000
    4      C      -0.3821670000     0.6291430000    -0.2545340000
    5      O      -1.2354800000     1.6413010000    -0.6427230000
    6      C      -1.0743430000     2.8740830000     0.0526930000
    7      C       1.0481720000     0.7805150000    -0.4953050000
    8      O       1.5344450000     1.8344310000    -1.0000480000
    9      C       1.8820350000    -0.3555660000    -0.1372140000
   10      C       1.3276130000    -1.4978480000     0.3822090000
   11      C      -0.0839230000    -1.6623190000     0.6365210000
   12      O      -0.5639690000    -2.7170670000     1.1444460000
   13      C       3.3620970000    -0.2230530000    -0.3796860000
   14      H      -2.6202210000    -2.5488600000     0.0630860000
   15      H      -4.0423500000    -1.4707550000     0.2009940000
   16      H      -2.9828470000    -1.3541140000    -1.2289420000
   17      H      -1.3023080000     2.7461750000     1.1196530000
   18      H      -1.7965230000     3.5685770000    -0.3836660000
   19      H      -0.0611460000     3.2621440000    -0.0728370000
   20      H       1.9533780000    -2.3470240000     0.6456990000
   21      H       3.7785710000     0.6242050000     0.1761840000
   22      H       3.8897990000    -1.1339980000    -0.0827680000
   23      H       3.5710990000    -0.0206020000    -1.4357520000
 ----------------------------------------------------------------

   17    -650.0723041004      6.58e-09  Convergence criterion met
 Total energy in the final basis set =     -650.1513820628

                    Orbital Energies (a.u.)
 --------------------------------------------------------------

 Alpha MOs
 -- Occupied --
-19.1338 -19.1331 -19.0740 -19.0732 -10.2191 -10.2180 -10.2150 -10.2143
-10.2091 -10.2089 -10.1743 -10.1664 -10.1615  -1.0581  -1.0395  -0.9928
 -0.9900  -0.8254  -0.7683  -0.7125  -0.7038  -0.6697  -0.6476  -0.5831
 -0.5622  -0.5118  -0.4922  -0.4912  -0.4666  -0.4446  -0.4425  -0.4355
 -0.4291  -0.4225  -0.4043  -0.3918  -0.3847  -0.3772  -0.3714  -0.3633
 -0.3471  -0.3456  -0.2879  -0.2854  -0.2723  -0.2356  -0.2334  -0.2285
 -0.1585

 Beta MOs
 -- Occupied --
-19.1336 -19.1330 -19.0670 -19.0661 -10.2179 -10.2165 -10.2143 -10.2133
-10.2091 -10.2088 -10.1729 -10.1665 -10.1605  -1.0572  -1.0385  -0.9808
 -0.9779  -0.8198  -0.7665  -0.7090  -0.7027  -0.6659  -0.6421  -0.5800
 -0.5590  -0.5106  -0.4903  -0.4887  -0.4634  -0.4433  -0.4411  -0.4325
 -0.4280  -0.4179  -0.3971  -0.3897  -0.3761  -0.3710  -0.3668  -0.3465
 -0.3420  -0.3362  -0.2849  -0.2825  -0.2426  -0.2290  -0.2275  -0.2213

          Ground-State Mulliken Net Atomic Charges

     Atom                 Charge (a.u.)    Spin (a.u.)
  --------------------------------------------------------
      1 C                    -0.023292      -0.000638
      2 O                    -0.110152       0.000280
      3 C                     0.087409       0.123015
      4 C                    -0.401527       0.050028
      5 O                    -0.093944       0.000036
      6 C                    -0.015827      -0.000032
      7 C                    -1.016460       0.063616
      8 O                    -0.340541       0.262044
      9 C                     1.049534       0.095851
     10 C                    -1.115606       0.068834
     11 C                    -0.871361       0.069988
     12 O                    -0.373600       0.256098
     13 C                     0.519813       0.007785
     14 H                     0.130606      -0.000573
     15 H                     0.231207      -0.000028
     16 H                     0.127614       0.001200
     17 H                     0.129073       0.000971
     18 H                     0.231311       0.000173
     19 H                     0.129046      -0.000298
     20 H                     0.112894      -0.008784
     21 H                     0.182338       0.004969
     22 H                     0.249597       0.000021
     23 H                     0.181866       0.005445
  --------------------------------------------------------
  Sum of atomic charges =    -1.000000

                    Cartesian Multipole Moments
 -----------------------------------------------------------------
    Charge (ESU x 10^10)
                -4.8032
    Dipole Moment (Debye)
         X      -0.8909      Y       1.8838      Z      -0.4213
       Tot       2.1260
    Quadrupole Moments (Debye-Ang)
        XX     -88.4362     XY      -7.1104     YY    -102.2109
        XZ       5.9764     YZ      14.1994     ZZ     -88.5560

 Total job time:  365.71s(wall), 2839.36s(cpu)
        *  Thank you very much for using Q-Chem.  Have a nice day.  *
