 Gaussian 16, Revision A.03,
 Gaussian 16:  ES64L-G16RevA.03 25-Dec-2016

 --------------------------------------
 #P UB3LYP/6-311++G(d,p) nosym opt freq
 --------------------------------------

 -------
 Radical
 -------
 Symbolic Z-matrix:
 Charge = -1 Multiplicity = 2

 SCF Done:  E(UB3LYP) =  -799.769579937     A.U. after   23 cycles
 Optimization completed.
    -- Stationary point found.
 Normal termination of Gaussian 16 at Wed Dec 27 19:54:11 2023.

 ----------------------------------------------------------------------
 #P Geom=AllCheck Guess=TCheck SCRF=Check GenChk UB3LYP/6-311++G(d,p) F
 req
 ----------------------------------------------------------------------

 Structure from the checkpoint file:  "165-rad.chk"
 -------
 Radical
 -------
 Charge = -1 Multiplicity = 2

                          Input orientation:
 ---------------------------------------------------------------------
 Center     Atomic      Atomic             Coordinates (Angstroms)
 Number     Number       Type             X           Y           Z
 ---------------------------------------------------------------------
      1          7           0       -4.501268   -0.031830    0.183141
      2          6           0       -3.126100   -0.379942    0.240257
      3          6           0       -2.753237   -1.618758    0.792172
      4          6           0       -1.423412   -1.953809    0.927258
      5          6           0       -0.406958   -1.061431    0.538671
      6          6           0        0.983817   -1.483878    0.730280
      7          8           0        1.276503   -2.594436    1.236597
      8          6           0        2.013792   -0.543209    0.293650
      9          6           0        3.375485   -0.881895    0.445378
     10          6           0        4.376055   -0.021842    0.038745
     11          6           0        4.038154    1.222069   -0.540687
     12          6           0        2.713088    1.573601   -0.698616
     13          6           0        1.671043    0.708622   -0.289560
     14          6           0        0.285789    1.128182   -0.475593
     15          8           0        0.033194    2.257656   -1.006703
     16          6           0       -0.756740    0.204342   -0.032460
     17          6           0       -2.145290    0.520001   -0.192748
     18          7           0       -2.560185    1.752947   -0.741612
     19          1           0       -5.086035   -0.705595   -0.293584
     20          1           0       -4.662746    0.905654   -0.157147
     21          1           0       -3.532916   -2.292933    1.135964
     22          1           0       -1.119539   -2.901732    1.353829
     23          1           0        3.600772   -1.843367    0.892567
     24          1           0        5.419003   -0.298102    0.163114
     25          1           0        4.822778    1.901640   -0.860841
     26          1           0        2.428699    2.521933   -1.138846
     27          1           0       -1.732928    2.277807   -1.048571
     28          1           0       -3.230819    1.638304   -1.494653
 ---------------------------------------------------------------------

 SCF Done:  E(UB3LYP) =  -799.769579937     A.U. after    1 cycles

 Alpha  occ. eigenvalues --  -18.94911 -18.94313 -14.21231 -14.18541 -10.09838
 Alpha  occ. eigenvalues --  -10.09445 -10.08933 -10.08815 -10.05659 -10.05584
 Alpha  occ. eigenvalues --  -10.05275 -10.05215 -10.04961 -10.04928 -10.04806
 Alpha  occ. eigenvalues --  -10.04631 -10.04402 -10.04238  -0.87432  -0.86921
 Alpha  occ. eigenvalues --   -0.81876  -0.77119  -0.73549  -0.71366  -0.65789
 Alpha  occ. eigenvalues --   -0.62878  -0.61390  -0.60478  -0.54160  -0.51680
 Alpha  occ. eigenvalues --   -0.50023  -0.46830  -0.43898  -0.42462  -0.41572
 Alpha  occ. eigenvalues --   -0.39678  -0.37704  -0.35479  -0.35376  -0.34268
 Alpha  occ. eigenvalues --   -0.33030  -0.31601  -0.30287  -0.29598  -0.29440
 Alpha  occ. eigenvalues --   -0.28296  -0.27483  -0.26432  -0.26121  -0.24932
 Alpha  occ. eigenvalues --   -0.23785  -0.23140  -0.22559  -0.21389  -0.19208
 Alpha  occ. eigenvalues --   -0.18120  -0.13969  -0.13402  -0.11948  -0.11548
 Alpha  occ. eigenvalues --   -0.10621  -0.08819  -0.01194
 Alpha virt. eigenvalues --    0.06825   0.07405   0.08364   0.09275   0.09942
 Alpha virt. eigenvalues --    0.10298   0.10779   0.12069   0.12197   0.12677
 Alpha virt. eigenvalues --    0.12878   0.14479   0.14958   0.15494   0.15688

  Beta  occ. eigenvalues --  -18.94328 -18.93777 -14.21223 -14.18523 -10.09627
  Beta  occ. eigenvalues --  -10.09332 -10.08897 -10.08745 -10.05620 -10.05513
  Beta  occ. eigenvalues --  -10.05247 -10.05176 -10.04988 -10.04922 -10.04727
  Beta  occ. eigenvalues --  -10.04516 -10.04328 -10.04238  -0.86447  -0.85980
  Beta  occ. eigenvalues --   -0.81774  -0.77060  -0.73316  -0.71231  -0.65413
  Beta  occ. eigenvalues --   -0.62677  -0.61221  -0.60269  -0.53463  -0.51528
  Beta  occ. eigenvalues --   -0.49786  -0.46747  -0.43697  -0.42295  -0.41459
  Beta  occ. eigenvalues --   -0.39570  -0.37621  -0.35344  -0.35168  -0.34070
  Beta  occ. eigenvalues --   -0.32956  -0.31489  -0.30249  -0.29307  -0.28581
  Beta  occ. eigenvalues --   -0.27937  -0.27077  -0.26193  -0.25672  -0.23710
  Beta  occ. eigenvalues --   -0.23003  -0.22761  -0.21766  -0.21194  -0.18803
  Beta  occ. eigenvalues --   -0.17427  -0.12760  -0.12027  -0.11408  -0.11017
  Beta  occ. eigenvalues --   -0.10105  -0.08087
  Beta virt. eigenvalues --    0.04539   0.06836   0.08276   0.08355   0.09278
  Beta virt. eigenvalues --    0.10289   0.10588   0.10990   0.12204   0.12245
  Beta virt. eigenvalues --    0.12870   0.12911   0.14480   0.14968   0.15527

 Mulliken charges and spin densities:
               1          2
     1  N   -0.401669   0.005633
     2  C   -0.292380   0.046410
     3  C   -0.242163   0.038836
     4  C   -0.017173   0.016409
     5  C    0.512682   0.040235
     6  C   -0.650360   0.054108
     7  O   -0.364606   0.200684
     8  C    0.113728   0.050383
     9  C    0.058489   0.001112
    10  C   -0.410578   0.057524
    11  C   -0.457445   0.030199
    12  C    0.140970   0.035399
    13  C    0.240192   0.042485
    14  C   -0.685008   0.100785
    15  O   -0.376658   0.216105
    16  C    0.422777   0.007330
    17  C    0.063343   0.061143
    18  N   -0.441838   0.009045
    19  H    0.219185   0.003144
    20  H    0.226105  -0.000150
    21  H    0.142988  -0.003134
    22  H    0.154475  -0.001509
    23  H    0.153505  -0.000193
    24  H    0.120686  -0.004687
    25  H    0.121814  -0.002720
    26  H    0.154466  -0.001571
    27  H    0.311692  -0.003781
    28  H    0.182781   0.000777
 Sum of Mulliken charges =  -1.00000   1.00000

 Dipole moment (field-independent basis, Debye):
    X=             -3.0457    Y=              0.6740    Z=             -2.5864  Tot=              4.0521
 Quadrupole moment (field-independent basis, Debye-Ang):
   XX=           -121.9945   YY=           -133.1768   ZZ=           -115.7240
   XY=              6.6714   XZ=              6.5314   YZ=              7.6091

  Exact polarizability: 366.150  12.296 215.018  -4.444 -50.690 129.331
 Approx polarizability: 539.225   4.511 401.780  -1.512-107.621 217.296

                      1                      2                      3
                      A                      A                      A
 Frequencies --     48.3182                83.4292               123.8759
 Red. masses --      6.6241                 4.6319                 4.8906
 Frc consts  --      0.0091                 0.0190                 0.0442
 IR Inten    --      5.6642                 1.5749                 6.3579

                      4                      5                      6
                      A                      A                      A
 Frequencies --    135.2667               181.1032               183.7122
 Red. masses --      4.8512                 2.0334                 1.8617
 Frc consts  --      0.0523                 0.0393                 0.0370
 IR Inten    --      0.3629                44.2302                39.9613

                      7                      8                      9
                      A                      A                      A
 Frequencies --    207.3849               264.2365               297.0743
 Red. masses --      4.0014                 4.2501                 4.6501
 Frc consts  --      0.1014                 0.1748                 0.2418
 IR Inten    --      4.9462                 4.9293                 3.6127

                     10                     11                     12
                      A                      A                      A
 Frequencies --    314.3423               332.6350               338.3852
 Red. masses --      5.2228                 5.0677                 3.5593
 Frc consts  --      0.3041                 0.3304                 0.2401
 IR Inten    --     10.1768                 8.9081                29.2506

                     13                     14                     15
                      A                      A                      A
 Frequencies --    387.4980               398.1660               427.1291
 Red. masses --      6.8708                 2.8711                 4.8781
 Frc consts  --      0.6079                 0.2682                 0.5243
 IR Inten    --      1.9033                35.9807                10.0481

                     16                     17                     18
                      A                      A                      A
 Frequencies --    441.9212               444.8113               478.4111
 Red. masses --      2.3754                 3.9153                 4.9433
 Frc consts  --      0.2733                 0.4564                 0.6666
 IR Inten    --     99.4736                 3.8368                10.5795

                     19                     20                     21
                      A                      A                      A
 Frequencies --    489.6962               517.7411               563.0047
 Red. masses --      8.5109                 3.9563                 4.0799
 Frc consts  --      1.2025                 0.6248                 0.7619
 IR Inten    --      7.7823                22.3791                 1.9658

                     22                     23                     24
                      A                      A                      A
 Frequencies --    574.1185               610.7532               643.8766
 Red. masses --      6.7214                 4.6806                 2.3115
 Frc consts  --      1.3053                 1.0287                 0.5646
 IR Inten    --     14.4535                 6.3278               100.1006

                     25                     26                     27
                      A                      A                      A
 Frequencies --    665.7672               685.0220               691.2118
 Red. masses --      6.4324                 2.1537                 5.1384
 Frc consts  --      1.6798                 0.5954                 1.4464
 IR Inten    --      4.7353                88.0347                14.2694

                     28                     29                     30
                      A                      A                      A
 Frequencies --    708.9145               743.7998               766.0047
 Red. masses --      2.2352                 4.9629                 4.7034
 Frc consts  --      0.6619                 1.6177                 1.6260
 IR Inten    --     83.4465                17.9106                 1.2484

                     31                     32                     33
                      A                      A                      A
 Frequencies --    776.8249               795.5172               818.7885
 Red. masses --      1.7856                 3.2162                 2.2817
 Frc consts  --      0.6349                 1.1992                 0.9012
 IR Inten    --      8.4627                29.4363                31.0909

                     34                     35                     36
                      A                      A                      A
 Frequencies --    824.6190               865.1357               900.6575
 Red. masses --      4.2526                 1.5162                 4.0851
 Frc consts  --      1.7038                 0.6686                 1.9524
 IR Inten    --     31.8673                 0.0111                60.0509

                     37                     38                     39
                      A                      A                      A
 Frequencies --    924.8933               959.9367               980.9269
 Red. masses --      1.6228                 1.2985                 1.3299
 Frc consts  --      0.8179                 0.7050                 0.7539
 IR Inten    --    135.2105                 1.2461                 1.8211

                     40                     41                     42
                      A                      A                      A
 Frequencies --    982.1849               997.6277              1022.6415
 Red. masses --      1.2930                 3.5102                 3.1512
 Frc consts  --      0.7349                 2.0584                 1.9417
 IR Inten    --      0.8586                10.3255                46.5492

                     43                     44                     45
                      A                      A                      A
 Frequencies --   1040.6849              1109.6331              1129.1726
 Red. masses --      1.9898                 2.1182                 1.4912
 Frc consts  --      1.2697                 1.5366                 1.1203
 IR Inten    --     10.0671                16.3836                16.7089

                     46                     47                     48
                      A                      A                      A
 Frequencies --   1148.7997              1171.2372              1183.1131
 Red. masses --      1.3587                 1.2402                 2.6416
 Frc consts  --      1.0564                 1.0024                 2.1786
 IR Inten    --      5.9070                 0.9278                18.1442

                     49                     50                     51
                      A                      A                      A
 Frequencies --   1210.1684              1231.7888              1253.3661
 Red. masses --      1.9479                 2.8941                 2.0373
 Frc consts  --      1.6808                 2.5873                 1.8857
 IR Inten    --     11.3529                52.3839               166.1938

                     52                     53                     54
                      A                      A                      A
 Frequencies --   1271.2851              1298.8865              1354.1382
 Red. masses --      3.2075                 2.8167                 2.6393
 Frc consts  --      3.0542                 2.7999                 2.8515
 IR Inten    --     52.6456                15.4473                 8.3380

                     55                     56                     57
                      A                      A                      A
 Frequencies --   1360.8351              1365.1296              1415.8491
 Red. masses --      6.3814                 9.1923                 2.9932
 Frc consts  --      6.9627                10.0930                 3.5352
 IR Inten    --      2.7257                14.0174               252.8297

                     58                     59                     60
                      A                      A                      A
 Frequencies --   1443.4703              1476.6723              1483.5380
 Red. masses --      3.8015                 2.6858                 3.8137
 Frc consts  --      4.6669                 3.4505                 4.9454
 IR Inten    --    115.2624                49.5161                 7.2744

                     61                     62                     63
                      A                      A                      A
 Frequencies --   1519.0946              1536.2999              1563.0108
 Red. masses --      4.1251                 7.3928                 5.0484
 Frc consts  --      5.6086                10.2804                 7.2666
 IR Inten    --    174.7021               517.9403                38.5922

                     64                     65                     66
                      A                      A                      A
 Frequencies --   1608.3364              1612.6103              1625.3079
 Red. masses --      2.9515                 5.4009                 2.7225
 Frc consts  --      4.4984                 8.2751                 4.2374
 IR Inten    --     35.4367                 4.2375                40.6360

                     67                     68                     69
                      A                      A                      A
 Frequencies --   1635.2713              1652.1748              3132.7371
 Red. masses --      1.6525                 1.4787                 1.0846
 Frc consts  --      2.6036                 2.3781                 6.2717
 IR Inten    --     75.7232                11.8447                19.6700

                     70                     71                     72
                      A                      A                      A
 Frequencies --   3140.1717              3152.1378              3182.2683
 Red. masses --      1.0882                 1.0912                 1.0918
 Frc consts  --      6.3221                 6.3881                 6.5144
 IR Inten    --     36.5639                55.4217                18.7765

                     73                     74                     75
                      A                      A                      A
 Frequencies --   3187.7849              3191.7201              3291.8640
 Red. masses --      1.0920                 1.0915                 1.0650
 Frc consts  --      6.5383                 6.5512                 6.7995
 IR Inten    --     25.3772                 9.2437               186.3415

                     76                     77                     78
                      A                      A                      A
 Frequencies --   3523.8248              3535.9723              3634.1920
 Red. masses --      1.0803                 1.0487                 1.0960
 Frc consts  --      7.9037                 7.7256                 8.5282
 IR Inten    --      8.7048                 4.9927                 9.0802

 - Thermochemistry -
 -------------------
 Temperature   298.150 Kelvin.  Pressure   1.00000 Atm.
 Atom     1 has atomic number  7 and mass  14.00307

 Molecular mass:   238.07423 amu.
 Principal axes and moments of inertia in atomic units:
                           1         2         3
     Eigenvalues --  2043.544215687.493867723.23020
           X            0.99840  -0.05636   0.00431
           Y            0.04932   0.90593   0.42055
           Z           -0.02761  -0.41966   0.90726
 This molecule is an asymmetric top.
 Rotational symmetry number  1.
 Warning -- assumption of classical behavior for rotation
           may cause significant error
 Rotational temperatures (Kelvin)      0.04238     0.01523     0.01121
 Rotational constants (GHZ):           0.88314     0.31732     0.23368
 Zero-point vibrational energy     551896.6 (Joules/Mol)
                                  131.90646 (Kcal/Mol)
 Warning -- explicit consideration of  23 degrees of freedom as
           vibrations may cause significant error
 Vibrational temperatures:     69.52   120.04   178.23   194.62   260.57
          (Kelvin)            264.32   298.38   380.18   427.42   452.27
                              478.59   486.86   557.52   572.87   614.54
                              635.83   639.98   688.33   704.56   744.91
                              810.04   826.03   878.74   926.39   957.89
                              985.59   994.50  1019.97  1070.16  1102.11
                             1117.68  1144.57  1178.05  1186.44  1244.74
                             1295.85  1330.72  1381.13  1411.33  1413.14
                             1435.36  1471.35  1497.31  1596.51  1624.63
                             1652.87  1685.15  1702.24  1741.16  1772.27
                             1803.31  1829.10  1868.81  1948.30  1957.94
                             1964.12  2037.09  2076.83  2124.60  2134.48
                             2185.64  2210.39  2248.82  2314.04  2320.19
                             2338.46  2352.79  2377.11  4507.31  4518.01
                             4535.22  4578.57  4586.51  4592.17  4736.26
                             5070.00  5087.48  5228.79

 Zero-point correction=                           0.210206 (Hartree/Particle)
 Thermal correction to Energy=                    0.224170
 Thermal correction to Enthalpy=                  0.225114
 Thermal correction to Gibbs Free Energy=         0.169420
 Sum of electronic and zero-point Energies=           -799.559374
 Sum of electronic and thermal Energies=              -799.545410
 Sum of electronic and thermal Enthalpies=            -799.544466
 Sum of electronic and thermal Free Energies=         -799.600160

                     E (Thermal)             CV                S
                      KCal/Mol        Cal/Mol-Kelvin    Cal/Mol-Kelvin
 Total                  140.669             57.118            117.218
 Electronic               0.000              0.000              1.377
 Translational            0.889              2.981             42.304
 Rotational               0.889              2.981             32.862
 Vibrational            138.891             51.156             40.675
 Vibration     1          0.595              1.978              4.885
 Vibration     2          0.600              1.961              3.809
 Vibration     3          0.610              1.929              3.039
 Vibration     4          0.613              1.918              2.870
 Vibration     5          0.630              1.865              2.317
 Vibration     6          0.631              1.862              2.290
 Vibration     7          0.641              1.829              2.067
 Vibration     8          0.671              1.739              1.634
 Vibration     9          0.691              1.679              1.433
 Vibration    10          0.702              1.646              1.339
 Vibration    11          0.715              1.610              1.247
 Vibration    12          0.719              1.599              1.220
 Vibration    13          0.756              1.497              1.010
 Vibration    14          0.764              1.474              0.969
 Vibration    15          0.789              1.411              0.868
 Vibration    16          0.802              1.379              0.821
 Vibration    17          0.804              1.372              0.812
 Vibration    18          0.835              1.298              0.714
 Vibration    19          0.846              1.273              0.684
 Vibration    20          0.873              1.211              0.615
 Vibration    21          0.919              1.111              0.518
 Vibration    22          0.930              1.087              0.496
 Vibration    23          0.970              1.009              0.432

 Optimization completed.
    -- Stationary point found.
 Normal termination of Gaussian 16 at Wed Dec 27 21:13:10 2023.
