 Q-Chem 5.4, Q-Chem, Inc., Pleasanton, CA (2021)
 Q-Chem 5.4.0 for Intel X86 EM64T Linux

User input:
--------------------------------------------------------------
$molecule
-1 2
N                 -4.5012680000     -0.0318300000      0.1831410000
C                 -3.1261000000     -0.3799420000      0.2402570000
C                 -2.7532370000     -1.6187580000      0.7921720000
C                 -1.4234120000     -1.9538090000      0.9272580000
C                 -0.4069580000     -1.0614310000      0.5386710000
C                  0.9838170000     -1.4838780000      0.7302800000
O                  1.2765030000     -2.5944360000      1.2365970000
C                  2.0137920000     -0.5432090000      0.2936500000
C                  3.3754850000     -0.8818950000      0.4453780000
C                  4.3760550000     -0.0218420000      0.0387450000
C                  4.0381540000      1.2220690000     -0.5406870000
C                  2.7130880000      1.5736010000     -0.6986160000
C                  1.6710430000      0.7086220000     -0.2895600000
C                  0.2857890000      1.1281820000     -0.4755930000
O                  0.0331940000      2.2576560000     -1.0067030000
C                 -0.7567400000      0.2043420000     -0.0324600000
C                 -2.1452900000      0.5200010000     -0.1927480000
N                 -2.5601850000      1.7529470000     -0.7416120000
H                 -5.0860350000     -0.7055950000     -0.2935840000
H                 -4.6627460000      0.9056540000     -0.1571470000
H                 -3.5329160000     -2.2929330000      1.1359640000
H                 -1.1195390000     -2.9017320000      1.3538290000
H                  3.6007720000     -1.8433670000      0.8925670000
H                  5.4190030000     -0.2981020000      0.1631140000
H                  4.8227780000      1.9016400000     -0.8608410000
H                  2.4286990000      2.5219330000     -1.1388460000
H                 -1.7329280000      2.2778070000     -1.0485710000
H                 -3.2308190000      1.6383040000     -1.4946530000
$end
$rem
MAX_SCF_CYCLES=200
BASIS  =  6-311++G(d,p)
GUI  =  2
JOB_TYPE  =  SP
METHOD  =  B3LYP
SOLVENT_METHOD = COSMO
$end
$solvent
dielectric 37.219
opticaldielectric 1.43
$end

--------------------------------------------------------------

             Standard Nuclear Orientation (Angstroms)
    I     Atom           X                Y                Z
 ----------------------------------------------------------------
    1      N       4.5853740757    -0.2185538964     0.1107770880
    2      C       3.2318863335     0.1996374256     0.0174058925
    3      C       2.9376066931     1.5748420171    -0.0052632642
    4      C       1.6307085280     2.0114901635    -0.0225118269
    5      C       0.5600059761     1.0985707102     0.0037789094
    6      C      -0.8017909507     1.6416467012     0.0009196724
    7      O      -1.0238030866     2.8769496198    -0.0089990644
    8      C      -1.8897100442     0.6655450557     0.0040896551
    9      C      -3.2278102982     1.1143342758     0.0004338400
   10      C      -4.2814509219     0.2221407488    -0.0033119312
   11      C      -4.0230419513    -1.1672684435    -0.0033806310
   12      C      -2.7223287143    -1.6281902806     0.0001344436
   13      C      -1.6269659385    -0.7329030646     0.0039362645
   14      C      -0.2703894177    -1.2706974067     0.0106373150
   15      O      -0.0900110585    -2.5312674962     0.0061340235
   16      C       0.8293619334    -0.3078035849     0.0204541809
   17      C       2.1952424380    -0.7409109860     0.0065842148
   18      N       2.5318650260    -2.1119348568     0.0294789618
   19      H       5.1916995033     0.1564327175    -0.6068112065
   20      H       4.6895631120    -1.2196748250     0.1982347851
   21      H       3.7595348709     2.2850397970     0.0203764895
   22      H       1.3871059035     3.0666375995    -0.0359759244
   23      H      -3.3917313364     2.1859172910    -0.0001790603
   24      H      -5.3052514712     0.5845684150    -0.0058394483
   25      H      -4.8495802649    -1.8720952636    -0.0053091146
   26      H      -2.4985483483    -2.6883477387     0.0014190681
   27      H       1.6710753083    -2.6687485145    -0.0257985550
   28      H       3.1880301810    -2.3643651854    -0.7024294653
 ----------------------------------------------------------------

   11    -799.7695934419      4.77e-06  Convergence criterion met
 Total energy in the final basis set =     -799.7695934419
    4    -799.8584249924      8.62e-06  Convergence criterion met
 Total energy in the final basis set =     -799.8584249924

                    Orbital Energies (a.u.)
 --------------------------------------------------------------

 Alpha MOs
 -- Occupied --
-19.0798 -19.0774 -14.3102 -14.2985 -10.2274 -10.2252 -10.2078 -10.2046
-10.1759 -10.1719 -10.1714 -10.1709 -10.1704 -10.1688 -10.1683 -10.1675
-10.1672 -10.1623  -1.0062  -1.0038  -0.9271  -0.8797  -0.8574  -0.8332
 -0.7777  -0.7500  -0.7330  -0.7234  -0.6639  -0.6349  -0.6183  -0.5850
 -0.5591  -0.5401  -0.5304  -0.5052  -0.4872  -0.4742  -0.4670  -0.4631
 -0.4461  -0.4350  -0.4240  -0.4220  -0.4155  -0.4145  -0.3980  -0.3859
 -0.3809  -0.3778  -0.3566  -0.3509  -0.3470  -0.3354  -0.3084  -0.3007
 -0.2645  -0.2570  -0.2500  -0.2413  -0.2339  -0.2067  -0.1394

 Beta MOs
 -- Occupied --
-19.0744 -19.0727 -14.3100 -14.2982 -10.2250 -10.2236 -10.2073 -10.2038
-10.1757 -10.1712 -10.1710 -10.1703 -10.1695 -10.1688 -10.1681 -10.1670
-10.1670 -10.1621  -0.9974  -0.9947  -0.9258  -0.8790  -0.8550  -0.8319
 -0.7741  -0.7477  -0.7314  -0.7211  -0.6569  -0.6332  -0.6159  -0.5841
 -0.5567  -0.5382  -0.5291  -0.5042  -0.4860  -0.4716  -0.4658  -0.4616
 -0.4453  -0.4335  -0.4220  -0.4134  -0.4123  -0.4099  -0.3956  -0.3810
 -0.3753  -0.3612  -0.3553  -0.3491  -0.3383  -0.3340  -0.3048  -0.2932
 -0.2503  -0.2482  -0.2454  -0.2366  -0.2296  -0.1986

          Ground-State Mulliken Net Atomic Charges

     Atom                 Charge (a.u.)    Spin (a.u.)
  --------------------------------------------------------
      1 N                    -0.458752       0.009849
      2 C                    -0.289731       0.057500
      3 C                    -0.348072       0.017257
      4 C                    -0.040960       0.039686
      5 C                     0.430836       0.014460
      6 C                    -0.415253       0.095612
      7 O                    -0.499872       0.174238
      8 C                     0.015157       0.034141
      9 C                     0.066860       0.015556
     10 C                    -0.500902       0.050327
     11 C                    -0.514994       0.031009
     12 C                     0.135614       0.041775
     13 C                     0.118549       0.033658
     14 C                    -0.507526       0.127104
     15 O                    -0.489905       0.193788
     16 C                     0.412766      -0.006920
     17 C                     0.110598       0.071631
     18 N                    -0.517109       0.013747
     19 H                     0.284282       0.001530
     20 H                     0.279882      -0.000021
     21 H                     0.214241      -0.001976
     22 H                     0.172768      -0.002483
     23 H                     0.174127      -0.000503
     24 H                     0.199756      -0.004047
     25 H                     0.201418      -0.002686
     26 H                     0.178556      -0.001656
     27 H                     0.326651      -0.003231
     28 H                     0.261015       0.000656
  --------------------------------------------------------
  Sum of atomic charges =    -1.000000

                    Cartesian Multipole Moments
 -----------------------------------------------------------------
    Charge (ESU x 10^10)
                -4.8032
    Dipole Moment (Debye)
         X       3.6198      Y      -2.4671      Z      -2.7472
       Tot       5.1707
    Quadrupole Moments (Debye-Ang)
        XX     -98.6940     XY       4.0828     YY    -138.1623
        XZ     -11.7710     YZ       3.1970     ZZ    -112.6850

 Total job time:  96.46s(wall), 721.58s(cpu)
        *  Thank you very much for using Q-Chem.  Have a nice day.  *
