 Gaussian 16, Revision A.03,
 Gaussian 16:  ES64L-G16RevA.03 25-Dec-2016

 --------------------------------------
 #P UB3LYP/6-311++G(d,p) nosym opt freq
 --------------------------------------

 -------
 Reduced
 -------
 Symbolic Z-matrix:
 Charge = -2 Multiplicity = 1

 SCF Done:  E(UB3LYP) =  -989.800895865     A.U. after  116 cycles
 SCF Done:  E(UB3LYP) =  -989.872234737     A.U. after   24 cycles
 SCF Done:  E(UB3LYP) =  -989.966173984     A.U. after   14 cycles
 SCF Done:  E(UB3LYP) =  -990.000901939     A.U. after   15 cycles
 SCF Done:  E(UB3LYP) =  -990.011351752     A.U. after   14 cycles
 SCF Done:  E(UB3LYP) =  -990.010701688     A.U. after   13 cycles
 SCF Done:  E(UB3LYP) =  -990.014657704     A.U. after   12 cycles
 SCF Done:  E(UB3LYP) =  -990.014572861     A.U. after   13 cycles
 SCF Done:  E(UB3LYP) =  -990.015014753     A.U. after   12 cycles
 SCF Done:  E(UB3LYP) =  -990.015045964     A.U. after   11 cycles
 SCF Done:  E(UB3LYP) =  -990.015047874     A.U. after   11 cycles
 SCF Done:  E(UB3LYP) =  -990.015054192     A.U. after   10 cycles
 SCF Done:  E(UB3LYP) =  -990.015054470     A.U. after    9 cycles
 SCF Done:  E(UB3LYP) =  -990.015054548     A.U. after    8 cycles
 Optimization completed.
    -- Stationary point found.
 Normal termination of Gaussian 16 at Thu Dec 21 20:55:26 2023.

 ----------------------------------------------------------------------
 #P Geom=AllCheck Guess=TCheck SCRF=Check GenChk UB3LYP/6-311++G(d,p) F
 req
 ----------------------------------------------------------------------

 Structure from the checkpoint file:  "205-an.chk"
 -------
 Reduced
 -------
 Charge = -2 Multiplicity = 1

                          Input orientation:
 ---------------------------------------------------------------------
 Center     Atomic      Atomic             Coordinates (Angstroms)
 Number     Number       Type             X           Y           Z
 ---------------------------------------------------------------------
      1          8           0       -2.679809   -2.581821    0.538864
      2          6           0       -2.569805   -1.224937    0.398745
      3          6           0       -3.698216   -0.438354    0.408895
      4          6           0       -3.604063    0.976160    0.264367
      5          6           0       -2.382464    1.589638    0.111176
      6          8           0       -2.311675    2.949391   -0.026407
      7          6           0       -1.171350    0.806914    0.094409
      8          6           0        0.095670    1.437367   -0.063775
      9          8           0        0.184121    2.766916   -0.199166
     10          6           0        1.266823    0.627375   -0.074846
     11          6           0        2.569829    1.224878   -0.232624
     12          8           0        2.680009    2.581774   -0.372859
     13          6           0        3.698218    0.438287   -0.242662
     14          6           0        3.604049   -0.976235   -0.098086
     15          6           0        2.382441   -1.589683    0.055041
     16          8           0        2.311548   -2.949393    0.192681
     17          6           0        1.171319   -0.806904    0.071704
     18          6           0       -0.095694   -1.437309    0.229844
     19          8           0       -0.184243   -2.766925    0.365492
     20          6           0       -1.266838   -0.627355    0.240925
     21          1           0       -1.722999   -2.912438    0.497760
     22          1           0       -4.665888   -0.917292    0.529517
     23          1           0       -4.498836    1.592293    0.273081
     24          1           0       -1.320443    3.136419   -0.120748
     25          1           0        1.723358    2.912633   -0.332027
     26          1           0        4.665888    0.917234   -0.363248
     27          1           0        4.498821   -1.592370   -0.106723
     28          1           0        1.320228   -3.136264    0.286964
 ---------------------------------------------------------------------

 SCF Done:  E(UB3LYP) =  -990.015054548     A.U. after    1 cycles

 Alpha  occ. eigenvalues --  -18.87861 -18.87858 -18.87857 -18.87857 -18.82967
 Alpha  occ. eigenvalues --  -18.82966  -9.98062  -9.98061  -9.98060  -9.98060
 Alpha  occ. eigenvalues --   -9.96937  -9.96935  -9.92754  -9.92752  -9.92715
 Alpha  occ. eigenvalues --   -9.92715  -9.92311  -9.92310  -9.92267  -9.92267
 Alpha  occ. eigenvalues --   -0.79905  -0.79740  -0.79165  -0.79042  -0.72774
 Alpha  occ. eigenvalues --   -0.72575  -0.60757  -0.58858  -0.54035  -0.49531
 Alpha  occ. eigenvalues --   -0.49347  -0.47785  -0.43084  -0.39777  -0.38674
 Alpha  occ. eigenvalues --   -0.34962  -0.33234  -0.30001  -0.27813  -0.27757
 Alpha  occ. eigenvalues --   -0.26513  -0.25918  -0.25466  -0.22495  -0.20383
 Alpha  occ. eigenvalues --   -0.18654  -0.18401  -0.17130  -0.16941  -0.16257
 Alpha  occ. eigenvalues --   -0.16167  -0.16089  -0.15971  -0.15628  -0.14912
 Alpha  occ. eigenvalues --   -0.13539  -0.11749  -0.11325  -0.11251  -0.10775
 Alpha  occ. eigenvalues --   -0.09388  -0.08899  -0.05694  -0.05186  -0.01531
 Alpha  occ. eigenvalues --   -0.01331   0.00048   0.00050   0.02651   0.04353
 Alpha  occ. eigenvalues --    0.10546
 Alpha virt. eigenvalues --    0.16875   0.16903   0.18797   0.18816   0.20560
 Alpha virt. eigenvalues --    0.20951   0.21411   0.21688   0.23069   0.24062
 Alpha virt. eigenvalues --    0.25370   0.25654   0.25793   0.26490   0.26567

  Beta  occ. eigenvalues --  -18.87861 -18.87858 -18.87857 -18.87857 -18.82967
  Beta  occ. eigenvalues --  -18.82966  -9.98062  -9.98061  -9.98060  -9.98060
  Beta  occ. eigenvalues --   -9.96937  -9.96935  -9.92754  -9.92752  -9.92715
  Beta  occ. eigenvalues --   -9.92715  -9.92311  -9.92310  -9.92267  -9.92267
  Beta  occ. eigenvalues --   -0.79905  -0.79740  -0.79165  -0.79042  -0.72774
  Beta  occ. eigenvalues --   -0.72575  -0.60757  -0.58858  -0.54035  -0.49531
  Beta  occ. eigenvalues --   -0.49347  -0.47785  -0.43084  -0.39777  -0.38674
  Beta  occ. eigenvalues --   -0.34962  -0.33234  -0.30001  -0.27813  -0.27757
  Beta  occ. eigenvalues --   -0.26513  -0.25918  -0.25466  -0.22495  -0.20383
  Beta  occ. eigenvalues --   -0.18654  -0.18401  -0.17130  -0.16941  -0.16257
  Beta  occ. eigenvalues --   -0.16167  -0.16089  -0.15971  -0.15628  -0.14912
  Beta  occ. eigenvalues --   -0.13539  -0.11749  -0.11325  -0.11251  -0.10775
  Beta  occ. eigenvalues --   -0.09388  -0.08899  -0.05694  -0.05186  -0.01531
  Beta  occ. eigenvalues --   -0.01331   0.00048   0.00050   0.02651   0.04353
  Beta  occ. eigenvalues --    0.10546
  Beta virt. eigenvalues --    0.16875   0.16903   0.18797   0.18816   0.20560
  Beta virt. eigenvalues --    0.20951   0.21411   0.21688   0.23069   0.24062
  Beta virt. eigenvalues --    0.25370   0.25654   0.25793   0.26490   0.26567

 Mulliken charges and spin densities:
               1          2
     1  O   -0.446237   0.000000
     2  C   -0.416706  -0.000000
     3  C   -0.056503   0.000000
     4  C   -0.056445   0.000000
     5  C   -0.416837   0.000000
     6  O   -0.446215  -0.000000
     7  C    0.426015  -0.000000
     8  C   -0.333510  -0.000000
     9  O   -0.670527   0.000000
    10  C    0.426031   0.000000
    11  C   -0.416905  -0.000000
    12  O   -0.446018   0.000000
    13  C   -0.056330   0.000000
    14  C   -0.056610  -0.000000
    15  C   -0.416917   0.000000
    16  O   -0.446284  -0.000000
    17  C    0.426113  -0.000000
    18  C   -0.333441   0.000000
    19  O   -0.670793  -0.000000
    20  C    0.425899  -0.000000
    21  H    0.397718  -0.000000
    22  H    0.097889   0.000000
    23  H    0.097887  -0.000000
    24  H    0.397698   0.000000
    25  H    0.397401  -0.000000
    26  H    0.097897  -0.000000
    27  H    0.097885   0.000000
    28  H    0.397844   0.000000
 Sum of Mulliken charges =  -2.00000   0.00000

 Dipole moment (field-independent basis, Debye):
    X=              0.0007    Y=              0.0011    Z=             -0.7989  Tot=              0.7989
 Quadrupole moment (field-independent basis, Debye-Ang):
   XX=           -189.6553   YY=           -186.4190   ZZ=           -127.3144
   XY=              0.6701   XZ=              4.7837   YZ=              5.7743

  Exact polarizability: 372.743 -10.547 243.094 -19.109 -12.120 112.525
 Approx polarizability: 634.184 -15.001 459.044 -33.803 -26.540 178.952

                      1                      2                      3
                      A                      A                      A
 Frequencies --     62.5099                64.2313               106.6261
 Red. masses --      7.2995                 9.9403                14.2017
 Frc consts  --      0.0168                 0.0242                 0.0951
 IR Inten    --      0.2874                 0.0020                 0.0000

                      4                      5                      6
                      A                      A                      A
 Frequencies --    129.8431               133.5917               180.0086
 Red. masses --      8.2804                 7.4661                 8.9267
 Frc consts  --      0.0823                 0.0785                 0.1704
 IR Inten    --      0.0188                 0.0000                 0.4181

                      7                      8                      9
                      A                      A                      A
 Frequencies --    229.0884               260.7025               317.1807
 Red. masses --      6.9863                 6.1494                 7.5040
 Frc consts  --      0.2160                 0.2462                 0.4448
 IR Inten    --      0.1322                 0.0000                 0.0000

                     10                     11                     12
                      A                      A                      A
 Frequencies --    325.7884               368.0250               372.5600
 Red. masses --      7.5712                 8.1531                 6.2689
 Frc consts  --      0.4735                 0.6506                 0.5127
 IR Inten    --      0.0000                 0.0000                 0.0000

                     13                     14                     15
                      A                      A                      A
 Frequencies --    380.4024               417.2397               429.6208
 Red. masses --      9.4801                 6.1554                10.3287
 Frc consts  --      0.8083                 0.6314                 1.1232
 IR Inten    --      0.0000                64.6149                 0.0002

                     16                     17                     18
                      A                      A                      A
 Frequencies --    442.4589               468.6243               480.6982
 Red. masses --      7.7361                10.3269                11.7776
 Frc consts  --      0.8923                 1.3362                 1.6034
 IR Inten    --      0.0000                 3.7280                 0.0009

                     19                     20                     21
                      A                      A                      A
 Frequencies --    481.3519               482.7934               486.2973
 Red. masses --      4.2372                11.2814                10.0627
 Frc consts  --      0.5784                 1.5493                 1.4021
 IR Inten    --      0.0183                76.5791                15.7391

                     22                     23                     24
                      A                      A                      A
 Frequencies --    526.5858               545.7614               570.5477
 Red. masses --      5.4007                 3.6588                 9.3838
 Frc consts  --      0.8823                 0.6421                 1.7998
 IR Inten    --      0.0000                20.1944                 0.0000

                     25                     26                     27
                      A                      A                      A
 Frequencies --    612.8611               613.4233               637.4492
 Red. masses --      4.1084                 3.9107                 2.9952
 Frc consts  --      0.9092                 0.8670                 0.7171
 IR Inten    --      4.1691                 0.0001                 0.0000

                     28                     29                     30
                      A                      A                      A
 Frequencies --    714.8015               721.6594               725.1961
 Red. masses --      6.8902                 6.3204                 3.1232
 Frc consts  --      2.0742                 1.9394                 0.9677
 IR Inten    --      0.0000                 0.0004                40.3532

                     31                     32                     33
                      A                      A                      A
 Frequencies --    736.5972               768.6234               774.8527
 Red. masses --      7.9183                 7.6637                 1.7577
 Frc consts  --      2.5313                 2.6676                 0.6218
 IR Inten    --    108.4484                 0.0000                 0.0000

                     34                     35                     36
                      A                      A                      A
 Frequencies --    781.7852               807.3623               809.0712
 Red. masses --      2.2912                 1.3981                 1.4926
 Frc consts  --      0.8251                 0.5369                 0.5757
 IR Inten    --     81.9507                 0.0014                 0.0000

                     37                     38                     39
                      A                      A                      A
 Frequencies --    819.8210               843.5280               928.1738
 Red. masses --      9.0810                 9.3568                 1.0602
 Frc consts  --      3.5960                 3.9226                 0.5381
 IR Inten    --    116.8367                 0.0000                 0.7634

                     40                     41                     42
                      A                      A                      A
 Frequencies --    930.3312               945.1029               959.6033
 Red. masses --      1.0639                10.4545                 1.0369
 Frc consts  --      0.5425                 5.5019                 0.5625
 IR Inten    --    257.6849               353.1492                 0.0314

                     43                     44                     45
                      A                      A                      A
 Frequencies --    960.5027               975.1704               988.7818
 Red. masses --      1.0386                 5.0571                 3.7647
 Frc consts  --      0.5645                 2.8334                 2.1686
 IR Inten    --      0.0024                 0.0000                 0.0002

                     46                     47                     48
                      A                      A                      A
 Frequencies --   1066.4280              1123.8950              1175.7742
 Red. masses --      1.4912                 1.6666                 5.4155
 Frc consts  --      0.9992                 1.2403                 4.4110
 IR Inten    --     87.8668                 0.0000                37.0585

                     49                     50                     51
                      A                      A                      A
 Frequencies --   1195.5179              1230.5561              1247.0516
 Red. masses --      9.4287                 1.9435                 4.5932
 Frc consts  --      7.9399                 1.7339                 4.2086
 IR Inten    --    190.0527                90.9216               132.1459

                     52                     53                     54
                      A                      A                      A
 Frequencies --   1251.7077              1261.1843              1270.2983
 Red. masses --      1.9158                12.2432                 7.0068
 Frc consts  --      1.7685                11.4737                 6.6616
 IR Inten    --      0.0000                 0.0002                 0.0000

                     55                     56                     57
                      A                      A                      A
 Frequencies --   1316.6857              1327.1050              1343.7410
 Red. masses --      2.8074                 3.3434                 3.2162
 Frc consts  --      2.8677                 3.4694                 3.4215
 IR Inten    --     61.7484                 0.0000                 0.0023

                     58                     59                     60
                      A                      A                      A
 Frequencies --   1361.3573              1362.1641              1447.6821
 Red. masses --      4.9245                10.0619                 7.9479
 Frc consts  --      5.3773                10.9999                 9.8141
 IR Inten    --    628.6977                24.5295                 0.0089

                     61                     62                     63
                      A                      A                      A
 Frequencies --   1454.3630              1512.1378              1544.0157
 Red. masses --      6.9350                 2.6963                 1.9582
 Frc consts  --      8.6426                 3.6324                 2.7505
 IR Inten    --    548.7815                 0.0003               778.7736

                     64                     65                     66
                      A                      A                      A
 Frequencies --   1551.7882              1560.6953              1603.4698
 Red. masses --      3.2457                 5.5410                 3.2959
 Frc consts  --      4.6050                 7.9519                 4.9929
 IR Inten    --      0.0045               189.1171                 0.0042

                     67                     68                     69
                      A                      A                      A
 Frequencies --   1608.3753              1651.2078              1677.0690
 Red. masses --      1.4242                 2.5164                 1.6345
 Frc consts  --      2.1706                 4.0423                 2.7086
 IR Inten    --    329.8702                 0.0013                 0.0004

                     70                     71                     72
                      A                      A                      A
 Frequencies --   1699.4894              2781.5240              2807.9995
 Red. masses --      1.9154                 1.0734                 1.0740
 Frc consts  --      3.2594                 4.8929                 4.9895
 IR Inten    --      0.0390                 1.3067              2185.5419

                     73                     74                     75
                      A                      A                      A
 Frequencies --   2898.4082              2918.5338              3128.8486
 Red. masses --      1.0776                 1.0760                 1.0850
 Frc consts  --      5.3335                 5.3998                 6.2581
 IR Inten    --     11.6780                 0.0135                98.5453

                     76                     77                     78
                      A                      A                      A
 Frequencies --   3128.9743              3149.3734              3149.7825
 Red. masses --      1.0852                 1.0924                 1.0922
 Frc consts  --      6.2599                 6.3839                 6.3841
 IR Inten    --      0.0469               164.2413                 0.0037

 - Thermochemistry -
 -------------------
 Temperature   298.150 Kelvin.  Pressure   1.00000 Atm.
 Atom     1 has atomic number  8 and mass  15.99491

 Molecular mass:   272.03209 amu.
 Principal axes and moments of inertia in atomic units:
                           1         2         3
     Eigenvalues --  3518.421265404.306828922.72802
           X            0.99492   0.06604   0.07598
           Y           -0.07325   0.99265   0.09634
           Z           -0.06906  -0.10141   0.99244
 This molecule is an asymmetric top.
 Rotational symmetry number  1.
 Warning -- assumption of classical behavior for rotation
           may cause significant error
 Rotational temperatures (Kelvin)      0.02462     0.01603     0.00971
 Rotational constants (GHZ):           0.51294     0.33394     0.20226
 Zero-point vibrational energy     503175.9 (Joules/Mol)
                                  120.26192 (Kcal/Mol)
 Warning -- explicit consideration of  26 degrees of freedom as
           vibrations may cause significant error
 Vibrational temperatures:     89.94    92.41   153.41   186.82   192.21
          (Kelvin)            258.99   329.61   375.09   456.35   468.74
                              529.51   536.03   547.31   600.31   618.13
                              636.60   674.25   691.62   692.56   694.63
                              699.67   757.64   785.23   820.89   881.77
                              882.58   917.15  1028.44  1038.31  1043.40
                             1059.80  1105.88  1114.84  1124.81  1161.61
                             1164.07  1179.54  1213.65  1335.44  1338.54
                             1359.79  1380.66  1381.95  1403.05  1422.64
                             1534.35  1617.03  1691.68  1720.08  1770.50
                             1794.23  1800.93  1814.56  1827.68  1894.42
                             1909.41  1933.34  1958.69  1959.85  2082.89
                             2092.50  2175.63  2221.49  2232.68  2245.49
                             2307.04  2314.09  2375.72  2412.93  2445.19
                             4001.99  4040.09  4170.16  4199.12  4501.72
                             4501.90  4531.25  4531.83

 Zero-point correction=                           0.191650 (Hartree/Particle)
 Thermal correction to Energy=                    0.206122
 Thermal correction to Enthalpy=                  0.207067
 Thermal correction to Gibbs Free Energy=         0.150660
 Sum of electronic and zero-point Energies=           -989.823405
 Sum of electronic and thermal Energies=              -989.808932
 Sum of electronic and thermal Enthalpies=            -989.807988
 Sum of electronic and thermal Free Energies=         -989.864394

                     E (Thermal)             CV                S
                      KCal/Mol        Cal/Mol-Kelvin    Cal/Mol-Kelvin
 Total                  129.344             59.891            118.717
 Electronic               0.000              0.000              0.000
 Translational            0.889              2.981             42.701
 Rotational               0.889              2.981             33.495
 Vibrational            127.566             53.929             42.521
 Vibration     1          0.597              1.972              4.376
 Vibration     2          0.597              1.971              4.323
 Vibration     3          0.605              1.944              3.329
 Vibration     4          0.612              1.923              2.948
 Vibration     5          0.613              1.920              2.894
 Vibration     6          0.629              1.867              2.328
 Vibration     7          0.652              1.797              1.886
 Vibration     8          0.669              1.745              1.657
 Vibration     9          0.704              1.641              1.325
 Vibration    10          0.710              1.624              1.281
 Vibration    11          0.741              1.538              1.088
 Vibration    12          0.744              1.528              1.069
 Vibration    13          0.750              1.512              1.038
 Vibration    14          0.780              1.433              0.901
 Vibration    15          0.791              1.406              0.860
 Vibration    16          0.802              1.378              0.819
 Vibration    17          0.826              1.320              0.741
 Vibration    18          0.837              1.293              0.708
 Vibration    19          0.838              1.291              0.706
 Vibration    20          0.839              1.288              0.703
 Vibration    21          0.842              1.280              0.693
 Vibration    22          0.882              1.191              0.595
 Vibration    23          0.901              1.149              0.553
 Vibration    24          0.927              1.095              0.503
 Vibration    25          0.972              1.005              0.428
 Vibration    26          0.973              1.003              0.427

 Optimization completed.
    -- Stationary point found.
 Normal termination of Gaussian 16 at Thu Dec 21 22:07:03 2023.
