 Q-Chem 5.4, Q-Chem, Inc., Pleasanton, CA (2021)
 Q-Chem 5.4.0 for Intel X86 EM64T Linux

User input:
--------------------------------------------------------------
$molecule
-2 1
C                 -2.4145290000      0.3889170000      1.2821780000
C                 -3.5885840000      1.1340540000      1.3829990000
C                 -3.7031970000      2.3259190000      2.3068810000
C                 -4.7807890000      0.7936640000      0.6338040000
O                 -5.8827360000      1.4433510000      0.7417600000
C                 -4.6577250000     -0.3485230000     -0.2439430000
C                 -3.4823730000     -1.0756130000     -0.3602400000
O                 -3.4361320000     -2.1106200000     -1.2872400000
C                 -3.1858690000     -3.3918560000     -0.7285270000
C                 -2.2946570000     -0.7465390000      0.3940830000
O                 -1.2049930000     -1.4136920000      0.2733150000
O                 -5.7737690000     -0.7843650000     -0.9499200000
C                 -6.2655990000      0.1449080000     -1.9041660000
H                 -4.6571550000      2.8213210000      2.1154740000
H                 -2.8895020000      3.0477280000      2.1634490000
H                 -3.6852060000      2.0343680000      3.3679740000
H                 -4.0147870000     -3.6975930000     -0.0717130000
H                 -3.1249460000     -4.0922350000     -1.5685370000
H                 -2.2448970000     -3.3913590000     -0.1714330000
H                 -6.5144870000      1.0947590000     -1.4226420000
H                 -7.1657830000     -0.3018540000     -2.3402970000
H                 -5.5274560000      0.3073880000     -2.7043400000
C                 -1.1759750000      0.7277940000      2.0823880000
C                 -0.1543180000      1.5971000000      1.3208670000
C                  1.1101810000      1.8987200000      2.1357110000
C                  2.1390020000      2.7721700000      1.4057660000
C                  3.3948050000      3.0771750000      2.2336210000
C                  4.4249460000      3.9588440000      1.5159300000
C                  5.6716670000      4.2659390000      2.3564690000
C                  6.7022270000      5.1523180000      1.6458020000
C                  7.9437900000      5.4595880000      2.4938150000
C                  8.9719500000      6.3462840000      1.7852330000
H                 -0.6773040000     -0.2126670000      2.3434590000
H                 -1.4467350000      1.2346040000      3.0167090000
H                 -0.6293860000      2.5406250000      1.0216490000
H                  0.1144280000      1.0694720000      0.4000460000
H                  1.5833990000      0.9498150000      2.4224200000
H                  0.8265290000      2.3925800000      3.0766130000
H                  1.6645960000      3.7178840000      1.1102930000
H                  2.4326740000      2.2765960000      0.4711540000
H                  3.8715790000      2.1315650000      2.5249700000
H                  3.0966770000      3.5654270000      3.1715500000
H                  3.9485430000      4.9031110000      1.2200630000
H                  4.7308030000      3.4700880000      0.5813830000
H                  6.1497450000      3.3217970000      2.6500680000
H                  5.3638510000      4.7516400000      3.2922510000
H                  6.2268670000      6.0969100000      1.3504330000
H                  7.0160680000      4.6679790000      0.7118340000
H                  8.4204820000      4.5160900000      2.7893940000
H                  7.6307760000      5.9429240000      3.4282990000
H                  9.3410480000      5.8769930000      0.8659850000
H                  9.8426640000      6.5445230000      2.4194120000
H                  8.5434430000      7.3173770000      1.5115890000
$end
$rem
MAX_SCF_CYCLES=200
SCF_Guess=core
BASIS  =  6-311++G(d,p)
GUI  =  2
JOB_TYPE  =  SP
METHOD  =  B3LYP
THRESH = 14
SCF_CONVERGENCE = 8
SOLVENT_METHOD = COSMO
$end
$solvent
dielectric 37.219
opticaldielectric 1.43
$end

--------------------------------------------------------------

             Standard Nuclear Orientation (Angstroms)
    I     Atom           X                Y                Z
 ----------------------------------------------------------------
    1      C       2.2607025303     0.2564114909    -0.7539874877
    2      C       2.9540320154     1.4453074083    -0.5312322662
    3      C       2.3689746983     2.7925483232    -0.8916294371
    4      C       4.2898592711     1.4617851318     0.0289509981
    5      O       4.9597766586     2.5425264174     0.2057103099
    6      C       4.8374755420     0.1672294254     0.3672077496
    7      C       4.1379738698    -1.0133674689     0.1658981178
    8      O       4.7157261232    -2.2033678555     0.5934587963
    9      C       4.9502162666    -3.1494027830    -0.4392026980
   10      C       2.8100914700    -1.0349747671    -0.4035082744
   11      O       2.1609308252    -2.1286183801    -0.5754959865
   12      O       6.1397512377     0.0867107413     0.8483633765
   13      C       6.3432796271     0.7201940590     2.1026781563
   14      H       3.0298923274     3.5710564699    -0.5053541467
   15      H       1.3636374706     2.9378478149    -0.4770626264
   16      H       2.2867578345     2.9338991959    -1.9799787994
   17      H       5.6947225037    -2.7669373916    -1.1543358896
   18      H       5.3537442414    -4.0456684988     0.0442557759
   19      H       4.0186715546    -3.3904887819    -0.9587065644
   20      H       6.0623370847     1.7758144423     2.0501004477
   21      H       7.4108075624     0.6269443049     2.3303321885
   22      H       5.7671911140     0.2133430906     2.8918279457
   23      C       0.8753694033     0.2353606629    -1.3619337567
   24      C      -0.2650412429     0.1774600552    -0.3248699890
   25      C      -1.6597275281     0.1195216545    -0.9615774549
   26      C      -2.8140036120     0.0730160211     0.0482201506
   27      C      -4.2048584951     0.0266091265    -0.5989136995
   28      C      -5.3661009187    -0.0094693852     0.4029972006
   29      C      -6.7521615662    -0.0453229562    -0.2547845294
   30      C      -7.9170988119    -0.0752665047     0.7426089875
   31      C      -9.3000459581    -0.1058425071     0.0781228079
   32      C     -10.4633834989    -0.1336453498     1.0737653145
   33      H       0.7967964731    -0.6614081678    -1.9871774570
   34      H       0.7238977868     1.1089440645    -2.0077134983
   35      H      -0.2016775339     1.0517580089     0.3362265019
   36      H      -0.1052010675    -0.7070290443     0.3001557579
   37      H      -1.7168449963    -0.7627626873    -1.6133979518
   38      H      -1.7953967775     0.9911459017    -1.6184775666
   39      H      -2.7528566749     0.9501191744     0.7067726745
   40      H      -2.6875717790    -0.8024287093     0.6985646280
   41      H      -4.2673888941    -0.8530195603    -1.2536802851
   42      H      -4.3247810515     0.8994652037    -1.2552078241
   43      H      -5.3024919446     0.8672679552     1.0613457417
   44      H      -5.2533918569    -0.8851467788     1.0559097499
   45      H      -6.8168895932    -0.9235702557    -0.9110276448
   46      H      -6.8620395950     0.8292674137    -0.9100421935
   47      H      -7.8546416669     0.8014212840     1.4006223980
   48      H      -7.8134570555    -0.9509425752     1.3966934401
   49      H      -9.3641916809    -0.9822017865    -0.5796540720
   50      H      -9.4040750855     0.7688241626    -0.5768489145
   51      H     -10.4176989009    -1.0179165366     1.7198780349
   52      H     -11.4329333313    -0.1546700000     0.5646919784
   53      H     -10.4577235987     0.7501550823     1.7221368624
 ----------------------------------------------------------------

   55   -1043.2450457126      1.26e-09  Convergence criterion met
 Total energy in the final basis set =    -1043.2450457126
   11   -1043.5037898463      9.51e-09  Convergence criterion met
 Total energy in the final basis set =    -1043.5037898463

                    Orbital Energies (a.u.)
 --------------------------------------------------------------

 Alpha MOs
 -- Occupied --
-19.1097 -19.1095 -19.0116 -19.0101 -10.1869 -10.1869 -10.1659 -10.1652
-10.1610 -10.1599 -10.1569 -10.1543 -10.1540 -10.1534 -10.1525 -10.1509
-10.1506 -10.1478 -10.1415 -10.1344 -10.1310 -10.1192 -10.1157  -1.0297
 -1.0121  -0.9310  -0.9281  -0.8041  -0.7904  -0.7793  -0.7584  -0.7361
 -0.7189  -0.6891  -0.6776  -0.6689  -0.6466  -0.6151  -0.6058  -0.5877
 -0.5703  -0.5663  -0.5606  -0.5271  -0.5187  -0.4809  -0.4764  -0.4648
 -0.4561  -0.4534  -0.4411  -0.4346  -0.4262  -0.4239  -0.4186  -0.4128
 -0.4120  -0.4030  -0.3988  -0.3897  -0.3814  -0.3768  -0.3737  -0.3605
 -0.3597  -0.3536  -0.3489  -0.3448  -0.3420  -0.3318  -0.3293  -0.3256
 -0.3220  -0.3199  -0.3166  -0.3142  -0.3134  -0.3117  -0.3095  -0.3052
 -0.2986  -0.2895  -0.2589  -0.2557  -0.2152  -0.1919  -0.1883  -0.1829
 -0.1072

          Ground-State Mulliken Net Atomic Charges

     Atom                 Charge (a.u.)
  ----------------------------------------
      1 C                     1.031309
      2 C                     0.789253
      3 C                    -0.613944
      4 C                    -0.482721
      5 O                    -0.747619
      6 C                    -0.267058
      7 C                    -0.343141
      8 O                    -0.245187
      9 C                    -0.246586
     10 C                    -0.720598
     11 O                    -0.713164
     12 O                    -0.234072
     13 C                    -0.251185
     14 H                     0.163380
     15 H                     0.143182
     16 H                     0.152311
     17 H                     0.121134
     18 H                     0.147199
     19 H                     0.170095
     20 H                     0.172057
     21 H                     0.151861
     22 H                     0.123686
     23 C                    -0.337040
     24 C                    -0.907073
     25 C                    -0.287206
     26 C                    -0.031226
     27 C                     0.061421
     28 C                    -0.035112
     29 C                    -0.237435
     30 C                    -0.451689
     31 C                    -0.287043
     32 C                    -0.717975
     33 H                     0.182213
     34 H                     0.147165
     35 H                     0.132719
     36 H                     0.203324
     37 H                     0.125274
     38 H                     0.108358
     39 H                     0.130336
     40 H                     0.127043
     41 H                     0.133142
     42 H                     0.134017
     43 H                     0.133600
     44 H                     0.135296
     45 H                     0.131347
     46 H                     0.130383
     47 H                     0.128892
     48 H                     0.129257
     49 H                     0.136326
     50 H                     0.136155
     51 H                     0.145819
     52 H                     0.153608
     53 H                     0.145908
  ----------------------------------------
  Sum of atomic charges =    -2.000000

                    Cartesian Multipole Moments
 -----------------------------------------------------------------
    Charge (ESU x 10^10)
                -9.6064
    Dipole Moment (Debye)
         X     -35.7997      Y      -0.9497      Z       0.8913
       Tot      35.8234
    Quadrupole Moments (Debye-Ang)
        XX    -315.3897     XY     -25.6416     YY    -196.0657
        XZ      -0.9139     YZ      -0.3035     ZZ    -155.7854

 Total job time:  1257.06s(wall), 9763.34s(cpu)
        *  Thank you very much for using Q-Chem.  Have a nice day.  *
