 Q-Chem 5.4, Q-Chem, Inc., Pleasanton, CA (2021)
 Q-Chem 5.4.0 for Intel X86 EM64T Linux

User input:
--------------------------------------------------------------
$molecule
-2 1
C                  2.9981910000     -2.4719480000     -3.4581330000
C                  2.4830520000     -3.2224560000     -4.5002500000
C                  1.1660580000     -2.9781160000     -4.9564860000
C                  2.2417940000     -1.4594900000     -2.8279630000
C                  0.9077010000     -1.2150490000     -3.2881940000
C                  0.4045610000     -1.9923450000     -4.3539240000
C                  2.8309510000     -0.6888390000     -1.7337740000
C                  1.9793760000      0.3134490000     -1.1477570000
C                  0.6746410000      0.5588400000     -1.6092490000
C                  0.0706950000     -0.1817260000     -2.6834650000
O                  4.0284380000     -0.9058950000     -1.3383770000
O                 -1.1177890000      0.0489120000     -3.0978610000
H                  3.0866580000     -3.9978980000     -4.9671990000
H                  0.7547290000     -3.5644560000     -5.7753690000
C                  2.5667360000      1.1099340000     -0.0061950000
H                  4.0046290000     -2.6337160000     -3.0860130000
H                 -0.6092130000     -1.7809900000     -4.6783590000
H                  2.7848200000      2.1500520000     -0.2936960000
H                  3.5086730000      0.6462630000      0.2924950000
H                  1.8929690000      1.1531330000      0.8576450000
C                 -0.1813740000      1.6674000000     -1.0161000000
C                 -1.0797460000      1.2110840000      0.1084350000
C                 -1.3094640000      1.7839070000      1.3009160000
C                 -2.3044870000      1.1768750000      2.2740260000
C                 -0.6576550000      3.0665170000      1.7653170000
C                 -1.7000200000      0.6983490000      3.6188860000
C                 -2.7245700000      0.0649150000      4.5207200000
C                 -3.1321130000      0.4495450000      5.7391290000
C                 -2.6093250000      1.6508070000      6.4888170000
C                 -4.1978300000     -0.3173170000      6.4866960000
H                 -0.8393160000      2.0080160000     -1.8268150000
H                  0.4410600000      2.5099800000     -0.7048470000
H                 -1.6248840000      0.2984320000     -0.1260620000
H                 -2.8043630000      0.3305790000      1.7917570000
H                 -3.0893830000      1.9126690000      2.5041630000
H                 -0.0254640000      3.5104060000      0.9966310000
H                 -0.0334110000      2.9081390000      2.6538580000
H                 -1.4182700000      3.8075470000      2.0475950000
H                 -1.2052500000      1.5331180000      4.1196140000
H                 -0.9160960000     -0.0356860000      3.3913340000
H                 -3.2016440000     -0.8225860000      4.1034030000
H                 -1.8533620000      2.2129180000      5.9386430000
H                 -2.1726400000      1.3453160000      7.4486350000
H                 -3.4304390000      2.3372670000      6.7356580000
H                 -4.5536690000     -1.1863280000      5.9259310000
H                 -5.0635770000      0.3220290000      6.7086110000
H                 -3.8260430000     -0.6685770000      7.4581720000
$end
$rem
MAX_SCF_CYCLES=200
BASIS  =  6-311++G(d,p)
GUI  =  2
JOB_TYPE  =  SP
METHOD  =  B3LYP
SCF_ALGORITHM = DIIS_GDM
THRESH = 14
SOLVENT_METHOD = PCM
$end
$pcm
theory = CPCM
$end
$solvent
dielectric 37.219
opticaldielectric 1.43
$end

--------------------------------------------------------------

             Standard Nuclear Orientation (Angstroms)
    I     Atom           X                Y                Z
 ----------------------------------------------------------------
    1      C       2.9981910000    -2.4719480000    -3.4581330000
    2      C       2.4830520000    -3.2224560000    -4.5002500000
    3      C       1.1660580000    -2.9781160000    -4.9564860000
    4      C       2.2417940000    -1.4594900000    -2.8279630000
    5      C       0.9077010000    -1.2150490000    -3.2881940000
    6      C       0.4045610000    -1.9923450000    -4.3539240000
    7      C       2.8309510000    -0.6888390000    -1.7337740000
    8      C       1.9793760000     0.3134490000    -1.1477570000
    9      C       0.6746410000     0.5588400000    -1.6092490000
   10      C       0.0706950000    -0.1817260000    -2.6834650000
   11      O       4.0284380000    -0.9058950000    -1.3383770000
   12      O      -1.1177890000     0.0489120000    -3.0978610000
   13      H       3.0866580000    -3.9978980000    -4.9671990000
   14      H       0.7547290000    -3.5644560000    -5.7753690000
   15      C       2.5667360000     1.1099340000    -0.0061950000
   16      H       4.0046290000    -2.6337160000    -3.0860130000
   17      H      -0.6092130000    -1.7809900000    -4.6783590000
   18      H       2.7848200000     2.1500520000    -0.2936960000
   19      H       3.5086730000     0.6462630000     0.2924950000
   20      H       1.8929690000     1.1531330000     0.8576450000
   21      C      -0.1813740000     1.6674000000    -1.0161000000
   22      C      -1.0797460000     1.2110840000     0.1084350000
   23      C      -1.3094640000     1.7839070000     1.3009160000
   24      C      -2.3044870000     1.1768750000     2.2740260000
   25      C      -0.6576550000     3.0665170000     1.7653170000
   26      C      -1.7000200000     0.6983490000     3.6188860000
   27      C      -2.7245700000     0.0649150000     4.5207200000
   28      C      -3.1321130000     0.4495450000     5.7391290000
   29      C      -2.6093250000     1.6508070000     6.4888170000
   30      C      -4.1978300000    -0.3173170000     6.4866960000
   31      H      -0.8393160000     2.0080160000    -1.8268150000
   32      H       0.4410600000     2.5099800000    -0.7048470000
   33      H      -1.6248840000     0.2984320000    -0.1260620000
   34      H      -2.8043630000     0.3305790000     1.7917570000
   35      H      -3.0893830000     1.9126690000     2.5041630000
   36      H      -0.0254640000     3.5104060000     0.9966310000
   37      H      -0.0334110000     2.9081390000     2.6538580000
   38      H      -1.4182700000     3.8075470000     2.0475950000
   39      H      -1.2052500000     1.5331180000     4.1196140000
   40      H      -0.9160960000    -0.0356860000     3.3913340000
   41      H      -3.2016440000    -0.8225860000     4.1034030000
   42      H      -1.8533620000     2.2129180000     5.9386430000
   43      H      -2.1726400000     1.3453160000     7.4486350000
   44      H      -3.4304390000     2.3372670000     6.7356580000
   45      H      -4.5536690000    -1.1863280000     5.9259310000
   46      H      -5.0635770000     0.3220290000     6.7086110000
   47      H      -3.8260430000    -0.6685770000     7.4581720000
 ----------------------------------------------------------------

   16    -965.6227751336      1.23e-06  Convergence criterion met
 Total energy in the final basis set =     -965.6227751336

                    Orbital Energies (a.u.)
 --------------------------------------------------------------

 Alpha MOs
 -- Occupied --
-19.0143 -19.0130 -10.1716 -10.1632 -10.1631 -10.1601 -10.1591 -10.1576
-10.1555 -10.1552 -10.1542 -10.1504 -10.1471 -10.1460 -10.1455 -10.1428
-10.1425 -10.1408 -10.1313 -10.1310 -10.1306 -10.1220 -10.1210  -0.9375
 -0.9342  -0.8227  -0.8159  -0.8002  -0.7758  -0.7455  -0.7232  -0.7192
 -0.7068  -0.6850  -0.6741  -0.6615  -0.6332  -0.6160  -0.5942  -0.5664
 -0.5508  -0.5179  -0.5130  -0.4998  -0.4770  -0.4642  -0.4614  -0.4472
 -0.4338  -0.4285  -0.4272  -0.4230  -0.4092  -0.4040  -0.3978  -0.3952
 -0.3839  -0.3816  -0.3770  -0.3686  -0.3666  -0.3642  -0.3629  -0.3608
 -0.3599  -0.3539  -0.3478  -0.3429  -0.3302  -0.3291  -0.3225  -0.3146
 -0.3109  -0.3059  -0.3002  -0.2994  -0.2359  -0.2275  -0.2250  -0.2202
 -0.2010  -0.1989  -0.1880  -0.1038

          Ground-State Mulliken Net Atomic Charges

     Atom                 Charge (a.u.)
  ----------------------------------------
      1 C                     0.038250
      2 C                    -0.530469
      3 C                    -0.482581
      4 C                     0.004698
      5 C                     0.124128
      6 C                    -0.082434
      7 C                    -0.613628
      8 C                     0.568988
      9 C                     0.855350
     10 C                    -0.820261
     11 O                    -0.713677
     12 O                    -0.693667
     13 H                     0.164045
     14 H                     0.167869
     15 C                    -0.514626
     16 H                     0.145933
     17 H                     0.144125
     18 H                     0.156979
     19 H                     0.154405
     20 H                     0.151042
     21 C                    -0.088507
     22 C                    -0.735100
     23 C                     0.929835
     24 C                    -0.923455
     25 C                    -0.840321
     26 C                    -0.283906
     27 C                    -0.070307
     28 C                     0.413058
     29 C                    -0.700737
     30 C                    -0.646121
     31 H                     0.160988
     32 H                     0.185505
     33 H                     0.215222
     34 H                     0.136121
     35 H                     0.166603
     36 H                     0.121640
     37 H                     0.166763
     38 H                     0.161618
     39 H                     0.133222
     40 H                     0.164397
     41 H                     0.183102
     42 H                     0.147643
     43 H                     0.151832
     44 H                     0.156348
     45 H                     0.161514
     46 H                     0.158303
     47 H                     0.150275
  ----------------------------------------
  Sum of atomic charges =    -2.000000

                    Cartesian Multipole Moments
 -----------------------------------------------------------------
    Charge (ESU x 10^10)
                -9.6064
    Dipole Moment (Debye)
         X     -13.8832      Y       6.4066      Z      22.9251
       Tot      27.5562
    Quadrupole Moments (Debye-Ang)
        XX    -222.4826     XY      19.6246     YY    -159.6324
        XZ      16.1307     YZ     -12.2723     ZZ    -211.4126

 Total job time:  401.79s(wall), 2742.83s(cpu)
        *  Thank you very much for using Q-Chem.  Have a nice day.  *
