 Gaussian 16, Revision A.03,
 Gaussian 16:  ES64L-G16RevA.03 25-Dec-2016

 --------------------------------------
 #P UB3LYP/6-311++G(d,p) nosym opt freq
 --------------------------------------

 -------
 Reduced
 -------
 Symbolic Z-matrix:
 Charge = -2 Multiplicity = 1

 SCF Done:  E(UB3LYP) =  -965.367914995     A.U. after   49 cycles
 Optimization completed.
    -- Stationary point found.
 Normal termination of Gaussian 16 at Sun Jan  7 21:00:18 2024.

 ----------------------------------------------------------------------
 #P Geom=AllCheck Guess=TCheck SCRF=Check GenChk UB3LYP/6-311++G(d,p) F
 req
 ----------------------------------------------------------------------

 Structure from the checkpoint file:  "251-an.chk"
 -------
 Reduced
 -------
 Charge = -2 Multiplicity = 1

                          Input orientation:
 ---------------------------------------------------------------------
 Center     Atomic      Atomic             Coordinates (Angstroms)
 Number     Number       Type             X           Y           Z
 ---------------------------------------------------------------------
      1          6           0        2.998191   -2.471948   -3.458133
      2          6           0        2.483052   -3.222456   -4.500250
      3          6           0        1.166058   -2.978116   -4.956486
      4          6           0        2.241794   -1.459490   -2.827963
      5          6           0        0.907701   -1.215049   -3.288194
      6          6           0        0.404561   -1.992345   -4.353924
      7          6           0        2.830951   -0.688839   -1.733774
      8          6           0        1.979376    0.313449   -1.147757
      9          6           0        0.674641    0.558840   -1.609249
     10          6           0        0.070695   -0.181726   -2.683465
     11          8           0        4.028438   -0.905895   -1.338377
     12          8           0       -1.117789    0.048912   -3.097861
     13          1           0        3.086658   -3.997898   -4.967199
     14          1           0        0.754729   -3.564456   -5.775369
     15          6           0        2.566736    1.109934   -0.006195
     16          1           0        4.004629   -2.633716   -3.086013
     17          1           0       -0.609213   -1.780990   -4.678359
     18          1           0        2.784820    2.150052   -0.293696
     19          1           0        3.508673    0.646263    0.292495
     20          1           0        1.892969    1.153133    0.857645
     21          6           0       -0.181374    1.667400   -1.016100
     22          6           0       -1.079746    1.211084    0.108435
     23          6           0       -1.309464    1.783907    1.300916
     24          6           0       -2.304487    1.176875    2.274026
     25          6           0       -0.657655    3.066517    1.765317
     26          6           0       -1.700020    0.698349    3.618886
     27          6           0       -2.724570    0.064915    4.520720
     28          6           0       -3.132113    0.449545    5.739129
     29          6           0       -2.609325    1.650807    6.488817
     30          6           0       -4.197830   -0.317317    6.486696
     31          1           0       -0.839316    2.008016   -1.826815
     32          1           0        0.441060    2.509980   -0.704847
     33          1           0       -1.624884    0.298432   -0.126062
     34          1           0       -2.804363    0.330579    1.791757
     35          1           0       -3.089383    1.912669    2.504163
     36          1           0       -0.025464    3.510406    0.996631
     37          1           0       -0.033411    2.908139    2.653858
     38          1           0       -1.418270    3.807547    2.047595
     39          1           0       -1.205250    1.533118    4.119614
     40          1           0       -0.916096   -0.035686    3.391334
     41          1           0       -3.201644   -0.822586    4.103403
     42          1           0       -1.853362    2.212918    5.938643
     43          1           0       -2.172640    1.345316    7.448635
     44          1           0       -3.430439    2.337267    6.735658
     45          1           0       -4.553669   -1.186328    5.925931
     46          1           0       -5.063577    0.322029    6.708611
     47          1           0       -3.826043   -0.668577    7.458172
 ---------------------------------------------------------------------

 SCF Done:  E(UB3LYP) =  -965.367914995     A.U. after    5 cycles

 Alpha  occ. eigenvalues --  -18.82751 -18.82568 -10.02282 -10.01205 -10.01080
 Alpha  occ. eigenvalues --  -10.00657 -10.00605 -10.00074  -9.99584  -9.99026
 Alpha  occ. eigenvalues --   -9.98166  -9.98089  -9.97662  -9.96634  -9.96586
 Alpha  occ. eigenvalues --   -9.96270  -9.95739  -9.95705  -9.94842  -9.94640
 Alpha  occ. eigenvalues --   -9.94597  -9.94128  -9.94075  -0.74610  -0.74198
 Alpha  occ. eigenvalues --   -0.66385  -0.63940  -0.63680  -0.59986  -0.58279
 Alpha  occ. eigenvalues --   -0.54622  -0.54094  -0.53281  -0.52926  -0.51988
 Alpha  occ. eigenvalues --   -0.48918  -0.46253  -0.43762  -0.42652  -0.38382
 Alpha  occ. eigenvalues --   -0.36992  -0.36463  -0.33693  -0.32855  -0.31502
 Alpha  occ. eigenvalues --   -0.29891  -0.29147  -0.28102  -0.27863  -0.27463
 Alpha  occ. eigenvalues --   -0.26245  -0.24811  -0.24164  -0.23354  -0.23345
 Alpha  occ. eigenvalues --   -0.23126  -0.21818  -0.21512  -0.21018  -0.20749
 Alpha  occ. eigenvalues --   -0.20241  -0.19627  -0.19504  -0.18375  -0.18205
 Alpha  occ. eigenvalues --   -0.17553  -0.17125  -0.16768  -0.16129  -0.15607
 Alpha  occ. eigenvalues --   -0.14583  -0.14382  -0.12089  -0.11847  -0.11700
 Alpha  occ. eigenvalues --   -0.11096  -0.08404  -0.05280  -0.03695  -0.02777
 Alpha  occ. eigenvalues --   -0.01325  -0.00350   0.00537   0.09741
 Alpha virt. eigenvalues --    0.10658   0.12421   0.13344   0.14056   0.14231
 Alpha virt. eigenvalues --    0.14975   0.15568   0.16080   0.16114   0.16832
 Alpha virt. eigenvalues --    0.17027   0.17590   0.18091   0.18212   0.18455

  Beta  occ. eigenvalues --  -18.82751 -18.82568 -10.02282 -10.01205 -10.01080
  Beta  occ. eigenvalues --  -10.00657 -10.00605 -10.00074  -9.99584  -9.99026
  Beta  occ. eigenvalues --   -9.98166  -9.98089  -9.97662  -9.96634  -9.96586
  Beta  occ. eigenvalues --   -9.96270  -9.95739  -9.95705  -9.94842  -9.94640
  Beta  occ. eigenvalues --   -9.94597  -9.94128  -9.94075  -0.74610  -0.74198
  Beta  occ. eigenvalues --   -0.66385  -0.63940  -0.63680  -0.59986  -0.58279
  Beta  occ. eigenvalues --   -0.54622  -0.54094  -0.53281  -0.52926  -0.51988
  Beta  occ. eigenvalues --   -0.48918  -0.46253  -0.43762  -0.42652  -0.38382
  Beta  occ. eigenvalues --   -0.36992  -0.36463  -0.33693  -0.32855  -0.31502
  Beta  occ. eigenvalues --   -0.29891  -0.29147  -0.28102  -0.27863  -0.27463
  Beta  occ. eigenvalues --   -0.26245  -0.24811  -0.24164  -0.23354  -0.23345
  Beta  occ. eigenvalues --   -0.23126  -0.21818  -0.21512  -0.21018  -0.20749
  Beta  occ. eigenvalues --   -0.20241  -0.19627  -0.19504  -0.18375  -0.18205
  Beta  occ. eigenvalues --   -0.17553  -0.17125  -0.16768  -0.16129  -0.15607
  Beta  occ. eigenvalues --   -0.14583  -0.14382  -0.12089  -0.11847  -0.11700
  Beta  occ. eigenvalues --   -0.11096  -0.08404  -0.05280  -0.03695  -0.02777
  Beta  occ. eigenvalues --   -0.01325  -0.00350   0.00537   0.09741
  Beta virt. eigenvalues --    0.10658   0.12421   0.13344   0.14056   0.14231
  Beta virt. eigenvalues --    0.14975   0.15568   0.16080   0.16114   0.16832
  Beta virt. eigenvalues --    0.17027   0.17590   0.18091   0.18212   0.18455

 Mulliken charges and spin densities:
               1          2
     1  C    0.035267  -0.000000
     2  C   -0.419647  -0.000000
     3  C   -0.357342   0.000000
     4  C    0.210631   0.000000
     5  C    0.288989   0.000000
     6  C   -0.093209  -0.000000
     7  C   -0.972622   0.000000
     8  C    0.858937   0.000000
     9  C    1.052148   0.000000
    10  C   -1.167976  -0.000000
    11  O   -0.467101  -0.000000
    12  O   -0.445607  -0.000000
    13  H    0.086061   0.000000
    14  H    0.091049  -0.000000
    15  C   -0.574639  -0.000000
    16  H    0.145657  -0.000000
    17  H    0.143809  -0.000000
    18  H    0.118861  -0.000000
    19  H    0.181999   0.000000
    20  H    0.125088   0.000000
    21  C   -0.200955  -0.000000
    22  C   -0.656973  -0.000000
    23  C    1.022490  -0.000000
    24  C   -0.914218   0.000000
    25  C   -0.669036  -0.000000
    26  C   -0.621726   0.000000
    27  C    1.849124  -0.000000
    28  C   -2.138844   0.000000
    29  C    0.152978  -0.000000
    30  C    1.441435  -0.000000
    31  H    0.196976  -0.000000
    32  H    0.138502   0.000000
    33  H    0.235494  -0.000000
    34  H    0.082294  -0.000000
    35  H    0.103739   0.000000
    36  H    0.131736  -0.000000
    37  H    0.061377   0.000000
    38  H    0.074107   0.000000
    39  H    0.380667  -0.000000
    40  H    0.085381   0.000000
    41  H    0.299034  -0.000000
    42  H   -0.350531   0.000000
    43  H   -0.155766   0.000000
    44  H   -0.266379   0.000000
    45  H   -0.469046   0.000000
    46  H   -0.350549   0.000000
    47  H   -0.301666   0.000000
 Sum of Mulliken charges =  -2.00000   0.00000

 Dipole moment (field-independent basis, Debye):
    X=              0.8842    Y=              2.5268    Z=             -3.1059  Tot=              4.1004
 Quadrupole moment (field-independent basis, Debye-Ang):
   XX=           -262.5277   YY=           -183.7019   ZZ=           -359.7474
   XY=             21.9093   XZ=             93.7525   YZ=            -31.2703

  Exact polarizability:1672.258 159.5761403.082******** 326.3982680.020
 Approx polarizability:****************1801.471********3856.097********

                      1                      2                      3
                      A                      A                      A
 Frequencies --     12.0897                17.2146                25.1195
 Red. masses --      4.5133                 4.6027                 3.0432
 Frc consts  --      0.0004                 0.0008                 0.0011
 IR Inten    --      0.2902                 0.7707                 0.1820

                      4                      5                      6
                      A                      A                      A
 Frequencies --     38.1191                46.5035                57.7840
 Red. masses --      3.2447                 3.6788                 4.4575
 Frc consts  --      0.0028                 0.0047                 0.0088
 IR Inten    --      2.2627                 0.7850                 1.9132

                      7                      8                      9
                      A                      A                      A
 Frequencies --     80.4314                86.2637               106.5578
 Red. masses --      2.4146                 3.7252                 1.8080
 Frc consts  --      0.0092                 0.0163                 0.0121
 IR Inten    --      1.4193                 3.2777                 0.4993

                     10                     11                     12
                      A                      A                      A
 Frequencies --    120.1420               132.8302               137.1743
 Red. masses --      1.1184                 1.3605                 1.5391
 Frc consts  --      0.0095                 0.0141                 0.0171
 IR Inten    --      0.1594                 1.7163                 1.7380

                     13                     14                     15
                      A                      A                      A
 Frequencies --    150.7723               174.6610               190.4828
 Red. masses --      2.4857                 2.8781                 2.6995
 Frc consts  --      0.0333                 0.0517                 0.0577
 IR Inten    --      0.4113                 2.5955                 2.3469

                     16                     17                     18
                      A                      A                      A
 Frequencies --    206.4283               220.9276               248.4800
 Red. masses --      1.9172                 2.2286                 3.2261
 Frc consts  --      0.0481                 0.0641                 0.1174
 IR Inten    --      3.9268                 5.8242                 2.9356

                     19                     20                     21
                      A                      A                      A
 Frequencies --    259.8469               288.7952               299.2759
 Red. masses --      4.4347                 2.8010                 3.2856
 Frc consts  --      0.1764                 0.1376                 0.1734
 IR Inten    --      3.7618                 9.5554                 5.1871

                     22                     23                     24
                      A                      A                      A
 Frequencies --    324.3284               344.3343               356.3637
 Red. masses --      2.5911                 3.2756                 2.6469
 Frc consts  --      0.1606                 0.2288                 0.1980
 IR Inten    --      1.4577                 0.8327                 4.9730

                     25                     26                     27
                      A                      A                      A
 Frequencies --    380.0765               387.9928               396.4754
 Red. masses --      7.3957                 3.6658                 2.3914
 Frc consts  --      0.6295                 0.3251                 0.2215
 IR Inten    --     53.8883                 6.4863                 7.0891

                     28                     29                     30
                      A                      A                      A
 Frequencies --    416.8470               425.9657               446.3862
 Red. masses --      3.3258                 6.0895                 3.3582
 Frc consts  --      0.3405                 0.6510                 0.3943
 IR Inten    --     28.9330               285.2352                32.9084

                     31                     32                     33
                      A                      A                      A
 Frequencies --    456.8543               471.9335               490.9925
 Red. masses --      3.0193                 3.8026                 2.7183
 Frc consts  --      0.3713                 0.4990                 0.3861
 IR Inten    --    111.6640               152.5791                38.1696

                     34                     35                     36
                      A                      A                      A
 Frequencies --    508.7819               535.1443               558.2348
 Red. masses --      5.4352                 3.6325                 4.0073
 Frc consts  --      0.8289                 0.6129                 0.7358
 IR Inten    --    337.2321                67.7930                18.3041

                     37                     38                     39
                      A                      A                      A
 Frequencies --    580.8569               638.2299               669.8289
 Red. masses --      2.8123                 4.6810                 5.0156
 Frc consts  --      0.5590                 1.1234                 1.3259
 IR Inten    --     19.4380                14.4799                 1.9387

                     40                     41                     42
                      A                      A                      A
 Frequencies --    676.8320               683.8124               705.3779
 Red. masses --      4.6085                 3.2109                 2.5316
 Frc consts  --      1.2439                 0.8846                 0.7421
 IR Inten    --      4.0939                19.9888                31.8610

                     43                     44                     45
                      A                      A                      A
 Frequencies --    751.6151               763.0156               785.3782
 Red. masses --      1.5690                 2.2109                 2.7307
 Frc consts  --      0.5222                 0.7584                 0.9924
 IR Inten    --      6.2622                19.9540                 0.0646

                     46                     47                     48
                      A                      A                      A
 Frequencies --    795.7556               812.3397               830.5272
 Red. masses --      2.3294                 2.3888                 2.3895
 Frc consts  --      0.8691                 0.9288                 0.9711
 IR Inten    --      2.9084                 5.3262                 1.2141

                     49                     50                     51
                      A                      A                      A
 Frequencies --    838.8738               851.8060               869.3493
 Red. masses --      1.8853                 2.0069                 1.7246
 Frc consts  --      0.7817                 0.8579                 0.7680
 IR Inten    --      0.2016                13.5428                 4.3449

                     52                     53                     54
                      A                      A                      A
 Frequencies --    915.4974               957.8650               961.9177
 Red. masses --      2.3399                 1.4752                 1.8488
 Frc consts  --      1.1555                 0.7975                 1.0079
 IR Inten    --     32.5990                 6.0941                34.9357

                     55                     56                     57
                      A                      A                      A
 Frequencies --    962.3791               965.5815               980.6772
 Red. masses --      1.4450                 1.3759                 1.9737
 Frc consts  --      0.7885                 0.7558                 1.1184
 IR Inten    --     12.3828                 4.3116                 2.0894

                     58                     59                     60
                      A                      A                      A
 Frequencies --    989.6519               996.7208              1010.3473
 Red. masses --      2.6928                 1.9592                 2.8778
 Frc consts  --      1.5539                 1.1467                 1.7308
 IR Inten    --     25.3300                 3.2882                 8.5544

                     61                     62                     63
                      A                      A                      A
 Frequencies --   1015.0644              1024.8059              1037.9552
 Red. masses --      1.2586                 2.0766                 1.7522
 Frc consts  --      0.7640                 1.2849                 1.1122
 IR Inten    --      4.4434               392.3978                 5.2836

                     64                     65                     66
                      A                      A                      A
 Frequencies --   1044.0776              1061.5019              1075.5440
 Red. masses --      1.7786                 1.5692                 2.0730
 Frc consts  --      1.1424                 1.0418                 1.4129
 IR Inten    --     23.1196                 0.8030                 7.6530

                     67                     68                     69
                      A                      A                      A
 Frequencies --   1097.4793              1097.9394              1101.4092
 Red. masses --      1.6471                 2.0794                 2.0797
 Frc consts  --      1.1688                 1.4769                 1.4864
 IR Inten    --      3.9519                 0.7550                29.6775

                     70                     71                     72
                      A                      A                      A
 Frequencies --   1125.1868              1132.0119              1160.2559
 Red. masses --      2.0987                 1.4211                 2.2523
 Frc consts  --      1.5655                 1.0730                 1.7864
 IR Inten    --     52.0639               165.8704               211.6407

                     73                     74                     75
                      A                      A                      A
 Frequencies --   1168.2255              1186.9780              1206.5197
 Red. masses --      1.7222                 1.9131                 1.9839
 Frc consts  --      1.3848                 1.5881                 1.7015
 IR Inten    --    220.2858                89.7434                15.4605

                     76                     77                     78
                      A                      A                      A
 Frequencies --   1228.3781              1240.9999              1260.3453
 Red. masses --      2.8430                 1.8705                 1.8655
 Frc consts  --      2.5275                 1.6973                 1.7459
 IR Inten    --     17.6916                19.8249                47.0814

                     79                     80                     81
                      A                      A                      A
 Frequencies --   1270.8650              1278.9200              1304.6397
 Red. masses --      1.7620                 1.4319                 1.3461
 Frc consts  --      1.6767                 1.3799                 1.3499
 IR Inten    --      7.6377                 6.6746                29.7021

                     82                     83                     84
                      A                      A                      A
 Frequencies --   1311.0628              1346.0165              1350.7535
 Red. masses --      1.2004                 8.6169                 1.4327
 Frc consts  --      1.2157                 9.1982                 1.5402
 IR Inten    --     18.3431               817.2539                66.7937

                     85                     86                     87
                      A                      A                      A
 Frequencies --   1365.1331              1377.3398              1382.1021
 Red. masses --      1.3907                 1.2887                 1.3102
 Frc consts  --      1.5270                 1.4404                 1.4746
 IR Inten    --     75.2685                31.5586                 4.7805

                     88                     89                     90
                      A                      A                      A
 Frequencies --   1394.7951              1405.8660              1408.0327
 Red. masses --      1.3961                 1.4040                 2.4735
 Frc consts  --      1.6003                 1.6350                 2.8893
 IR Inten    --   1049.2089                78.5888                46.8448

                     91                     92                     93
                      A                      A                      A
 Frequencies --   1411.1419              1432.4489              1443.1210
 Red. masses --      1.2581                 1.9692                 3.8200
 Frc consts  --      1.4761                 2.3806                 4.6872
 IR Inten    --    212.9310               835.5914              1957.8046

                     94                     95                     96
                      A                      A                      A
 Frequencies --   1454.0127              1463.0506              1469.0476
 Red. masses --      3.0859                 1.8313                 1.0531
 Frc consts  --      3.8438                 2.3095                 1.3391
 IR Inten    --    293.3806               234.1560                45.4690

                     97                     98                     99
                      A                      A                      A
 Frequencies --   1469.8966              1476.5350              1481.2969
 Red. masses --      1.0682                 1.0799                 1.2661
 Frc consts  --      1.3598                 1.3872                 1.6368
 IR Inten    --      8.0363                22.5121               254.7524

                    100                    101                    102
                      A                      A                      A
 Frequencies --   1483.0498              1487.9134              1489.3501
 Red. masses --      1.0785                 1.0762                 1.0456
 Frc consts  --      1.3976                 1.4037                 1.3665
 IR Inten    --     95.6223                31.9827               193.8646

                    103                    104                    105
                      A                      A                      A
 Frequencies --   1490.7327              1494.7703              1497.9045
 Red. masses --      1.0778                 1.2916                 1.0945
 Frc consts  --      1.4112                 1.7003                 1.4469
 IR Inten    --     39.0910               503.1365                24.5360

                    106                    107                    108
                      A                      A                      A
 Frequencies --   1504.0950              1511.1386              1577.7199
 Red. masses --      3.3663                 2.4334                 7.1407
 Frc consts  --      4.4870                 3.2740                10.4725
 IR Inten    --    361.4923              1459.4236              4691.4345

                    109                    110                    111
                      A                      A                      A
 Frequencies --   1599.1709              1698.5859              1719.4542
 Red. masses --      5.5927                 6.5402                 6.4310
 Frc consts  --      8.4268                11.1178                11.2024
 IR Inten    --      2.9520                 1.8541                14.7907

                    112                    113                    114
                      A                      A                      A
 Frequencies --   2952.9688              2969.2358              2973.2742
 Red. masses --      1.0577                 1.0682                 1.0407
 Frc consts  --      5.4340                 5.5486                 5.4208
 IR Inten    --    225.3348                 5.0262                10.5844

                    115                    116                    117
                      A                      A                      A
 Frequencies --   2982.4362              2985.5604              2990.5284
 Red. masses --      1.0431                 1.0459                 1.0653
 Frc consts  --      5.4664                 5.4928                 5.6133
 IR Inten    --     13.4097                23.9386               147.1746

                    118                    119                    120
                      A                      A                      A
 Frequencies --   3004.0451              3009.9771              3014.7068
 Red. masses --      1.0707                 1.0952                 1.0965
 Frc consts  --      5.6931                 5.8463                 5.8716
 IR Inten    --      0.6070                41.8579                17.4061

                    121                    122                    123
                      A                      A                      A
 Frequencies --   3015.4137              3017.7475              3042.4112
 Red. masses --      1.0825                 1.0938                 1.0901
 Frc consts  --      5.7993                 5.8688                 5.9449
 IR Inten    --     12.7110                52.8872                 0.1880

                    124                    125                    126
                      A                      A                      A
 Frequencies --   3058.7614              3070.2313              3074.7781
 Red. masses --      1.0925                 1.0981                 1.0917
 Frc consts  --      6.0226                 6.0985                 6.0812
 IR Inten    --     54.4919                23.2017                 7.2967

                    127                    128                    129
                      A                      A                      A
 Frequencies --   3093.4767              3096.0499              3102.3868
 Red. masses --      1.0947                 1.0883                 1.0930
 Frc consts  --      6.1724                 6.1464                 6.1983
 IR Inten    --     10.9172                16.4345                19.9150

                    130                    131                    132
                      A                      A                      A
 Frequencies --   3104.7059              3112.5423              3124.9072
 Red. masses --      1.0832                 1.0914                 1.0880
 Frc consts  --      6.1519                 6.2294                 6.2594
 IR Inten    --     27.5896                16.3869                 5.4370

                    133                    134                    135
                      A                      A                      A
 Frequencies --   3127.0961              3165.1832              3167.5914
 Red. masses --      1.0909                 1.0905                 1.0918
 Frc consts  --      6.2854                 6.4368                 6.4541
 IR Inten    --    310.8080                20.1524               232.1066

 - Thermochemistry -
 -------------------
 Temperature   298.150 Kelvin.  Pressure   1.00000 Atm.
 Atom     1 has atomic number  6 and mass  12.00000

 Molecular mass:   308.17763 amu.
 Principal axes and moments of inertia in atomic units:
                           1         2         3
     Eigenvalues --  3677.05444********************
           X           -0.46961   0.81153  -0.34769
           Y            0.25949   0.50330   0.82423
           Z            0.84388   0.29685  -0.44694
 This molecule is an asymmetric top.
 Rotational symmetry number  1.
 Warning -- assumption of classical behavior for rotation
           may cause significant error
 Rotational temperatures (Kelvin)      0.02356     0.00427     0.00419
 Rotational constants (GHZ):           0.49081     0.08896     0.08721
 Zero-point vibrational energy    1021404.5 (Joules/Mol)
                                  244.12154 (Kcal/Mol)
 Warning -- explicit consideration of  37 degrees of freedom as
           vibrations may cause significant error
 Vibrational temperatures:     17.39    24.77    36.14    54.84    66.91
          (Kelvin)             83.14   115.72   124.11   153.31   172.86
                              191.11   197.36   216.93   251.30   274.06
                              297.00   317.87   357.51   373.86   415.51
                              430.59   466.64   495.42   512.73   546.85
                              558.24   570.44   599.75   612.87   642.25
                              657.31   679.01   706.43   732.02   769.95
                              803.18   835.72   918.27   963.73   973.81
                              983.85  1014.88  1081.41  1097.81  1129.98
                             1144.91  1168.78  1194.94  1206.95  1225.56
                             1250.80  1317.20  1378.15  1383.98  1384.65
                             1389.26  1410.98  1423.89  1434.06  1453.66
                             1460.45  1474.47  1493.39  1502.19  1527.26
                             1547.47  1579.03  1579.69  1584.68  1618.89
                             1628.71  1669.35  1680.82  1707.80  1735.91
                             1767.36  1785.52  1813.36  1828.49  1840.08
                             1877.09  1886.33  1936.62  1943.43  1964.12
                             1981.68  1988.54  2006.80  2022.73  2025.85
                             2030.32  2060.97  2076.33  2092.00  2105.00
                             2113.63  2114.85  2124.40  2131.26  2133.78
                             2140.78  2142.84  2144.83  2150.64  2155.15
                             2164.06  2174.19  2269.99  2300.85  2443.89
                             2473.91  4248.66  4272.07  4277.88  4291.06
                             4295.56  4302.70  4322.15  4330.69  4337.49
                             4338.51  4341.87  4377.35  4400.88  4417.38
                             4423.92  4450.82  4454.53  4463.64  4466.98
                             4478.25  4496.04  4499.19  4553.99  4557.46

 Zero-point correction=                           0.389032 (Hartree/Particle)
 Thermal correction to Energy=                    0.412845
 Thermal correction to Enthalpy=                  0.413789
 Thermal correction to Gibbs Free Energy=         0.332342
 Sum of electronic and zero-point Energies=           -964.978883
 Sum of electronic and thermal Energies=              -964.955070
 Sum of electronic and thermal Enthalpies=            -964.954126
 Sum of electronic and thermal Free Energies=         -965.035573

                     E (Thermal)             CV                S
                      KCal/Mol        Cal/Mol-Kelvin    Cal/Mol-Kelvin
 Total                  259.064             89.312            171.420
 Electronic               0.000              0.000              0.000
 Translational            0.889              2.981             43.073
 Rotational               0.889              2.981             35.689
 Vibrational            257.286             83.351             92.658
 Vibration     1          0.593              1.987              7.634
 Vibration     2          0.593              1.986              6.932
 Vibration     3          0.593              1.985              6.182
 Vibration     4          0.594              1.982              5.355
 Vibration     5          0.595              1.979              4.961
 Vibration     6          0.596              1.974              4.531
 Vibration     7          0.600              1.962              3.880
 Vibration     8          0.601              1.959              3.743
 Vibration     9          0.605              1.944              3.331
 Vibration    10          0.609              1.932              3.098
 Vibration    11          0.613              1.921              2.905
 Vibration    12          0.614              1.916              2.843
 Vibration    13          0.618              1.902              2.662
 Vibration    14          0.627              1.874              2.385
 Vibration    15          0.634              1.853              2.223
 Vibration    16          0.641              1.831              2.075
 Vibration    17          0.648              1.809              1.951
 Vibration    18          0.662              1.765              1.741
 Vibration    19          0.668              1.746              1.663
 Vibration    20          0.685              1.695              1.481
 Vibration    21          0.692              1.675              1.421
 Vibration    22          0.709              1.627              1.288
 Vibration    23          0.723              1.587              1.192
 Vibration    24          0.732              1.562              1.138
 Vibration    25          0.750              1.513              1.039
 Vibration    26          0.756              1.496              1.008
 Vibration    27          0.763              1.478              0.976
 Vibration    28          0.780              1.434              0.903
 Vibration    29          0.788              1.414              0.872
 Vibration    30          0.806              1.369              0.807
 Vibration    31          0.815              1.346              0.775
 Vibration    32          0.829              1.312              0.732
 Vibration    33          0.847              1.270              0.681
 Vibration    34          0.864              1.231              0.637
 Vibration    35          0.890              1.172              0.576
 Vibration    36          0.914              1.122              0.527
 Vibration    37          0.938              1.073              0.484

 Optimization completed.
    -- Stationary point found.
 Normal termination of Gaussian 16 at Mon Jan  8 04:39:03 2024.
