 Q-Chem 5.4, Q-Chem, Inc., Pleasanton, CA (2021)
 Q-Chem 5.4.0 for Intel X86 EM64T Linux

User input:
--------------------------------------------------------------
$molecule
-2 1
C                 -1.6950720000      0.8519370000      1.6552070000
C                 -2.8156470000      1.1794530000      0.8102520000
C                 -2.7459270000      1.0285030000     -0.5759780000
C                 -1.6150790000      0.5960450000     -1.3199550000
C                 -0.4945210000      0.2684800000     -0.4749960000
C                 -0.5642360000      0.4194450000      0.9112340000
O                 -1.5054410000      0.5292610000     -2.6102550000
O                 -1.8046260000      0.9189730000      2.9455030000
Br                 1.0437580000     -0.0325150000      1.9696810000
Br                -4.3539410000      1.4804030000     -1.6344220000
N                  0.6671050000     -0.1628630000     -1.1765940000
N                 -3.9772940000      1.6107220000      1.5118580000
H                  0.4803220000      0.0619590000     -2.1566210000
H                  1.5100200000      0.2954020000     -0.8418330000
H                 -3.7904990000      1.3858480000      2.4918700000
H                 -4.8201920000      1.1524380000      1.1770800000
$end
$rem
MAX_SCF_CYCLES=200
BASIS  =  6-311++G(d,p)
GUI  =  2
JOB_TYPE  =  SP
METHOD  =  B3LYP
SOLVENT_METHOD = PCM
$end
$pcm
theory = CPCM
$end
$solvent
dielectric 37.219
opticaldielectric 1.43
$end

--------------------------------------------------------------

             Standard Nuclear Orientation (Angstroms)
    I     Atom           X                Y                Z
 ----------------------------------------------------------------
    1      C      -1.6950720000     0.8519370000     1.6552070000
    2      C      -2.8156470000     1.1794530000     0.8102520000
    3      C      -2.7459270000     1.0285030000    -0.5759780000
    4      C      -1.6150790000     0.5960450000    -1.3199550000
    5      C      -0.4945210000     0.2684800000    -0.4749960000
    6      C      -0.5642360000     0.4194450000     0.9112340000
    7      O      -1.5054410000     0.5292610000    -2.6102550000
    8      O      -1.8046260000     0.9189730000     2.9455030000
    9      Br      1.0437580000    -0.0325150000     1.9696810000
   10      Br     -4.3539410000     1.4804030000    -1.6344220000
   11      N       0.6671050000    -0.1628630000    -1.1765940000
   12      N      -3.9772940000     1.6107220000     1.5118580000
   13      H       0.4803220000     0.0619590000    -2.1566210000
   14      H       1.5100200000     0.2954020000    -0.8418330000
   15      H      -3.7904990000     1.3858480000     2.4918700000
   16      H      -4.8201920000     1.1524380000     1.1770800000
 ----------------------------------------------------------------

    9   -5639.6909171906      7.75e-06  Convergence criterion met
 Total energy in the final basis set =    -5639.6909171906

                    Orbital Energies (a.u.)
 --------------------------------------------------------------

 Alpha MOs
 -- Occupied --
********-482.8074 -62.4602 -62.4602 -56.2803 -56.2803 -56.2771 -56.2771
-56.2769 -56.2769 -19.0324 -19.0324 -14.2888 -14.2888 -10.1875 -10.1874
-10.1845 -10.1845 -10.1739 -10.1739  -8.6688  -8.6688  -6.4990  -6.4990
 -6.4881  -6.4881  -6.4875  -6.4875  -2.6102  -2.6102  -2.6070  -2.6070
 -2.6066  -2.6065  -2.5980  -2.5980  -2.5980  -2.5980  -0.9544  -0.9488
 -0.8774  -0.8771  -0.7990  -0.7775  -0.7439  -0.6654  -0.6531  -0.5558
 -0.5478  -0.5132  -0.4550  -0.4457  -0.4433  -0.4103  -0.3902  -0.3769
 -0.3707  -0.3697  -0.3424  -0.3348  -0.3200  -0.2879  -0.2805  -0.2789
 -0.2749  -0.2682  -0.2230  -0.2203  -0.2145  -0.1867  -0.1248

          Ground-State Mulliken Net Atomic Charges

     Atom                 Charge (a.u.)
  ----------------------------------------
      1 C                    -0.817206
      2 C                    -1.118891
      3 C                     1.718634
      4 C                    -0.817332
      5 C                    -1.118768
      6 C                     1.718567
      7 O                    -0.682040
      8 O                    -0.682040
      9 Br                   -0.225355
     10 Br                   -0.225378
     11 N                    -0.394107
     12 N                    -0.394097
     13 H                     0.274938
     14 H                     0.244070
     15 H                     0.274937
     16 H                     0.244069
  ----------------------------------------
  Sum of atomic charges =    -2.000000

                    Cartesian Multipole Moments
 -----------------------------------------------------------------
    Charge (ESU x 10^10)
                -9.6064
    Dipole Moment (Debye)
         X      15.8992      Y      -6.9557      Z      -1.6103
       Tot      17.4287
    Quadrupole Moments (Debye-Ang)
        XX    -141.2813     XY      24.6776     YY    -117.7999
        XZ      -7.7364     YZ      -5.4398     ZZ    -162.8046

 Total job time:  21.01s(wall), 144.19s(cpu)
        *  Thank you very much for using Q-Chem.  Have a nice day.  *
