 Q-Chem 5.4, Q-Chem, Inc., Pleasanton, CA (2021)
 Q-Chem 5.4.0 for Intel X86 EM64T Linux

User input:
--------------------------------------------------------------
$molecule
-1 2
C                  1.2941720000      1.1670330000     -2.8722920000
C                 -0.0156360000      1.5133240000     -3.3841610000
C                 -1.1061240000      0.7234350000     -3.1723790000
C                 -1.0397570000     -0.5138600000     -2.4229100000
C                  0.2698380000     -0.8933840000     -1.8991590000
O                  2.2880830000      1.9281920000     -3.0201520000
O                 -2.0663750000     -1.2287550000     -2.2387100000
H                 -0.0858740000      2.4476830000     -3.9338900000
C                  1.3813810000     -0.0956090000     -2.1403750000
C                  2.7232830000     -0.4691770000     -1.6042550000
C                  3.8952420000     -0.5585060000     -2.5518440000
C                  5.1903640000     -0.5721550000     -2.0215880000
C                  3.7267770000     -0.7142790000     -3.9314300000
C                  6.2959630000     -0.7220220000     -2.8529790000
C                  6.1189030000     -0.8812050000     -4.2284900000
C                  4.8309120000     -0.8813010000     -4.7637080000
O                  2.8986570000     -0.7621720000     -0.4270620000
C                  0.3221620000     -2.1870120000     -1.1281500000
H                  5.3066280000     -0.4624490000     -0.9500000000
H                  2.7271280000     -0.7019050000     -4.3478230000
H                  7.2961820000     -0.7171850000     -2.4312950000
H                  6.9795020000     -1.0022620000     -4.8788510000
H                  4.6865690000     -1.0040460000     -5.8321160000
H                 -2.0852250000      0.9974360000     -3.5557770000
H                  0.0528490000     -2.0208320000     -0.0786540000
H                  1.3141140000     -2.6393140000     -1.1359340000
H                 -0.4153090000     -2.8804740000     -1.5368950000
$end

$rem
BASIS  =  6-311++G(d,p)
GUI  =  2
JOB_TYPE  =  SP
METHOD  =  B3LYP
SCF_CONVERGENCE  = 8
SOLVENT_METHOD = sm12
$end

$smx
solvent dimethylformamide
charges CM5
$end

--------------------------------------------------------------

             Standard Nuclear Orientation (Angstroms)
    I     Atom           X                Y                Z
 ----------------------------------------------------------------
    1      C       1.2941720000     1.1670330000    -2.8722920000
    2      C      -0.0156360000     1.5133240000    -3.3841610000
    3      C      -1.1061240000     0.7234350000    -3.1723790000
    4      C      -1.0397570000    -0.5138600000    -2.4229100000
    5      C       0.2698380000    -0.8933840000    -1.8991590000
    6      O       2.2880830000     1.9281920000    -3.0201520000
    7      O      -2.0663750000    -1.2287550000    -2.2387100000
    8      H      -0.0858740000     2.4476830000    -3.9338900000
    9      C       1.3813810000    -0.0956090000    -2.1403750000
   10      C       2.7232830000    -0.4691770000    -1.6042550000
   11      C       3.8952420000    -0.5585060000    -2.5518440000
   12      C       5.1903640000    -0.5721550000    -2.0215880000
   13      C       3.7267770000    -0.7142790000    -3.9314300000
   14      C       6.2959630000    -0.7220220000    -2.8529790000
   15      C       6.1189030000    -0.8812050000    -4.2284900000
   16      C       4.8309120000    -0.8813010000    -4.7637080000
   17      O       2.8986570000    -0.7621720000    -0.4270620000
   18      C       0.3221620000    -2.1870120000    -1.1281500000
   19      H       5.3066280000    -0.4624490000    -0.9500000000
   20      H       2.7271280000    -0.7019050000    -4.3478230000
   21      H       7.2961820000    -0.7171850000    -2.4312950000
   22      H       6.9795020000    -1.0022620000    -4.8788510000
   23      H       4.6865690000    -1.0040460000    -5.8321160000
   24      H      -2.0852250000     0.9974360000    -3.5557770000
   25      H       0.0528490000    -2.0208320000    -0.0786540000
   26      H       1.3141140000    -2.6393140000    -1.1359340000
   27      H      -0.4153090000    -2.8804740000    -1.5368950000
 ----------------------------------------------------------------

   17    -765.4417776037      4.91e-09  Convergence criterion met
 Total energy in the final basis set =     -765.5286411245

                    Orbital Energies (a.u.)
 --------------------------------------------------------------

 Alpha MOs
 -- Occupied --
-19.1155 -19.0801 -19.0794 -10.2663 -10.2286 -10.2229 -10.1917 -10.1895
-10.1887 -10.1886 -10.1866 -10.1864 -10.1858 -10.1771 -10.1743 -10.1726
-10.1646  -1.0471  -1.0038  -1.0006  -0.8703  -0.8354  -0.7813  -0.7694
 -0.7598  -0.7204  -0.6713  -0.6497  -0.6211  -0.6059  -0.5685  -0.5559
 -0.5172  -0.4927  -0.4822  -0.4676  -0.4622  -0.4503  -0.4404  -0.4356
 -0.4279  -0.4198  -0.4100  -0.4041  -0.3959  -0.3946  -0.3757  -0.3721
 -0.3688  -0.3663  -0.3595  -0.3546  -0.2867  -0.2748  -0.2686  -0.2658
 -0.2585  -0.2443  -0.2350  -0.1675

 Beta MOs
 -- Occupied --
-19.1151 -19.0725 -19.0724 -10.2663 -10.2278 -10.2218 -10.1917 -10.1895
-10.1887 -10.1867 -10.1866 -10.1864 -10.1858 -10.1764 -10.1735 -10.1715
-10.1648  -1.0464  -0.9920  -0.9872  -0.8703  -0.8294  -0.7793  -0.7681
 -0.7598  -0.7168  -0.6639  -0.6481  -0.6207  -0.6041  -0.5648  -0.5549
 -0.5159  -0.4907  -0.4806  -0.4665  -0.4601  -0.4487  -0.4386  -0.4350
 -0.4220  -0.4176  -0.4072  -0.3992  -0.3933  -0.3815  -0.3717  -0.3698
 -0.3640  -0.3585  -0.3547  -0.3437  -0.2745  -0.2695  -0.2631  -0.2558
 -0.2469  -0.2375  -0.2292

          Ground-State Mulliken Net Atomic Charges

     Atom                 Charge (a.u.)    Spin (a.u.)
  --------------------------------------------------------
      1 C                    -1.160507       0.083043
      2 C                     0.084409       0.081758
      3 C                     0.168332       0.072452
      4 C                    -1.139240       0.064200
      5 C                    -0.326235       0.107026
      6 O                    -0.330784       0.249307
      7 O                    -0.366459       0.281267
      8 H                     0.242094      -0.008386
      9 C                     0.424263       0.029883
     10 C                    -1.471004       0.029497
     11 C                     0.109839      -0.002881
     12 C                     0.542076      -0.010126
     13 C                    -1.731573       0.005699
     14 C                     0.635985       0.003194
     15 C                     1.082557       0.000833
     16 C                     0.313684      -0.000069
     17 O                    -0.160295       0.009351
     18 C                    -0.030462      -0.003019
     19 H                     0.217557      -0.000538
     20 H                     0.073192       0.002034
     21 H                     0.344639       0.000109
     22 H                     0.380272      -0.000041
     23 H                     0.322002      -0.000096
     24 H                     0.240868      -0.005831
     25 H                     0.177122       0.008932
     26 H                     0.186166       0.001362
     27 H                     0.171499       0.001041
  --------------------------------------------------------
  Sum of atomic charges =    -1.000000

                    Cartesian Multipole Moments
 -----------------------------------------------------------------
    Charge (ESU x 10^10)
                -4.8032
    Dipole Moment (Debye)
         X      -2.0294      Y      -0.4171      Z       9.2775
       Tot       9.5060
    Quadrupole Moments (Debye-Ang)
        XX    -122.7526     XY     -13.7355     YY    -117.7219
        XZ      -1.1672     YZ       6.9178     ZZ    -122.5830

 Total job time:  640.87s(wall), 4986.28s(cpu)
        *  Thank you very much for using Q-Chem.  Have a nice day.  *
