 Q-Chem 5.4, Q-Chem, Inc., Pleasanton, CA (2021)
 Q-Chem 5.4.0 for Intel X86 EM64T Linux

User input:
--------------------------------------------------------------
$molecule
-2 1
C                  5.8338240000     -5.2163290000      1.1773940000
C                  6.7328150000     -5.1258690000      0.1389740000
C                  6.5633690000     -4.1373670000     -0.8568820000
C                  4.6947890000     -4.3835300000      1.2463380000
C                  4.5388410000     -3.3506690000      0.2445680000
C                  5.4731380000     -3.2982010000     -0.8137630000
C                  3.7479150000     -4.5596260000      2.3295160000
C                  2.6733090000     -3.6070340000      2.3357760000
C                  2.5165360000     -2.6051930000      1.3539040000
C                  3.4408660000     -2.4049300000      0.2732700000
O                  3.8718970000     -5.4954640000      3.2090570000
O                  3.3140160000     -1.4679970000     -0.6046980000
H                  5.9800820000     -5.9135470000      1.9954380000
H                  5.2766620000     -2.5820360000     -1.6044600000
Br                 8.4404090000     -6.1194430000      0.3122860000
Br                 7.6212640000     -4.1844910000     -2.5338320000
C                  1.6689780000     -3.7374600000      3.4577210000
C                  1.3427110000     -1.6550660000      1.4162190000
H                  2.0387580000     -4.4849040000      4.1635460000
H                  0.6785990000     -4.0658060000      3.1016450000
H                  1.5081510000     -2.7859160000      3.9847250000
H                  0.3828020000     -2.1848240000      1.4994970000
H                  1.3443790000     -1.0481060000      0.5078150000
H                  1.3966970000     -0.9736220000      2.2811950000
$end

$rem
BASIS  =  6-311++G(d,p)
GUI  =  2
JOB_TYPE  =  SP
METHOD  =  B3LYP
SCF_CONVERGENCE  = 8
SOLVENT_METHOD = sm12
$end

$smx
solvent dimethylformamide
charges CM5
$end

--------------------------------------------------------------

             Standard Nuclear Orientation (Angstroms)
    I     Atom           X                Y                Z
 ----------------------------------------------------------------
    1      C       5.8338240000    -5.2163290000     1.1773940000
    2      C       6.7328150000    -5.1258690000     0.1389740000
    3      C       6.5633690000    -4.1373670000    -0.8568820000
    4      C       4.6947890000    -4.3835300000     1.2463380000
    5      C       4.5388410000    -3.3506690000     0.2445680000
    6      C       5.4731380000    -3.2982010000    -0.8137630000
    7      C       3.7479150000    -4.5596260000     2.3295160000
    8      C       2.6733090000    -3.6070340000     2.3357760000
    9      C       2.5165360000    -2.6051930000     1.3539040000
   10      C       3.4408660000    -2.4049300000     0.2732700000
   11      O       3.8718970000    -5.4954640000     3.2090570000
   12      O       3.3140160000    -1.4679970000    -0.6046980000
   13      H       5.9800820000    -5.9135470000     1.9954380000
   14      H       5.2766620000    -2.5820360000    -1.6044600000
   15      Br      8.4404090000    -6.1194430000     0.3122860000
   16      Br      7.6212640000    -4.1844910000    -2.5338320000
   17      C       1.6689780000    -3.7374600000     3.4577210000
   18      C       1.3427110000    -1.6550660000     1.4162190000
   19      H       2.0387580000    -4.4849040000     4.1635460000
   20      H       0.6785990000    -4.0658060000     3.1016450000
   21      H       1.5081510000    -2.7859160000     3.9847250000
   22      H       0.3828020000    -2.1848240000     1.4994970000
   23      H       1.3443790000    -1.0481060000     0.5078150000
   24      H       1.3966970000    -0.9736220000     2.2811950000
 ----------------------------------------------------------------

   17   -5760.9805304856      8.79e-09  Convergence criterion met
 Total energy in the final basis set =    -5761.2462031106

                    Orbital Energies (a.u.)
 --------------------------------------------------------------

 Alpha MOs
 -- Occupied --
********-482.8239 -62.4761 -62.4761 -56.2967 -56.2967 -56.2928 -56.2928
-56.2927 -56.2927 -19.0229 -19.0229 -10.2236 -10.2232 -10.1825 -10.1825
-10.1752 -10.1752 -10.1621 -10.1621 -10.1558 -10.1554 -10.1460 -10.1456
 -8.6843  -8.6842  -6.5153  -6.5152  -6.5028  -6.5028  -6.5026  -6.5026
 -2.6262  -2.6260  -2.6227  -2.6225  -2.6224  -2.6224  -2.6125  -2.6125
 -2.6125  -2.6124  -0.9414  -0.9380  -0.8692  -0.8048  -0.7920  -0.7836
 -0.7329  -0.7262  -0.7197  -0.6610  -0.6365  -0.5976  -0.5674  -0.5359
 -0.4936  -0.4653  -0.4584  -0.4310  -0.4295  -0.4275  -0.3981  -0.3960
 -0.3947  -0.3828  -0.3758  -0.3734  -0.3597  -0.3534  -0.3462  -0.3273
 -0.3250  -0.3177  -0.3039  -0.2953  -0.2853  -0.2713  -0.2422  -0.2279
 -0.2190  -0.2057  -0.1975  -0.1202

          Ground-State Mulliken Net Atomic Charges

     Atom                 Charge (a.u.)
  ----------------------------------------
      1 C                    -0.571815
      2 C                     2.805550
      3 C                     2.808953
      4 C                    -1.382055
      5 C                    -1.380521
      6 C                    -0.575671
      7 C                    -2.426882
      8 C                    -0.527722
      9 C                    -0.524507
     10 C                    -2.429173
     11 O                    -0.369427
     12 O                    -0.369369
     13 H                     0.084904
     14 H                     0.085800
     15 Br                    0.375333
     16 Br                    0.373167
     17 C                     0.453024
     18 C                     0.452680
     19 H                     0.173830
     20 H                     0.182717
     21 H                     0.202381
     22 H                     0.202414
     23 H                     0.173914
     24 H                     0.182473
  ----------------------------------------
  Sum of atomic charges =    -2.000000

                    Cartesian Multipole Moments
 -----------------------------------------------------------------
    Charge (ESU x 10^10)
                -9.6064
    Dipole Moment (Debye)
         X     -41.3534      Y      36.0211      Z      -8.7911
       Tot      55.5419
    Quadrupole Moments (Debye-Ang)
        XX    -345.9266     XY     172.8919     YY    -299.3601
        XZ     -21.9532     YZ      52.6271     ZZ    -175.7024

 Total job time:  609.95s(wall), 4122.60s(cpu)
        *  Thank you very much for using Q-Chem.  Have a nice day.  *
