 Q-Chem 5.4, Q-Chem, Inc., Pleasanton, CA (2021)
 Q-Chem 5.4.0 for Intel X86 EM64T Linux

User input:
--------------------------------------------------------------
$molecule
-1 2
O                  3.0563620000     -2.1970930000      0.2084400000
C                  2.7744690000     -0.8788740000      0.2556100000
C                  3.8057600000      0.0379730000      0.4171720000
C                  3.5204300000      1.4118880000      0.4670480000
C                  2.2202540000      1.8736030000      0.3573530000
C                  1.1549790000      0.9684340000      0.1929400000
C                 -0.2174820000      1.5044520000      0.0800130000
O                 -0.4141480000      2.7345830000      0.1308020000
C                 -1.2945500000      0.5179590000     -0.0900990000
C                 -2.6625460000      0.8954120000     -0.2113780000
O                 -3.0078760000      2.2208650000     -0.1703820000
C                 -3.6614590000     -0.0572750000     -0.3714460000
C                 -3.3480880000     -1.4270390000     -0.4184580000
C                 -2.0385390000     -1.8336220000     -0.3049460000
C                 -1.0019510000     -0.8865390000     -0.1411280000
C                  0.3560990000     -1.3866970000     -0.0276770000
O                  0.6014100000     -2.6460600000     -0.0749840000
C                  1.4216600000     -0.4259470000      0.1399620000
H                  2.1575450000     -2.6458420000      0.0877260000
H                  4.8211270000     -0.3333970000      0.5021320000
H                  4.3361810000      2.1180190000      0.5937000000
H                  1.9844000000      2.9294910000      0.3939310000
H                 -3.9651570000      2.2681280000     -0.2682960000
H                 -4.6950330000      0.2713770000     -0.4605040000
H                 -4.1437920000     -2.1548160000     -0.5442110000
H                 -1.7600530000     -2.8789820000     -0.3366400000
$end

$rem
BASIS  =  6-311++G(d,p)
GUI  =  2
JOB_TYPE  =  SP
METHOD  =  B3LYP
SCF_CONVERGENCE  = 8
SOLVENT_METHOD = sm12
$end

$smx
solvent dimethylformamide
charges CM5
$end

--------------------------------------------------------------

             Standard Nuclear Orientation (Angstroms)
    I     Atom           X                Y                Z
 ----------------------------------------------------------------
    1      O       3.0563620000    -2.1970930000     0.2084400000
    2      C       2.7744690000    -0.8788740000     0.2556100000
    3      C       3.8057600000     0.0379730000     0.4171720000
    4      C       3.5204300000     1.4118880000     0.4670480000
    5      C       2.2202540000     1.8736030000     0.3573530000
    6      C       1.1549790000     0.9684340000     0.1929400000
    7      C      -0.2174820000     1.5044520000     0.0800130000
    8      O      -0.4141480000     2.7345830000     0.1308020000
    9      C      -1.2945500000     0.5179590000    -0.0900990000
   10      C      -2.6625460000     0.8954120000    -0.2113780000
   11      O      -3.0078760000     2.2208650000    -0.1703820000
   12      C      -3.6614590000    -0.0572750000    -0.3714460000
   13      C      -3.3480880000    -1.4270390000    -0.4184580000
   14      C      -2.0385390000    -1.8336220000    -0.3049460000
   15      C      -1.0019510000    -0.8865390000    -0.1411280000
   16      C       0.3560990000    -1.3866970000    -0.0276770000
   17      O       0.6014100000    -2.6460600000    -0.0749840000
   18      C       1.4216600000    -0.4259470000     0.1399620000
   19      H       2.1575450000    -2.6458420000     0.0877260000
   20      H       4.8211270000    -0.3333970000     0.5021320000
   21      H       4.3361810000     2.1180190000     0.5937000000
   22      H       1.9844000000     2.9294910000     0.3939310000
   23      H      -3.9651570000     2.2681280000    -0.2682960000
   24      H      -4.6950330000     0.2713770000    -0.4605040000
   25      H      -4.1437920000    -2.1548160000    -0.5442110000
   26      H      -1.7600530000    -2.8789820000    -0.3366400000
 ----------------------------------------------------------------

   18    -839.5167755212      7.84e-09  Convergence criterion met
 Total energy in the final basis set =     -839.6108599814

                    Orbital Energies (a.u.)
 --------------------------------------------------------------

 Alpha MOs
 -- Occupied --
-19.1560 -19.1328 -19.0909 -19.0767 -10.2479 -10.2411 -10.2339 -10.2338
-10.1857 -10.1847 -10.1840 -10.1835 -10.1815 -10.1811 -10.1797 -10.1734
-10.1717 -10.1700  -1.0686  -1.0569  -1.0074  -1.0053  -0.8665  -0.8541
 -0.7950  -0.7540  -0.7516  -0.7445  -0.6766  -0.6509  -0.6389  -0.5984
 -0.5878  -0.5538  -0.5399  -0.5131  -0.5031  -0.4850  -0.4753  -0.4696
 -0.4502  -0.4411  -0.4289  -0.4236  -0.4179  -0.4177  -0.3954  -0.3866
 -0.3847  -0.3843  -0.3760  -0.3678  -0.3584  -0.3486  -0.3379  -0.3333
 -0.2766  -0.2600  -0.2583  -0.2410  -0.2354  -0.2329  -0.1471

 Beta MOs
 -- Occupied --
-19.1560 -19.1325 -19.0855 -19.0712 -10.2482 -10.2408 -10.2331 -10.2313
-10.1849 -10.1841 -10.1838 -10.1827 -10.1816 -10.1799 -10.1785 -10.1729
-10.1713 -10.1701  -1.0685  -1.0555  -0.9984  -0.9963  -0.8639  -0.8527
 -0.7911  -0.7514  -0.7495  -0.7429  -0.6697  -0.6491  -0.6368  -0.5975
 -0.5860  -0.5516  -0.5385  -0.5120  -0.5017  -0.4823  -0.4741  -0.4688
 -0.4491  -0.4329  -0.4276  -0.4209  -0.4149  -0.4142  -0.3931  -0.3857
 -0.3762  -0.3749  -0.3669  -0.3653  -0.3573  -0.3469  -0.3305  -0.3244
 -0.2564  -0.2546  -0.2540  -0.2326  -0.2304  -0.2264

          Ground-State Mulliken Net Atomic Charges

     Atom                 Charge (a.u.)    Spin (a.u.)
  --------------------------------------------------------
      1 O                    -0.303281       0.009790
      2 C                    -0.599573       0.041660
      3 C                     0.810365       0.036937
      4 C                     0.696896       0.061296
      5 C                    -0.445189       0.022878
      6 C                    -0.707539       0.087455
      7 C                    -1.793325       0.020929
      8 O                    -0.282859       0.207672
      9 C                    -1.632832       0.040726
     10 C                     0.400643      -0.003087
     11 O                    -0.132819      -0.000367
     12 C                     2.325521       0.089416
     13 C                     1.016666       0.021790
     14 C                     0.445233       0.073659
     15 C                    -0.157425       0.008219
     16 C                    -1.794174       0.141763
     17 O                    -0.334419       0.197033
     18 C                    -0.858615      -0.032262
     19 H                     0.344135      -0.004169
     20 H                     0.269668      -0.003380
     21 H                     0.360089      -0.004362
     22 H                     0.132457      -0.001568
     23 H                     0.369757      -0.000314
     24 H                     0.349684      -0.006972
     25 H                     0.362589      -0.001738
     26 H                     0.158349      -0.003001
  --------------------------------------------------------
  Sum of atomic charges =    -1.000000

                    Cartesian Multipole Moments
 -----------------------------------------------------------------
    Charge (ESU x 10^10)
                -4.8032
    Dipole Moment (Debye)
         X      -5.0775      Y       0.1501      Z      -0.5982
       Tot       5.1148
    Quadrupole Moments (Debye-Ang)
        XX    -107.5327     XY       8.3315     YY    -138.1934
        XZ       0.7554     YZ      -0.7019     ZZ    -110.8850

 Total job time:  666.12s(wall), 5125.31s(cpu)
        *  Thank you very much for using Q-Chem.  Have a nice day.  *
