 Q-Chem 5.4, Q-Chem, Inc., Pleasanton, CA (2021)
 Q-Chem 5.4.0 for Intel X86 EM64T Linux

User input:
--------------------------------------------------------------
$molecule
0 1
O                  4.5484120000     -1.4034570000     -0.8459570000
C                  3.4516640000     -0.6522260000     -0.5244250000
C                  3.5090420000      0.6695460000     -0.1537530000
C                  2.3272490000      1.3606130000      0.1589920000
O                  2.4499190000      2.6434190000      0.5120530000
C                  1.0849630000      0.6920100000      0.0906110000
C                 -0.1303500000      1.4441030000      0.4238880000
O                 -0.0466130000      2.6393520000      0.7557850000
C                 -1.4373080000      0.7595920000      0.3572700000
C                 -2.6338520000      1.4281000000      0.6648890000
O                 -2.6281860000      2.7338840000      1.0358730000
C                 -3.8537160000      0.7316990000      0.5863980000
C                 -3.9061850000     -0.5911530000      0.2150350000
C                 -2.7269860000     -1.2872970000     -0.0987850000
O                 -2.8509200000     -2.5722890000     -0.4522610000
C                 -1.4879170000     -0.6126730000     -0.0283370000
C                 -0.2654820000     -1.3672650000     -0.3629720000
O                 -0.3465440000     -2.5596600000     -0.6945130000
C                  1.0394250000     -0.6812350000     -0.2958360000
C                  2.2240270000     -1.3572780000     -0.6045910000
O                  2.2559170000     -2.6545370000     -0.9769720000
H                  5.3565700000     -0.8844150000     -0.7774140000
H                  4.4514620000      1.2029310000     -0.0944710000
H                  1.5227570000      2.9646740000      0.6943980000
H                 -3.5347350000      3.0145400000      1.2044190000
H                 -4.7732970000      1.2582600000      0.8264940000
H                 -4.8477960000     -1.1229680000      0.1561000000
H                 -1.9306700000     -2.8999140000     -0.6356150000
H                  3.1791510000     -2.8963560000     -1.1363040000
$end
$rem
MAX_SCF_CYCLES=200
BASIS  =  6-311++G(d,p)
GUI  =  2
JOB_TYPE  =  SP
METHOD  =  B3LYP
SOLVENT_METHOD = COSMO
$end
$solvent
dielectric 37.219
opticaldielectric 1.43
$end

--------------------------------------------------------------

             Standard Nuclear Orientation (Angstroms)
    I     Atom           X                Y                Z
 ----------------------------------------------------------------
    1      O       4.6892980194    -0.8143535659    -0.0001609813
    2      C       3.4740235396    -0.1869024134    -0.0000721425
    3      C       3.3153043612     1.1778610822     0.0000278287
    4      C       2.0251353343     1.7323713201     0.0001080587
    5      O       1.9378384497     3.0656644184     0.0000994680
    6      C       0.8967681125     0.8828021051     0.0001139005
    7      C      -0.4367431115     1.4955426220     0.0000730899
    8      O      -0.5485169797     2.7338052247     0.0000028226
    9      C      -1.6269308796     0.6211367922     0.0000255652
   10      C      -2.9280903404     1.1505081103    -0.0000405986
   11      O      -3.1356856219     2.4920137103    -0.0001437885
   12      C      -4.0295813251     0.2753389957    -0.0000327512
   13      C      -3.8658084212    -1.0898640381    -0.0000387704
   14      C      -2.5774096425    -1.6498982593    -0.0000084581
   15      O      -2.4910259368    -2.9855805593     0.0000797359
   16      C      -1.4532354762    -0.7945592085     0.0000217344
   17      C      -0.1122281245    -1.4089176325     0.0001124860
   18      O       0.0017700947    -2.6439482844    -0.0000028113
   19      C       1.0756836610    -0.5332508762     0.0000493164
   20      C       2.3661987358    -1.0719683528    -0.0000408968
   21      O       2.6098330993    -2.3998267001    -0.0000697518
   22      H       5.4095977181    -0.1752992458    -0.0000446830
   23      H       4.1670349770     1.8492211394    -0.0000165634
   24      H       0.9617482636     3.2738273156     0.0000285570
   25      H      -4.0845815821     2.6611379569    -0.0004263651
   26      H      -5.0316570105     0.6953224622    -0.0000448224
   27      H      -4.7169868136    -1.7595110700    -0.0000139687
   28      H      -1.5207977620    -3.2011591868     0.0002710269
   29      H       3.5690346716    -2.5269348019     0.0000190972
 ----------------------------------------------------------------

    9   -1065.1969153444      7.41e-06  Convergence criterion met
 Total energy in the final basis set =    -1065.1969153444
    5   -1065.2312650641      3.71e-06  Convergence criterion met
 Total energy in the final basis set =    -1065.2312650641

                    Orbital Energies (a.u.)
 --------------------------------------------------------------

 Alpha MOs
 -- Occupied --
-19.1849 -19.1740 -19.1705 -19.1592 -19.1587 -19.1329 -19.1285 -10.2879
-10.2841 -10.2709 -10.2672 -10.2665 -10.2651 -10.2624 -10.2136 -10.2110
-10.2098 -10.2048 -10.2024 -10.1982 -10.1979  -1.1089  -1.0919  -1.0904
 -1.0852  -1.0777  -1.0564  -1.0529  -0.8915  -0.8755  -0.8169  -0.7824
 -0.7697  -0.7627  -0.7033  -0.6825  -0.6725  -0.6381  -0.6246  -0.6047
 -0.5855  -0.5762  -0.5662  -0.5322  -0.5260  -0.5124  -0.4996  -0.4897
 -0.4809  -0.4776  -0.4624  -0.4572  -0.4562  -0.4508  -0.4450  -0.4393
 -0.4254  -0.4155  -0.4132  -0.4094  -0.3990  -0.3968  -0.3916  -0.3905
 -0.3854  -0.3794  -0.3350  -0.3267  -0.2891  -0.2882  -0.2742  -0.2695
 -0.2398  -0.2258

          Ground-State Mulliken Net Atomic Charges

     Atom                 Charge (a.u.)
  ----------------------------------------
      1 O                    -0.309874
      2 C                    -0.413639
      3 C                     0.295316
      4 C                    -0.272605
      5 O                    -0.375834
      6 C                     0.645301
      7 C                    -0.320284
      8 O                    -0.367198
      9 C                     0.233109
     10 C                    -0.184367
     11 O                    -0.259229
     12 C                    -0.119062
     13 C                    -0.036078
     14 C                    -0.348816
     15 O                    -0.370059
     16 C                     0.641512
     17 C                    -0.348943
     18 O                    -0.346754
     19 C                     0.462409
     20 C                    -0.436074
     21 O                    -0.287025
     22 H                     0.342462
     23 H                     0.244838
     24 H                     0.398356
     25 H                     0.329793
     26 H                     0.222936
     27 H                     0.246291
     28 H                     0.389692
     29 H                     0.343822
  ----------------------------------------
  Sum of atomic charges =     0.000000

                    Cartesian Multipole Moments
 -----------------------------------------------------------------
    Charge (ESU x 10^10)
                 0.0000
    Dipole Moment (Debye)
         X       1.3427      Y       1.4513      Z       0.0006
       Tot       1.9772
    Quadrupole Moments (Debye-Ang)
        XX     -55.4790     XY      -9.0218     YY    -145.6886
        XZ       0.0058     YZ      -0.0046     ZZ    -121.0619

 Total job time:  79.68s(wall), 577.00s(cpu)
        *  Thank you very much for using Q-Chem.  Have a nice day.  *
