 Q-Chem 5.4, Q-Chem, Inc., Pleasanton, CA (2021)
 Q-Chem 5.4.0 for Intel X86 EM64T Linux

User input:
--------------------------------------------------------------
$molecule
-2 1
N                 -4.5182730000     -0.0480840000      0.1893490000
C                 -3.1239000000     -0.3748570000      0.2778710000
C                 -2.7485260000     -1.6270150000      0.8248610000
C                 -1.4181940000     -1.9601460000      0.9421190000
C                 -0.3863680000     -1.0728110000      0.5510140000
C                  0.9879030000     -1.5030650000      0.7400080000
O                  1.2925860000     -2.6349410000      1.2570280000
C                  1.9909860000     -0.5577010000      0.2984120000
C                  3.3635580000     -0.8782420000      0.4371000000
C                  4.3656770000     -0.0203710000      0.0302170000
C                  4.0187500000      1.2332530000     -0.5500040000
C                  2.6913150000      1.5743300000     -0.7012440000
C                  1.6363540000      0.7133230000     -0.2937320000
C                  0.2709690000      1.1347370000     -0.4806430000
O                  0.0034710000      2.2873530000     -1.0317450000
C                 -0.7431820000      0.2106180000     -0.0258290000
C                 -2.1487710000      0.5135240000     -0.1654220000
N                 -2.5576650000      1.7462980000     -0.7408620000
H                 -5.0140370000     -0.6080900000     -0.5105050000
H                 -4.6298890000      0.9310240000     -0.0528450000
H                 -3.5301370000     -2.2947710000      1.1801180000
H                 -1.1066060000     -2.9089810000      1.3651370000
H                  3.5899560000     -1.8421050000      0.8830010000
H                  5.4116360000     -0.2968200000      0.1515270000
H                  4.8002940000      1.9193690000     -0.8729290000
H                  2.3982910000      2.5223090000     -1.1407610000
H                 -1.6946460000      2.2398740000     -1.0441050000
H                 -3.2015500000      1.6019870000     -1.5171350000
$end

$rem
BASIS  =  6-311++G(d,p)
GUI  =  2
JOB_TYPE  =  SP
METHOD  =  B3LYP
SCF_CONVERGENCE  = 8
SOLVENT_METHOD = sm12
$end

$smx
solvent dimethylformamide
charges CM5
$end

--------------------------------------------------------------

             Standard Nuclear Orientation (Angstroms)
    I     Atom           X                Y                Z
 ----------------------------------------------------------------
    1      N      -4.5182730000    -0.0480840000     0.1893490000
    2      C      -3.1239000000    -0.3748570000     0.2778710000
    3      C      -2.7485260000    -1.6270150000     0.8248610000
    4      C      -1.4181940000    -1.9601460000     0.9421190000
    5      C      -0.3863680000    -1.0728110000     0.5510140000
    6      C       0.9879030000    -1.5030650000     0.7400080000
    7      O       1.2925860000    -2.6349410000     1.2570280000
    8      C       1.9909860000    -0.5577010000     0.2984120000
    9      C       3.3635580000    -0.8782420000     0.4371000000
   10      C       4.3656770000    -0.0203710000     0.0302170000
   11      C       4.0187500000     1.2332530000    -0.5500040000
   12      C       2.6913150000     1.5743300000    -0.7012440000
   13      C       1.6363540000     0.7133230000    -0.2937320000
   14      C       0.2709690000     1.1347370000    -0.4806430000
   15      O       0.0034710000     2.2873530000    -1.0317450000
   16      C      -0.7431820000     0.2106180000    -0.0258290000
   17      C      -2.1487710000     0.5135240000    -0.1654220000
   18      N      -2.5576650000     1.7462980000    -0.7408620000
   19      H      -5.0140370000    -0.6080900000    -0.5105050000
   20      H      -4.6298890000     0.9310240000    -0.0528450000
   21      H      -3.5301370000    -2.2947710000     1.1801180000
   22      H      -1.1066060000    -2.9089810000     1.3651370000
   23      H       3.5899560000    -1.8421050000     0.8830010000
   24      H       5.4116360000    -0.2968200000     0.1515270000
   25      H       4.8002940000     1.9193690000    -0.8729290000
   26      H       2.3982910000     2.5223090000    -1.1407610000
   27      H      -1.6946460000     2.2398740000    -1.0441050000
   28      H      -3.2015500000     1.6019870000    -1.5171350000
 ----------------------------------------------------------------

   18    -799.6680350870      3.87e-09  Convergence criterion met
 Total energy in the final basis set =     -799.9531650558

                    Orbital Energies (a.u.)
 --------------------------------------------------------------

 Alpha MOs
 -- Occupied --
-19.0343 -19.0317 -14.3162 -14.2965 -10.2009 -10.1925 -10.1910 -10.1902
-10.1733 -10.1722 -10.1691 -10.1682 -10.1679 -10.1611 -10.1610 -10.1540
-10.1525 -10.1525  -0.9537  -0.9497  -0.9208  -0.8744  -0.8440  -0.8217
 -0.7662  -0.7429  -0.7214  -0.7127  -0.6508  -0.6269  -0.6089  -0.5777
 -0.5479  -0.5318  -0.5209  -0.4989  -0.4814  -0.4636  -0.4606  -0.4515
 -0.4389  -0.4261  -0.4188  -0.4018  -0.3992  -0.3889  -0.3758  -0.3701
 -0.3670  -0.3491  -0.3408  -0.3389  -0.3268  -0.3200  -0.2988  -0.2844
 -0.2484  -0.2378  -0.2291  -0.2141  -0.2067  -0.2003  -0.1181

          Ground-State Mulliken Net Atomic Charges

     Atom                 Charge (a.u.)
  ----------------------------------------
      1 N                    -0.052000
      2 C                     1.019823
      3 C                     0.926211
      4 C                    -0.295296
      5 C                    -1.305151
      6 C                    -2.663013
      7 O                    -0.312369
      8 C                    -1.737460
      9 C                    -0.116136
     10 C                     1.506757
     11 C                     1.540017
     12 C                     0.144962
     13 C                    -1.325240
     14 C                    -1.982727
     15 O                    -0.291923
     16 C                    -0.389872
     17 C                     0.689066
     18 N                    -0.290693
     19 H                     0.403168
     20 H                     0.379964
     21 H                     0.364141
     22 H                     0.103435
     23 H                     0.120001
     24 H                     0.395357
     25 H                     0.405061
     26 H                     0.140748
     27 H                     0.272311
     28 H                     0.350857
  ----------------------------------------
  Sum of atomic charges =    -2.000000

                    Cartesian Multipole Moments
 -----------------------------------------------------------------
    Charge (ESU x 10^10)
                -9.6064
    Dipole Moment (Debye)
         X      -5.4370      Y       1.9895      Z      -3.5433
       Tot       6.7878
    Quadrupole Moments (Debye-Ang)
        XX    -156.7217     XY       5.9862     YY    -158.0447
        XZ       7.8126     YZ      15.8832     ZZ    -126.5269

 Total job time:  779.29s(wall), 5931.06s(cpu)
        *  Thank you very much for using Q-Chem.  Have a nice day.  *
