 Q-Chem 5.4, Q-Chem, Inc., Pleasanton, CA (2021)
 Q-Chem 5.4.0 for Intel X86 EM64T Linux

User input:
--------------------------------------------------------------
$molecule
-2 1
C                 -1.1973360000      2.6367070000     -0.6037770000
C                 -2.2624070000      2.0088500000     -0.0048080000
C                 -2.1313680000      0.6578310000      0.4526720000
C                  0.0572350000      1.9821140000     -0.7936250000
C                  0.1863160000      0.6060540000     -0.3345710000
C                 -0.9400310000     -0.0084370000      0.2857100000
C                  1.1577250000      2.5975260000     -1.4001740000
C                  2.3899000000      1.9600170000     -1.5878490000
C                  2.5098690000      0.5705950000     -1.1223780000
C                  1.4113150000     -0.0498810000     -0.5185290000
C                  3.4810560000      2.6929640000     -2.2252150000
C                  4.7624540000      1.9559360000     -2.4028590000
C                  4.8032160000      0.5876630000     -1.9325100000
C                  3.7522320000     -0.0783020000     -1.3304260000
O                  3.3420810000      3.8911920000     -2.6041310000
O                  5.7808290000      2.4810410000     -2.9378560000
H                 -1.2938200000      3.6633790000     -0.9502130000
H                 -3.2054520000      2.5333220000      0.1256810000
H                 -2.9740000000      0.1641170000      0.9292260000
H                 -0.8377080000     -1.0346540000      0.6327520000
H                  1.0833400000      3.6227020000     -1.7518330000
H                  1.5168860000     -1.0749360000     -0.1774680000
H                  5.7581090000      0.0968720000     -2.0897010000
O                  3.8112310000     -1.4202580000     -0.9270430000
C                  5.0878780000     -2.0190270000     -0.8182780000
C                  4.9196690000     -3.4397660000     -0.3660410000
C                  5.6896520000     -4.0486890000      0.5339800000
H                  5.7281650000     -1.4600320000     -0.1200490000
H                  5.5914380000     -2.0109240000     -1.7971890000
H                  4.1137460000     -3.9859850000     -0.8524860000
H                  6.4905510000     -3.5208450000      1.0453070000
H                  5.5552080000     -5.0936430000      0.8004120000
$end

$rem
BASIS  =  6-311++G(d,p)
GUI  =  2
JOB_TYPE  =  SP
METHOD  =  B3LYP
SCF_CONVERGENCE  = 8
SOLVENT_METHOD = sm12
$end

$smx
solvent dimethylformamide
charges CM5
$end

--------------------------------------------------------------

             Standard Nuclear Orientation (Angstroms)
    I     Atom           X                Y                Z
 ----------------------------------------------------------------
    1      C      -1.1973360000     2.6367070000    -0.6037770000
    2      C      -2.2624070000     2.0088500000    -0.0048080000
    3      C      -2.1313680000     0.6578310000     0.4526720000
    4      C       0.0572350000     1.9821140000    -0.7936250000
    5      C       0.1863160000     0.6060540000    -0.3345710000
    6      C      -0.9400310000    -0.0084370000     0.2857100000
    7      C       1.1577250000     2.5975260000    -1.4001740000
    8      C       2.3899000000     1.9600170000    -1.5878490000
    9      C       2.5098690000     0.5705950000    -1.1223780000
   10      C       1.4113150000    -0.0498810000    -0.5185290000
   11      C       3.4810560000     2.6929640000    -2.2252150000
   12      C       4.7624540000     1.9559360000    -2.4028590000
   13      C       4.8032160000     0.5876630000    -1.9325100000
   14      C       3.7522320000    -0.0783020000    -1.3304260000
   15      O       3.3420810000     3.8911920000    -2.6041310000
   16      O       5.7808290000     2.4810410000    -2.9378560000
   17      H      -1.2938200000     3.6633790000    -0.9502130000
   18      H      -3.2054520000     2.5333220000     0.1256810000
   19      H      -2.9740000000     0.1641170000     0.9292260000
   20      H      -0.8377080000    -1.0346540000     0.6327520000
   21      H       1.0833400000     3.6227020000    -1.7518330000
   22      H       1.5168860000    -1.0749360000    -0.1774680000
   23      H       5.7581090000     0.0968720000    -2.0897010000
   24      O       3.8112310000    -1.4202580000    -0.9270430000
   25      C       5.0878780000    -2.0190270000    -0.8182780000
   26      C       4.9196690000    -3.4397660000    -0.3660410000
   27      C       5.6896520000    -4.0486890000     0.5339800000
   28      H       5.7281650000    -1.4600320000    -0.1200490000
   29      H       5.5914380000    -2.0109240000    -1.7971890000
   30      H       4.1137460000    -3.9859850000    -0.8524860000
   31      H       6.4905510000    -3.5208450000     1.0453070000
   32      H       5.5552080000    -5.0936430000     0.8004120000
 ----------------------------------------------------------------

   19    -880.8600766809      3.66e-09  Convergence criterion met
 Total energy in the final basis set =     -881.1484908998

                    Orbital Energies (a.u.)
 --------------------------------------------------------------

 Alpha MOs
 -- Occupied --
-19.1399 -19.0225 -19.0162 -10.2279 -10.2019 -10.1857 -10.1827 -10.1808
-10.1785 -10.1779 -10.1769 -10.1751 -10.1748 -10.1741 -10.1703 -10.1701
-10.1622 -10.1585 -10.1464 -10.1422  -1.0500  -0.9533  -0.9266  -0.8678
 -0.8261  -0.7990  -0.7734  -0.7700  -0.7239  -0.7147  -0.6937  -0.6426
 -0.6285  -0.5963  -0.5899  -0.5709  -0.5528  -0.5215  -0.5128  -0.5036
 -0.4837  -0.4695  -0.4578  -0.4512  -0.4425  -0.4319  -0.4195  -0.4149
 -0.4092  -0.3968  -0.3887  -0.3767  -0.3742  -0.3665  -0.3624  -0.3458
 -0.3433  -0.3391  -0.3248  -0.3178  -0.3165  -0.2936  -0.2791  -0.2737
 -0.2523  -0.2174  -0.2074  -0.2018  -0.1791  -0.1080

          Ground-State Mulliken Net Atomic Charges

     Atom                 Charge (a.u.)
  ----------------------------------------
      1 C                     0.707135
      2 C                     2.523123
      3 C                     2.095888
      4 C                    -1.492348
      5 C                     0.481482
      6 C                     1.243925
      7 C                    -2.025469
      8 C                    -2.510697
      9 C                    -0.726280
     10 C                    -1.218798
     11 C                    -2.514123
     12 C                    -2.601790
     13 C                     0.106659
     14 C                     0.913499
     15 O                    -0.442573
     16 O                    -0.418941
     17 H                     0.298553
     18 H                     0.402056
     19 H                     0.411535
     20 H                     0.326744
     21 H                    -0.081795
     22 H                     0.108069
     23 H                     0.095551
     24 O                     0.052504
     25 C                    -0.458382
     26 C                     1.376433
     27 C                     0.394659
     28 H                     0.023219
     29 H                     0.131824
     30 H                     0.238894
     31 H                     0.233379
     32 H                     0.326064
  ----------------------------------------
  Sum of atomic charges =    -2.000000

                    Cartesian Multipole Moments
 -----------------------------------------------------------------
    Charge (ESU x 10^10)
                -9.6064
    Dipole Moment (Debye)
         X     -30.1134      Y     -22.0491      Z      19.1246
       Tot      41.9372
    Quadrupole Moments (Debye-Ang)
        XX    -274.8501     XY     -82.2718     YY    -196.8200
        XZ      83.7782     YZ      52.8338     ZZ    -179.6367

 Total job time:  1070.17s(wall), 8127.56s(cpu)
        *  Thank you very much for using Q-Chem.  Have a nice day.  *
