 Gaussian 16, Revision A.03,
 Gaussian 16:  ES64L-G16RevA.03 25-Dec-2016

 ----------------------------------------------------------------------
 #P UB3LYP/6-311++G(d,p) nosym opt freq SCRF=(PCM,Solvent=n,n-DiMethylF
 ormamide)
 ----------------------------------------------------------------------

 --------
 Oxidized
 --------
 Symbolic Z-matrix:
 Charge =  0 Multiplicity = 1

 SCF Done:  E(UB3LYP) =  -649.831963035     A.U. after   16 cycles
 SCF Done:  E(UB3LYP) =  -649.832117853     A.U. after   12 cycles
 SCF Done:  E(UB3LYP) =  -649.832135706     A.U. after   12 cycles
 SCF Done:  E(UB3LYP) =  -649.832084216     A.U. after   12 cycles
 SCF Done:  E(UB3LYP) =  -649.832147713     A.U. after   11 cycles
 SCF Done:  E(UB3LYP) =  -649.832148686     A.U. after    9 cycles
 Optimization completed.
    -- Stationary point found.
 Normal termination of Gaussian 16 at Sun Feb 11 00:17:38 2024.

 ----------------------------------------------------------------------
 #P Geom=AllCheck Guess=TCheck SCRF=Check GenChk UB3LYP/6-311++G(d,p) F
 req
 ----------------------------------------------------------------------

 Structure from the checkpoint file:  "257.chk"
 --------
 Oxidized
 --------
 Charge =  0 Multiplicity = 1

                          Input orientation:
 ---------------------------------------------------------------------
 Center     Atomic      Atomic             Coordinates (Angstroms)
 Number     Number       Type             X           Y           Z
 ---------------------------------------------------------------------
      1          6           0        3.953800    0.622895   -0.106751
      2          8           0        2.665222    1.259652   -0.156769
      3          6           0        1.573426    0.500259   -0.096726
      4          6           0        1.538193   -0.849948    0.010088
      5          6           0        0.282922   -1.593184    0.070106
      6          8           0        0.282643   -2.819112    0.166816
      7          6           0       -0.996796   -0.823517    0.010637
      8          6           0       -2.217887   -1.495375    0.065921
      9          6           0       -3.413161   -0.781699    0.010120
     10          6           0       -3.394927    0.609817   -0.101578
     11          6           0       -2.180937    1.288200   -0.157161
     12          6           0       -0.978330    0.578115   -0.101375
     13          6           0        0.307453    1.318587   -0.161323
     14          8           0        0.364006    2.531646   -0.258457
     15          1           0        4.074183    0.079026    0.832707
     16          1           0        4.679042    1.429928   -0.166422
     17          1           0        4.076951   -0.055327   -0.953937
     18          1           0        2.439388   -1.446554    0.056768
     19          1           0       -2.219019   -2.574534    0.152392
     20          1           0       -4.358741   -1.309220    0.053624
     21          1           0       -4.325346    1.163333   -0.145118
     22          1           0       -2.152077    2.367009   -0.243658
 ---------------------------------------------------------------------

 SCF Done:  E(UB3LYP) =  -649.832148686     A.U. after    1 cycles

 Alpha  occ. eigenvalues --  -19.19134 -19.14378 -19.12857 -10.29370 -10.28229
 Alpha  occ. eigenvalues --  -10.27773 -10.23612 -10.21196 -10.21058 -10.20163
 Alpha  occ. eigenvalues --  -10.20075 -10.19945 -10.19933 -10.19835  -1.11254
 Alpha  occ. eigenvalues --   -1.07168  -1.05885  -0.89317  -0.83835  -0.78143
 Alpha  occ. eigenvalues --   -0.77989  -0.74786  -0.68920  -0.65453  -0.63030
 Alpha  occ. eigenvalues --   -0.59627  -0.55937  -0.55102  -0.52773  -0.49924
 Alpha  occ. eigenvalues --   -0.49754  -0.47735  -0.46854  -0.45427  -0.45243
 Alpha  occ. eigenvalues --   -0.45106  -0.43922  -0.43539  -0.42089  -0.38794
 Alpha  occ. eigenvalues --   -0.38767  -0.37521  -0.36629  -0.36576  -0.29338
 Alpha  occ. eigenvalues --   -0.29070  -0.28116  -0.28056  -0.26860
 Alpha virt. eigenvalues --   -0.12528  -0.05838  -0.02869  -0.00691   0.00161
 Alpha virt. eigenvalues --    0.01129   0.01783   0.02172   0.02336   0.03275
 Alpha virt. eigenvalues --    0.03743   0.04632   0.04859   0.05370   0.05915

  Beta  occ. eigenvalues --  -19.19134 -19.14378 -19.12857 -10.29370 -10.28229
  Beta  occ. eigenvalues --  -10.27773 -10.23612 -10.21196 -10.21058 -10.20163
  Beta  occ. eigenvalues --  -10.20075 -10.19945 -10.19933 -10.19835  -1.11254
  Beta  occ. eigenvalues --   -1.07168  -1.05885  -0.89317  -0.83835  -0.78143
  Beta  occ. eigenvalues --   -0.77989  -0.74786  -0.68920  -0.65453  -0.63030
  Beta  occ. eigenvalues --   -0.59627  -0.55937  -0.55102  -0.52773  -0.49924
  Beta  occ. eigenvalues --   -0.49754  -0.47735  -0.46854  -0.45427  -0.45243
  Beta  occ. eigenvalues --   -0.45106  -0.43922  -0.43539  -0.42089  -0.38794
  Beta  occ. eigenvalues --   -0.38767  -0.37521  -0.36629  -0.36576  -0.29338
  Beta  occ. eigenvalues --   -0.29070  -0.28116  -0.28056  -0.26860
  Beta virt. eigenvalues --   -0.12528  -0.05838  -0.02869  -0.00691   0.00161
  Beta virt. eigenvalues --    0.01129   0.01783   0.02172   0.02336   0.03275
  Beta virt. eigenvalues --    0.03743   0.04632   0.04859   0.05370   0.05915

 Mulliken charges and spin densities:
               1          2
     1  C   -0.312008   0.000000
     2  O   -0.159131  -0.000000
     3  C   -0.178129   0.000000
     4  C    0.751198   0.000000
     5  C   -0.624964  -0.000000
     6  O   -0.321350   0.000000
     7  C    0.606745   0.000000
     8  C    0.153585  -0.000000
     9  C   -0.377738   0.000000
    10  C   -0.468165  -0.000000
    11  C    0.152637  -0.000000
    12  C    0.457683   0.000000
    13  C   -1.005111  -0.000000
    14  O   -0.278317   0.000000
    15  H    0.186445   0.000000
    16  H    0.208657   0.000000
    17  H    0.187309   0.000000
    18  H    0.231449  -0.000000
    19  H    0.181919  -0.000000
    20  H    0.211877   0.000000
    21  H    0.211631  -0.000000
    22  H    0.183778   0.000000
 Sum of Mulliken charges =  -0.00000  -0.00000

 Dipole moment (field-independent basis, Debye):
    X=              0.1331    Y=              0.0507    Z=              0.0013  Tot=              0.1424
 Quadrupole moment (field-independent basis, Debye-Ang):
   XX=            -48.2677   YY=           -101.6274   ZZ=            -81.7255
   XY=             -1.4058   XZ=              0.0814   YZ=              1.5798

  Exact polarizability: 243.548  16.306 243.820  -1.435 -11.754  97.116
 Approx polarizability: 258.930  21.823 329.338  -1.874 -17.297 113.512

                      1                      2                      3
                      A                      A                      A
 Frequencies --     41.4013               112.0268               119.4629
 Red. masses --      5.8588                 4.6098                 4.5342
 Frc consts  --      0.0059                 0.0341                 0.0381
 IR Inten    --     13.8435                 0.1001                 0.2193

                      4                      5                      6
                      A                      A                      A
 Frequencies --    156.5894               190.2141               196.8411
 Red. masses --      2.7920                 3.8700                 3.6577
 Frc consts  --      0.0403                 0.0825                 0.0835
 IR Inten    --      7.7377                 0.2548                 6.7423

                      7                      8                      9
                      A                      A                      A
 Frequencies --    237.8529               274.9070               333.8338
 Red. masses --      1.3908                 6.0407                 6.0387
 Frc consts  --      0.0464                 0.2690                 0.3965
 IR Inten    --      1.5276                 2.7946                 3.1188

                     10                     11                     12
                      A                      A                      A
 Frequencies --    379.9533               404.7475               447.9887
 Red. masses --     11.1743                 3.3963                 7.1187
 Frc consts  --      0.9505                 0.3278                 0.8418
 IR Inten    --     34.5209                 0.0423                13.5511

                     13                     14                     15
                      A                      A                      A
 Frequencies --    450.8699               458.4975               501.8780
 Red. masses --      4.8241                 9.8750                 3.8030
 Frc consts  --      0.5778                 1.2231                 0.5644
 IR Inten    --      3.1710                 8.7109                 6.3770

                     16                     17                     18
                      A                      A                      A
 Frequencies --    543.7525               654.0979               679.8810
 Red. masses --      7.1083                 7.2542                 3.8091
 Frc consts  --      1.2383                 1.8286                 1.0374
 IR Inten    --      4.4183                14.1454                 4.3663

                     19                     20                     21
                      A                      A                      A
 Frequencies --    703.5482               716.0949               736.5827
 Red. masses --      5.6365                 6.5309                 2.5992
 Frc consts  --      1.6438                 1.9732                 0.8309
 IR Inten    --      8.4443                 1.1810                51.1694

                     22                     23                     24
                      A                      A                      A
 Frequencies --    786.4912               823.6175               830.1379
 Red. masses --      1.8928                 4.0666                 4.3628
 Frc consts  --      0.6898                 1.6253                 1.7714
 IR Inten    --     63.8648                11.3860                 9.6380

                     25                     26                     27
                      A                      A                      A
 Frequencies --    865.1142               912.5415               928.6330
 Red. masses --      1.5643                 1.3889                 5.8827
 Frc consts  --      0.6898                 0.6814                 2.9889
 IR Inten    --     46.8303                 0.0039                30.2329

                     28                     29                     30
                      A                      A                      A
 Frequencies --    999.1096              1023.2513              1037.8956
 Red. masses --      1.3890                 1.3328                 4.9880
 Frc consts  --      0.8169                 0.8222                 3.1658
 IR Inten    --      1.7076                 0.0440               154.6075

                     31                     32                     33
                      A                      A                      A
 Frequencies --   1061.3918              1101.4463              1136.3657
 Red. masses --      2.6423                 2.8596                 1.8324
 Frc consts  --      1.7538                 2.0440                 1.3941
 IR Inten    --     56.7014                40.2209                28.4673

                     34                     35                     36
                      A                      A                      A
 Frequencies --   1166.1396              1178.4374              1196.7070
 Red. masses --      1.2766                 1.1245                 1.4258
 Frc consts  --      1.0228                 0.9200                 1.2031
 IR Inten    --      1.3154                27.4945                37.4024

                     37                     38                     39
                      A                      A                      A
 Frequencies --   1234.2137              1257.7819              1283.9812
 Red. masses --      2.4485                 2.5790                 1.9906
 Frc consts  --      2.1975                 2.4038                 1.9336
 IR Inten    --    307.5593               715.5941                52.2379

                     40                     41                     42
                      A                      A                      A
 Frequencies --   1324.7390              1360.7192              1371.0270
 Red. masses --      4.4863                 5.7962                 2.9183
 Frc consts  --      4.6388                 6.3231                 3.2320
 IR Inten    --    142.0142                46.7990                63.4713

                     43                     44                     45
                      A                      A                      A
 Frequencies --   1472.5958              1481.2062              1484.4827
 Red. masses --      1.2369                 2.3133                 1.0439
 Frc consts  --      1.5804                 2.9903                 1.3554
 IR Inten    --     10.3705                 0.4126                18.3011

                     46                     47                     48
                      A                      A                      A
 Frequencies --   1489.8120              1503.4561              1606.3623
 Red. masses --      1.0620                 2.6505                 6.3840
 Frc consts  --      1.3888                 3.5298                 9.7058
 IR Inten    --     26.7889                19.2185               221.5777

                     49                     50                     51
                      A                      A                      A
 Frequencies --   1620.4775              1638.6029              1672.7910
 Red. masses --      5.9937                 7.4492                10.8007
 Frc consts  --      9.2733                11.7845                17.8068
 IR Inten    --    245.1329               594.6912               459.1888

                     52                     53                     54
                      A                      A                      A
 Frequencies --   1719.2174              3036.2190              3109.6321
 Red. masses --     12.4744                 1.0320                 1.1079
 Frc consts  --     21.7237                 5.6051                 6.3121
 IR Inten    --    415.5284                37.0951                26.4995

                     55                     56                     57
                      A                      A                      A
 Frequencies --   3164.1948              3179.6945              3191.7949
 Red. masses --      1.1032                 1.0874                 1.0911
 Frc consts  --      6.5080                 6.4774                 6.5493
 IR Inten    --     16.2411                 3.1723                 8.6882

                     58                     59                     60
                      A                      A                      A
 Frequencies --   3203.0954              3206.3926              3208.9106
 Red. masses --      1.0927                 1.0957                 1.0912
 Frc consts  --      6.6053                 6.6369                 6.6201
 IR Inten    --      3.2669                16.7116                 1.7110

 - Thermochemistry -
 -------------------
 Temperature   298.150 Kelvin.  Pressure   1.00000 Atm.
 Atom     1 has atomic number  6 and mass  12.00000

 Molecular mass:   188.04734 amu.
 Principal axes and moments of inertia in atomic units:
                           1         2         3
     Eigenvalues --  1416.368073259.653154664.46671
           X            0.98020  -0.19802   0.00071
           Y            0.19734   0.97713   0.07925
           Z           -0.01638  -0.07754   0.99685
 This molecule is an asymmetric top.
 Rotational symmetry number  1.
 Warning -- assumption of classical behavior for rotation
           may cause significant error
 Rotational temperatures (Kelvin)      0.06115     0.02657     0.01857
 Rotational constants (GHZ):           1.27420     0.55366     0.38691
 Zero-point vibrational energy     431909.9 (Joules/Mol)
                                  103.22895 (Kcal/Mol)
 Warning -- explicit consideration of  16 degrees of freedom as
           vibrations may cause significant error
 Vibrational temperatures:     59.57   161.18   171.88   225.30   273.68
          (Kelvin)            283.21   342.22   395.53   480.31   546.67
                              582.34   644.56   648.70   659.68   722.09
                              782.34   941.10   978.20  1012.25  1030.30
                             1059.78  1131.59  1185.00  1194.38  1244.71
                             1312.94  1336.10  1437.50  1472.23  1493.30
                             1527.11  1584.74  1634.98  1677.81  1695.51
                             1721.79  1775.76  1809.67  1847.36  1906.00
                             1957.77  1972.60  2118.74  2131.13  2135.84
                             2143.51  2163.14  2311.20  2331.51  2357.58
                             2406.77  2473.57  4368.44  4474.07  4552.57
                             4574.87  4592.28  4608.54  4613.28  4616.91

 Zero-point correction=                           0.164506 (Hartree/Particle)
 Thermal correction to Energy=                    0.175841
 Thermal correction to Enthalpy=                  0.176785
 Thermal correction to Gibbs Free Energy=         0.126828
 Sum of electronic and zero-point Energies=           -649.667643
 Sum of electronic and thermal Energies=              -649.656308
 Sum of electronic and thermal Enthalpies=            -649.655363
 Sum of electronic and thermal Free Energies=         -649.705320

                     E (Thermal)             CV                S
                      KCal/Mol        Cal/Mol-Kelvin    Cal/Mol-Kelvin
 Total                  110.342             43.574            105.144
 Electronic               0.000              0.000              0.000
 Translational            0.889              2.981             41.600
 Rotational               0.889              2.981             31.444
 Vibrational            108.565             37.612             32.099
 Vibration     1          0.594              1.981              5.191
 Vibration     2          0.607              1.940              3.233
 Vibration     3          0.609              1.933              3.109
 Vibration     4          0.620              1.895              2.591
 Vibration     5          0.634              1.853              2.226
 Vibration     6          0.636              1.844              2.162
 Vibration     7          0.656              1.783              1.819
 Vibration     8          0.677              1.720              1.565
 Vibration     9          0.715              1.608              1.241
 Vibration    10          0.750              1.513              1.039
 Vibration    11          0.770              1.460              0.945
 Vibration    12          0.807              1.365              0.802
 Vibration    13          0.810              1.359              0.793
 Vibration    14          0.817              1.342              0.770
 Vibration    15          0.857              1.246              0.653
 Vibration    16          0.899              1.153              0.557

 Optimization completed.
    -- Stationary point found.
 Normal termination of Gaussian 16 at Sun Feb 11 00:46:46 2024.
