 Gaussian 16, Revision A.03,
 Gaussian 16:  ES64L-G16RevA.03 25-Dec-2016

 --------------------------------------
 #P UB3LYP/6-311++G(d,p) nosym opt freq
 --------------------------------------

 -------
 Radical
 -------
 Symbolic Z-matrix:
 Charge = -1 Multiplicity = 2

 SCF Done:  E(UB3LYP) =  -1985.07577715     A.U. after   22 cycles
 SCF Done:  E(UB3LYP) =  -1985.08958063     A.U. after   19 cycles
 SCF Done:  E(UB3LYP) =  -1985.09187432     A.U. after   18 cycles
 SCF Done:  E(UB3LYP) =  -1985.09293388     A.U. after   19 cycles
 SCF Done:  E(UB3LYP) =  -1985.09370358     A.U. after   17 cycles
 SCF Done:  E(UB3LYP) =  -1985.09427376     A.U. after   18 cycles
 SCF Done:  E(UB3LYP) =  -1985.09490763     A.U. after   17 cycles
 SCF Done:  E(UB3LYP) =  -1985.09505367     A.U. after   17 cycles
 SCF Done:  E(UB3LYP) =  -1985.09556015     A.U. after   16 cycles
 SCF Done:  E(UB3LYP) =  -1985.09574417     A.U. after   17 cycles
 SCF Done:  E(UB3LYP) =  -1985.09750670     A.U. after   13 cycles
 SCF Done:  E(UB3LYP) =  -1985.09751031     A.U. after   13 cycles
 SCF Done:  E(UB3LYP) =  -1985.09751497     A.U. after   13 cycles
 SCF Done:  E(UB3LYP) =  -1985.09752063     A.U. after   13 cycles
 SCF Done:  E(UB3LYP) =  -1985.09752846     A.U. after   13 cycles
 SCF Done:  E(UB3LYP) =  -1985.09753125     A.U. after   13 cycles
 SCF Done:  E(UB3LYP) =  -1985.09753195     A.U. after   12 cycles
 SCF Done:  E(UB3LYP) =  -1985.09753200     A.U. after   11 cycles
 SCF Done:  E(UB3LYP) =  -1985.09753200     A.U. after    8 cycles
 Optimization completed.
    -- Stationary point found.
 Normal termination of Gaussian 16 at Wed Dec 20 11:57:01 2023.

 ----------------------------------------------------------------------
 #P Geom=AllCheck Guess=TCheck SCRF=Check GenChk UB3LYP/6-311++G(d,p) F
 req
 ----------------------------------------------------------------------

 Structure from the checkpoint file:  "101-rad.chk"
 -------
 Radical
 -------
 Charge = -1 Multiplicity = 2

                          Input orientation:
 ---------------------------------------------------------------------
 Center     Atomic      Atomic             Coordinates (Angstroms)
 Number     Number       Type             X           Y           Z
 ---------------------------------------------------------------------
      1          6           0       -2.018601   -5.446073    0.903517
      2          6           0       -0.831531   -5.621526    0.111284
      3          6           0       -0.116826   -4.571431   -0.417734
      4          6           0       -0.604841   -3.191673   -0.266977
      5          6           0       -2.485512   -4.059000    1.094584
      6          6           0       -1.816109   -3.018807    0.492851
      7          8           0       -2.679380   -6.390228    1.409891
      8          8           0        0.030358   -2.252989   -0.814243
      9          7           0       -3.683506   -3.990617    1.826833
     10          7           0        1.039950   -4.676033   -1.207900
     11          6           0       -3.852115   -3.205183    3.071838
     12          6           0       -2.561825   -2.817953    3.800074
     13          6           0       -4.804684   -1.999089    2.906420
     14          6           0        2.255990   -5.320815   -0.678408
     15          6           0        3.239238   -4.306390   -0.079382
     16          6           0        2.958814   -6.192544   -1.739078
     17          7           0       -5.557260   -2.028561    1.779395
     18          7           0        2.264364   -6.352547   -2.890347
     19          6           0        2.691878   -7.234577   -3.954934
     20          6           0       -6.425000   -0.933979    1.398893
     21          8           0       -4.923724   -1.152474    3.786670
     22          8           0        4.057478   -6.697665   -1.523965
     23         17           0       -0.355003   -7.294243   -0.207878
     24         17           0       -2.430336   -1.365908    0.582654
     25          1           0       -3.928048   -4.966531    1.995789
     26          1           0        1.240734   -3.722057   -1.514757
     27          1           0       -4.411763   -3.866654    3.745647
     28          1           0       -2.817002   -2.296382    4.723249
     29          1           0       -1.940693   -2.156849    3.196404
     30          1           0       -1.987218   -3.715851    4.038905
     31          1           0        1.959050   -6.022174    0.102979
     32          1           0        2.769303   -3.777687    0.752530
     33          1           0        3.536338   -3.565460   -0.828531
     34          1           0        4.137311   -4.816082    0.272413
     35          1           0       -5.239174   -2.694595    1.085248
     36          1           0        1.340028   -5.936235   -2.887525
     37          1           0        3.756469   -7.432290   -3.829299
     38          1           0        2.524085   -6.765726   -4.928461
     39          1           0        2.156248   -8.190940   -3.929760
     40          1           0       -7.285360   -1.315035    0.842968
     41          1           0       -5.902238   -0.196707    0.777365
     42          1           0       -6.772798   -0.434650    2.303238
 ---------------------------------------------------------------------

 SCF Done:  E(UB3LYP) =  -1985.09753200     A.U. after    1 cycles

 Alpha  occ. eigenvalues -- -101.44204-101.44107 -18.99630 -18.99444 -18.97714
 Alpha  occ. eigenvalues --  -18.97659 -14.24746 -14.24199 -14.22328 -14.22243
 Alpha  occ. eigenvalues --  -10.17769 -10.17481 -10.12768 -10.12733 -10.12679
 Alpha  occ. eigenvalues --  -10.12404 -10.12346 -10.11929 -10.11389 -10.11380
 Alpha  occ. eigenvalues --  -10.11230 -10.11213 -10.07467 -10.06681  -9.35668
 Alpha  occ. eigenvalues --   -9.35591  -7.12104  -7.12024  -7.11182  -7.11113
 Alpha  occ. eigenvalues --   -7.11103  -7.11033  -0.94745  -0.94514  -0.91067
 Alpha  occ. eigenvalues --   -0.90617  -0.84424  -0.84003  -0.82598  -0.82227
 Alpha  occ. eigenvalues --   -0.76226  -0.75134  -0.70095  -0.68111  -0.65948
 Alpha  occ. eigenvalues --   -0.63214  -0.62749  -0.60218  -0.57623  -0.55291
 Alpha  occ. eigenvalues --   -0.53803  -0.49261  -0.48941  -0.48130  -0.46899
 Alpha  occ. eigenvalues --   -0.44491  -0.42646  -0.42442  -0.40062  -0.39399
 Alpha  occ. eigenvalues --   -0.39116  -0.37755  -0.36990  -0.36500  -0.35699
 Alpha  occ. eigenvalues --   -0.34363  -0.34022  -0.33892  -0.33436  -0.32969
 Alpha  occ. eigenvalues --   -0.32010  -0.31246  -0.31145  -0.30935  -0.30792
 Alpha  occ. eigenvalues --   -0.30524  -0.29686  -0.29391  -0.28271  -0.28100
 Alpha  occ. eigenvalues --   -0.27900  -0.27125  -0.26251  -0.25599  -0.25298
 Alpha  occ. eigenvalues --   -0.22805  -0.21420  -0.20768  -0.20553  -0.20292
 Alpha  occ. eigenvalues --   -0.17311  -0.17045  -0.16597  -0.16199  -0.15286
 Alpha  occ. eigenvalues --   -0.14422  -0.14083  -0.11134  -0.05323
 Alpha virt. eigenvalues --    0.06281   0.06520   0.07896   0.08336   0.09116
 Alpha virt. eigenvalues --    0.09408   0.09567   0.09908   0.10224   0.10403
 Alpha virt. eigenvalues --    0.10594   0.11235   0.11403   0.11793   0.12162

  Beta  occ. eigenvalues -- -101.44204-101.44107 -18.99630 -18.99444 -18.97075
  Beta  occ. eigenvalues --  -18.97002 -14.24743 -14.24196 -14.22269 -14.22187
  Beta  occ. eigenvalues --  -10.17770 -10.17480 -10.12664 -10.12608 -10.12577
  Beta  occ. eigenvalues --  -10.12404 -10.12330 -10.11929 -10.11380 -10.11372
  Beta  occ. eigenvalues --  -10.11038 -10.11027 -10.07464 -10.06679  -9.35668
  Beta  occ. eigenvalues --   -9.35590  -7.12107  -7.12027  -7.11178  -7.11114
  Beta  occ. eigenvalues --   -7.11099  -7.11034  -0.94744  -0.94512  -0.90066
  Beta  occ. eigenvalues --   -0.89546  -0.84309  -0.83886  -0.82442  -0.82058
  Beta  occ. eigenvalues --   -0.76062  -0.75065  -0.69793  -0.67972  -0.65814
  Beta  occ. eigenvalues --   -0.63207  -0.62744  -0.60063  -0.56858  -0.55241
  Beta  occ. eigenvalues --   -0.53598  -0.49141  -0.48835  -0.47937  -0.46672
  Beta  occ. eigenvalues --   -0.44375  -0.42539  -0.42345  -0.39884  -0.39311
  Beta  occ. eigenvalues --   -0.38989  -0.37652  -0.36949  -0.36462  -0.35620
  Beta  occ. eigenvalues --   -0.34248  -0.33902  -0.33815  -0.33284  -0.32652
  Beta  occ. eigenvalues --   -0.31345  -0.31125  -0.30974  -0.30829  -0.30638
  Beta  occ. eigenvalues --   -0.30123  -0.29484  -0.29136  -0.28081  -0.27832
  Beta  occ. eigenvalues --   -0.27052  -0.26575  -0.25844  -0.25274  -0.24913
  Beta  occ. eigenvalues --   -0.22072  -0.20946  -0.20519  -0.19909  -0.19690
  Beta  occ. eigenvalues --   -0.17270  -0.16903  -0.16166  -0.15912  -0.14680
  Beta  occ. eigenvalues --   -0.13811  -0.12590  -0.10555
  Beta virt. eigenvalues --    0.01546   0.06282   0.06521   0.07913   0.08346
  Beta virt. eigenvalues --    0.09301   0.09453   0.09593   0.10223   0.10299
  Beta virt. eigenvalues --    0.10591   0.11014   0.11282   0.11421   0.11810

 Mulliken charges and spin densities:
               1          2
     1  C   -0.775856   0.101971
     2  C    0.187572  -0.010392
     3  C   -0.184995   0.156013
     4  C   -0.711998   0.094010
     5  C   -0.266045   0.134950
     6  C    0.120813  -0.014373
     7  O   -0.324890   0.235856
     8  O   -0.318179   0.243132
     9  N   -0.106038   0.022282
    10  N    0.087184   0.019374
    11  C    0.414782   0.007313
    12  C   -0.584603  -0.001101
    13  C   -0.503787  -0.001161
    14  C    0.143083   0.011072
    15  C   -0.606568  -0.001160
    16  C   -0.261911  -0.004050
    17  N   -0.139915  -0.000354
    18  N   -0.229339  -0.001083
    19  C   -0.279693  -0.000530
    20  C   -0.314819  -0.000541
    21  O   -0.354863   0.000051
    22  O   -0.378622  -0.000082
    23  Cl   0.435238   0.002753
    24  Cl   0.520696   0.003770
    25  H    0.284247  -0.002489
    26  H    0.261572  -0.002507
    27  H    0.189863   0.000335
    28  H    0.173953  -0.000266
    29  H    0.121836   0.000788
    30  H    0.161413   0.000462
    31  H    0.156638   0.001627
    32  H    0.176600  -0.000325
    33  H    0.146867   0.000143
    34  H    0.170059   0.000706
    35  H    0.344619   0.001827
    36  H    0.345498   0.001819
    37  H    0.173074   0.000065
    38  H    0.131568   0.000056
    39  H    0.150696  -0.000069
    40  H    0.127230   0.000084
    41  H    0.156397  -0.000046
    42  H    0.160622   0.000072
 Sum of Mulliken charges =  -1.00000   1.00000

 Dipole moment (field-independent basis, Debye):
    X=              3.8011    Y=             19.7863    Z=             -4.5031  Tot=             20.6452
 Quadrupole moment (field-independent basis, Debye-Ang):
   XX=           -208.4773   YY=           -287.6319   ZZ=           -176.4619
   XY=              4.2465   XZ=             30.7146   YZ=              8.6498

  Exact polarizability: 290.940 -33.510 271.363 -55.792  17.390 235.309
 Approx polarizability: 393.894  18.915 435.830 -61.289 -24.097 347.149

                      1                      2                      3
                      A                      A                      A
 Frequencies --     16.9113                19.4895                33.9417
 Red. masses --      5.1559                 5.4093                 5.7726
 Frc consts  --      0.0009                 0.0012                 0.0039
 IR Inten    --      0.1809                 0.1548                 2.3540

                      4                      5                      6
                      A                      A                      A
 Frequencies --     42.6587                46.0357                49.8716
 Red. masses --      4.5293                 3.6728                 1.2278
 Frc consts  --      0.0049                 0.0046                 0.0018
 IR Inten    --      0.0390                 0.7000                 0.5010

                      7                      8                      9
                      A                      A                      A
 Frequencies --     59.8617                67.9287                74.1553
 Red. masses --      5.2713                 1.0622                 5.8485
 Frc consts  --      0.0111                 0.0029                 0.0189
 IR Inten    --      8.8014                 0.3174                 1.9207

                     10                     11                     12
                      A                      A                      A
 Frequencies --     96.1047               102.3651               129.9819
 Red. masses --      6.5454                 5.6123                 5.6986
 Frc consts  --      0.0356                 0.0346                 0.0567
 IR Inten    --      3.5787                 3.3594                 3.9850

                     13                     14                     15
                      A                      A                      A
 Frequencies --    137.4911               140.2828               147.8581
 Red. masses --      4.6715                 5.5026                 4.7255
 Frc consts  --      0.0520                 0.0638                 0.0609
 IR Inten    --      7.0953                 1.6255                 3.3350

                     16                     17                     18
                      A                      A                      A
 Frequencies --    163.7315               178.0957               208.0108
 Red. masses --      3.4653                 5.1771                 1.7787
 Frc consts  --      0.0547                 0.0967                 0.0453
 IR Inten    --      3.8505                 9.1510                 0.7963

                     19                     20                     21
                      A                      A                      A
 Frequencies --    210.7973               220.2429               232.8530
 Red. masses --      6.8977                 2.0977                 5.1246
 Frc consts  --      0.1806                 0.0600                 0.1637
 IR Inten    --      5.0948                 0.7682                 1.6819

                     22                     23                     24
                      A                      A                      A
 Frequencies --    239.6006               264.9221               271.0284
 Red. masses --      1.0971                 4.7835                 5.9815
 Frc consts  --      0.0371                 0.1978                 0.2589
 IR Inten    --      0.3495                 1.3371                 2.8646

                     25                     26                     27
                      A                      A                      A
 Frequencies --    311.1806               312.5291               319.0075
 Red. masses --      7.4685                 4.4812                 3.7897
 Frc consts  --      0.4261                 0.2579                 0.2272
 IR Inten    --      2.4789                 1.6712                14.2886

                     28                     29                     30
                      A                      A                      A
 Frequencies --    338.1797               341.5077               371.2940
 Red. masses --      5.2474                 8.6580                 5.7492
 Frc consts  --      0.3536                 0.5949                 0.4670
 IR Inten    --     16.0482                 4.0188                10.6228

                     31                     32                     33
                      A                      A                      A
 Frequencies --    380.4625               386.8475               413.3462
 Red. masses --      6.0639                 6.5362                 4.1165
 Frc consts  --      0.5172                 0.5763                 0.4144
 IR Inten    --      4.2788                 1.1733                19.1119

                     34                     35                     36
                      A                      A                      A
 Frequencies --    444.6035               472.7480               498.7612
 Red. masses --      7.3773                 5.0934                 7.6249
 Frc consts  --      0.8592                 0.6707                 1.1176
 IR Inten    --      4.0338                 6.0302                10.0520

                     37                     38                     39
                      A                      A                      A
 Frequencies --    539.6234               555.3431               563.1458
 Red. masses --      5.2688                 6.1693                 4.3570
 Frc consts  --      0.9040                 1.1210                 0.8141
 IR Inten    --     15.9973                 2.7484                 9.1787

                     40                     41                     42
                      A                      A                      A
 Frequencies --    576.0802               616.9982               624.9395
 Red. masses --      5.8633                 4.8478                 5.3161
 Frc consts  --      1.1465                 1.0873                 1.2233
 IR Inten    --     24.8045                 9.5162                13.6945

                     43                     44                     45
                      A                      A                      A
 Frequencies --    666.7230               676.5305               737.3205
 Red. masses --      1.2458                 1.2721                 6.8906
 Frc consts  --      0.3263                 0.3430                 2.2071
 IR Inten    --     18.0738                54.6878                 7.6373

                     46                     47                     48
                      A                      A                      A
 Frequencies --    747.3704               757.4319               762.0519
 Red. masses --      4.9052                 4.7433                 4.9548
 Frc consts  --      1.6143                 1.6033                 1.6953
 IR Inten    --     11.7007                17.7646                36.2264

                     49                     50                     51
                      A                      A                      A
 Frequencies --    770.6980               783.3901               830.3530
 Red. masses --      5.0271                 4.0616                 2.6828
 Frc consts  --      1.7593                 1.4686                 1.0898
 IR Inten    --     27.9181                56.8500                34.5386

                     52                     53                     54
                      A                      A                      A
 Frequencies --    846.4150               867.3086               878.6915
 Red. masses --      2.6200                 2.2036                 2.2515
 Frc consts  --      1.1059                 0.9766                 1.0242
 IR Inten    --     48.3280                38.4249                48.5218

                     55                     56                     57
                      A                      A                      A
 Frequencies --    918.4129               948.9715               960.0641
 Red. masses --      4.3947                 1.7010                 1.6725
 Frc consts  --      2.1840                 0.9025                 0.9083
 IR Inten    --      3.3293                48.4751                69.3002

                     58                     59                     60
                      A                      A                      A
 Frequencies --   1016.0284              1021.6897              1042.1619
 Red. masses --      2.2139                 2.4099                 3.3845
 Frc consts  --      1.3465                 1.4821                 2.1658
 IR Inten    --     16.8740                11.8328                 9.6033

                     61                     62                     63
                      A                      A                      A
 Frequencies --   1091.5541              1107.8166              1116.9849
 Red. masses --      2.5105                 2.2984                 4.0371
 Frc consts  --      1.7624                 1.6619                 2.9676
 IR Inten    --      4.9094                 5.4206                 4.2510

                     64                     65                     66
                      A                      A                      A
 Frequencies --   1125.0682              1142.2102              1143.7000
 Red. masses --      2.6316                 1.3160                 1.3284
 Frc consts  --      1.9626                 1.0116                 1.0237
 IR Inten    --     55.0132                13.1375                19.5413

                     67                     68                     69
                      A                      A                      A
 Frequencies --   1150.5293              1164.2281              1175.6399
 Red. masses --      2.7157                 2.2367                 3.6296
 Frc consts  --      2.1180                 1.7862                 2.9557
 IR Inten    --     31.3467                66.4400               184.1492

                     70                     71                     72
                      A                      A                      A
 Frequencies --   1181.9286              1185.4824              1213.5095
 Red. masses --      1.8438                 2.3269                 4.5429
 Frc consts  --      1.5175                 1.9267                 3.9416
 IR Inten    --     23.2155                26.4375                47.0561

                     73                     74                     75
                      A                      A                      A
 Frequencies --   1223.1773              1245.7770              1251.3633
 Red. masses --      5.1007                 1.9238                 2.0712
 Frc consts  --      4.4964                 1.7591                 1.9109
 IR Inten    --    145.4461                39.0387                61.5819

                     76                     77                     78
                      A                      A                      A
 Frequencies --   1312.5847              1317.0574              1327.4783
 Red. masses --      1.3878                 1.4108                 2.5021
 Frc consts  --      1.4088                 1.4419                 2.5978
 IR Inten    --     13.5610                 5.9528                 9.3840

                     79                     80                     81
                      A                      A                      A
 Frequencies --   1363.1871              1371.6659              1399.1366
 Red. masses --      1.2600                 1.7555                 1.2252
 Frc consts  --      1.3795                 1.9460                 1.4131
 IR Inten    --     42.6426                15.3218                16.6742

                     82                     83                     84
                      A                      A                      A
 Frequencies --   1402.8336              1436.2913              1437.8530
 Red. masses --      1.2284                 1.1851                 1.1860
 Frc consts  --      1.4243                 1.4405                 1.4447
 IR Inten    --     20.7774                14.7388                17.1683

                     85                     86                     87
                      A                      A                      A
 Frequencies --   1485.3353              1487.4814              1489.2141
 Red. masses --      1.1237                 1.1163                 1.0528
 Frc consts  --      1.4606                 1.4553                 1.3757
 IR Inten    --    108.2652               104.8786                20.0434

                     88                     89                     90
                      A                      A                      A
 Frequencies --   1490.3659              1494.5507              1498.4336
 Red. masses --      1.0682                 1.4879                 1.1995
 Frc consts  --      1.3979                 1.9582                 1.5868
 IR Inten    --     13.7130               350.2567                56.3509

                     91                     92                     93
                      A                      A                      A
 Frequencies --   1504.3591              1506.3413              1507.2061
 Red. masses --      1.1849                 1.1510                 1.3174
 Frc consts  --      1.5800                 1.5387                 1.7633
 IR Inten    --     74.3321                60.2405               133.1646

                     94                     95                     96
                      A                      A                      A
 Frequencies --   1518.5593              1537.8682              1560.1653
 Red. masses --      2.2326                 7.4555                 1.8266
 Frc consts  --      3.0334                10.3888                 2.6196
 IR Inten    --     32.3998               133.5284               169.0274

                     97                     98                     99
                      A                      A                      A
 Frequencies --   1564.2223              1571.9460              1589.3131
 Red. masses --      1.8876                 2.1470                 1.8266
 Frc consts  --      2.7211                 3.1257                 2.7184
 IR Inten    --    179.1807                72.5349                65.1312

                    100                    101                    102
                      A                      A                      A
 Frequencies --   1626.2390              1718.4000              1722.0865
 Red. masses --      5.5588                 9.5152                 9.5327
 Frc consts  --      8.6616                16.5546                16.6562
 IR Inten    --      6.6936               364.0553               330.5308

                    103                    104                    105
                      A                      A                      A
 Frequencies --   3003.0559              3003.6778              3005.5374
 Red. masses --      1.0572                 1.0716                 1.0435
 Frc consts  --      5.6173                 5.6965                 5.5537
 IR Inten    --     60.6594                51.1959                92.9252

                    106                    107                    108
                      A                      A                      A
 Frequencies --   3026.7252              3047.2389              3060.0036
 Red. masses --      1.0385                 1.0367                 1.0954
 Frc consts  --      5.6052                 5.6718                 6.0433
 IR Inten    --     21.9072                21.5427                44.6204

                    109                    110                    111
                      A                      A                      A
 Frequencies --   3065.4694              3081.4691              3099.4098
 Red. masses --      1.0915                 1.0868                 1.0937
 Frc consts  --      6.0434                 6.0801                 6.1903
 IR Inten    --     50.2649                10.7527                15.5882

                    112                    113                    114
                      A                      A                      A
 Frequencies --   3115.7530              3119.2231              3122.0459
 Red. masses --      1.1005                 1.1027                 1.0993
 Frc consts  --      6.2946                 6.3213                 6.3133
 IR Inten    --     15.3032                19.6238                 9.3966

                    115                    116                    117
                      A                      A                      A
 Frequencies --   3122.1608              3133.8659              3417.9064
 Red. masses --      1.0985                 1.1016                 1.0723
 Frc consts  --      6.3089                 6.3745                 7.3807
 IR Inten    --      6.8043                12.1251                53.4671

                    118                    119                    120
                      A                      A                      A
 Frequencies --   3434.1630              3542.7099              3551.9950
 Red. masses --      1.0730                 1.0772                 1.0767
 Frc consts  --      7.4558                 7.9654                 8.0035
 IR Inten    --     80.4588               198.8763               136.2803

 - Thermochemistry -
 -------------------
 Temperature   298.150 Kelvin.  Pressure   1.00000 Atm.
 Atom     1 has atomic number  6 and mass  12.00000

 Molecular mass:   376.07051 amu.
 Principal axes and moments of inertia in atomic units:
                           1         2         3
     Eigenvalues --  3849.32965********************
           X            0.75683   0.38912   0.52516
           Y           -0.47461   0.87960   0.03224
           Z           -0.44939  -0.27365   0.85039
 This molecule is an asymmetric top.
 Rotational symmetry number  1.
 Warning -- assumption of classical behavior for rotation
           may cause significant error
 Rotational temperatures (Kelvin)      0.02250     0.00454     0.00423
 Rotational constants (GHZ):           0.46885     0.09455     0.08812
 Zero-point vibrational energy     844348.1 (Joules/Mol)
                                  201.80405 (Kcal/Mol)
 Warning -- explicit consideration of  41 degrees of freedom as
           vibrations may cause significant error
 Vibrational temperatures:     24.33    28.04    48.83    61.38    66.24
          (Kelvin)             71.75    86.13    97.73   106.69   138.27
                              147.28   187.02   197.82   201.84   212.73
                              235.57   256.24   299.28   303.29   316.88
                              335.02   344.73   381.16   389.95   447.72
                              449.66   458.98   486.57   491.35   534.21
                              547.40   556.59   594.71   639.69   680.18
                              717.61   776.40   799.01   810.24   828.85
                              887.72   899.15   959.27   973.38  1060.84
                             1075.30  1089.78  1096.42  1108.86  1127.12
                             1194.69  1217.80  1247.86  1264.24  1321.39
                             1365.36  1381.32  1461.84  1469.98  1499.44
                             1570.50  1593.90  1607.09  1618.72  1643.39
                             1645.53  1655.36  1675.06  1691.48  1700.53
                             1705.64  1745.97  1759.88  1792.40  1800.43
                             1888.52  1894.95  1909.95  1961.32  1973.52
                             2013.05  2018.36  2066.50  2068.75  2137.07
                             2140.15  2142.65  2144.30  2150.33  2155.91
                             2164.44  2167.29  2168.53  2184.87  2212.65
                             2244.73  2250.57  2261.68  2286.67  2339.80
                             2472.39  2477.70  4320.73  4321.62  4324.30
                             4354.78  4384.30  4402.66  4410.53  4433.55
                             4459.36  4482.87  4487.87  4491.93  4492.09
                             4508.93  4917.61  4940.99  5097.17  5110.53

 Zero-point correction=                           0.321595 (Hartree/Particle)
 Thermal correction to Energy=                    0.347670
 Thermal correction to Enthalpy=                  0.348615
 Thermal correction to Gibbs Free Energy=         0.261315
 Sum of electronic and zero-point Energies=          -1984.775937
 Sum of electronic and thermal Energies=             -1984.749862
 Sum of electronic and thermal Enthalpies=           -1984.748917
 Sum of electronic and thermal Free Energies=        -1984.836217

                     E (Thermal)             CV                S
                      KCal/Mol        Cal/Mol-Kelvin    Cal/Mol-Kelvin
 Total                  218.166             92.463            183.737
 Electronic               0.000              0.000              1.377
 Translational            0.889              2.981             43.666
 Rotational               0.889              2.981             35.663
 Vibrational            216.389             86.502            103.031
 Vibration     1          0.593              1.986              6.967
 Vibration     2          0.593              1.986              6.686
 Vibration     3          0.594              1.983              5.585
 Vibration     4          0.595              1.980              5.132
 Vibration     5          0.595              1.979              4.981
 Vibration     6          0.595              1.978              4.822
 Vibration     7          0.597              1.973              4.462
 Vibration     8          0.598              1.970              4.212
 Vibration     9          0.599              1.966              4.040
 Vibration    10          0.603              1.952              3.532
 Vibration    11          0.604              1.947              3.409
 Vibration    12          0.612              1.923              2.946
 Vibration    13          0.614              1.916              2.838
 Vibration    14          0.615              1.913              2.800
 Vibration    15          0.617              1.905              2.700
 Vibration    16          0.623              1.887              2.506
 Vibration    17          0.629              1.869              2.348
 Vibration    18          0.641              1.828              2.061
 Vibration    19          0.643              1.824              2.037
 Vibration    20          0.647              1.810              1.957
 Vibration    21          0.654              1.791              1.857
 Vibration    22          0.657              1.780              1.806
 Vibration    23          0.671              1.737              1.629
 Vibration    24          0.675              1.727              1.590
 Vibration    25          0.700              1.652              1.356
 Vibration    26          0.701              1.650              1.349
 Vibration    27          0.705              1.637              1.315
 Vibration    28          0.718              1.599              1.221
 Vibration    29          0.721              1.593              1.205
 Vibration    30          0.743              1.531              1.074
 Vibration    31          0.750              1.512              1.037
 Vibration    32          0.755              1.498              1.012
 Vibration    33          0.777              1.441              0.915
 Vibration    34          0.804              1.373              0.812
 Vibration    35          0.830              1.311              0.730
 Vibration    36          0.854              1.253              0.661
 Vibration    37          0.895              1.162              0.566
 Vibration    38          0.911              1.128              0.533
 Vibration    39          0.919              1.111              0.518
 Vibration    40          0.932              1.083              0.493
 Vibration    41          0.977              0.996              0.421

 Optimization completed.
    -- Stationary point found.
 Normal termination of Gaussian 16 at Wed Dec 20 15:12:00 2023.
