 Gaussian 16, Revision A.03,
 Gaussian 16:  ES64L-G16RevA.03 25-Dec-2016

 ----------------------------------------------------------------
 #P UB3LYP/6-311++G(d,p) SCRF=(PCM,Solvent=n,n-DiMethylFormamide)
 ----------------------------------------------------------------

 ------------------
 Radical PCM in DMF
 ------------------
 Symbolic Z-matrix:
 Charge = -1 Multiplicity = 2

                         Standard orientation:
 ---------------------------------------------------------------------
 Center     Atomic      Atomic             Coordinates (Angstroms)
 Number     Number       Type             X           Y           Z
 ---------------------------------------------------------------------
      1          6           0       -4.812145    0.224826   -0.751962
      2          6           0       -5.485888   -0.979590   -0.834429
      3          6           0       -4.846813   -2.173810   -0.443850
      4          6           0       -3.483118    0.279440   -0.278744
      5          6           0       -2.835449   -0.926408    0.116072
      6          6           0       -3.542557   -2.137782    0.022348
      7          6           0       -2.778504    1.540932   -0.192477
      8          6           0       -1.422303    1.495032    0.303435
      9          6           0       -0.768302    0.347964    0.700869
     10          6           0       -1.444576   -0.928736    0.617808
     11          8           0       -3.260947    2.675460   -0.517855
     12          8           0       -0.881737   -2.001870    0.958870
     13          1           0       -5.282345    1.156409   -1.046239
     14          1           0       -6.508270   -1.006654   -1.200456
     15          1           0       -5.376740   -3.119481   -0.508905
     16          1           0       -3.026276   -3.040580    0.328709
     17          8           0       -0.820905    2.719427    0.354089
     18          6           0        0.650686    0.383519    1.206681
     19          6           0        1.695499    0.112964    0.106754
     20          6           0        3.135491    0.114441    0.631334
     21          6           0        4.186745   -0.155069   -0.451614
     22          6           0        5.628248   -0.157272    0.070170
     23          1           0       -1.534766    3.308514    0.023049
     24          1           0        0.756796   -0.384739    1.979403
     25          1           0        0.853523    1.358903    1.660886
     26          1           0        1.591303    0.870227   -0.679619
     27          1           0        1.472593   -0.856476   -0.351495
     28          1           0        3.230491   -0.641742    1.422058
     29          1           0        3.348151    1.081821    1.107057
     30          1           0        4.090793    0.599755   -1.243393
     31          1           0        3.973183   -1.121309   -0.927027
     32          1           0        5.724989   -0.912129    0.862054
     33          1           0        5.842738    0.809137    0.546172
     34          6           0        6.679531   -0.427863   -1.012343
     35          6           0        8.116413   -0.428404   -0.480681
     36          1           0        6.584042    0.326109   -1.803573
     37          1           0        6.466431   -1.393387   -1.487531
     38          1           0        8.370872    0.536655   -0.029953
     39          1           0        8.841321   -0.624565   -1.276974
     40          1           0        8.252135   -1.195722    0.288706
 ---------------------------------------------------------------------

 SCF Done:  E(UB3LYP) =  -885.943025897     A.U. after   20 cycles

 The electronic state is 2-A.
 Alpha  occ. eigenvalues --  -19.14248 -19.08508 -19.07306 -10.22212 -10.22030
 Alpha  occ. eigenvalues --  -10.21978 -10.17396 -10.17250 -10.17174 -10.17138
 Alpha  occ. eigenvalues --  -10.17058 -10.16907 -10.16136 -10.16032 -10.15772
 Alpha  occ. eigenvalues --  -10.15728 -10.15723 -10.15656 -10.15595 -10.15428
 Alpha  occ. eigenvalues --   -1.06240  -0.99850  -0.99488  -0.85789  -0.81354
 Alpha  occ. eigenvalues --   -0.80081  -0.77645  -0.75112  -0.74881  -0.71813
 Alpha  occ. eigenvalues --   -0.68208  -0.65917  -0.62469  -0.61278  -0.58813
 Alpha  occ. eigenvalues --   -0.57259  -0.57205  -0.56682  -0.53602  -0.50363
 Alpha  occ. eigenvalues --   -0.48422  -0.47692  -0.46141  -0.45245  -0.44658
 Alpha  occ. eigenvalues --   -0.43726  -0.42688  -0.42609  -0.42065  -0.41434
 Alpha  occ. eigenvalues --   -0.41005  -0.39970  -0.39586  -0.38690  -0.38004
 Alpha  occ. eigenvalues --   -0.37586  -0.36749  -0.36318  -0.35841  -0.34599
 Alpha  occ. eigenvalues --   -0.34260  -0.33723  -0.33428  -0.33273  -0.32114
 Alpha  occ. eigenvalues --   -0.31998  -0.31691  -0.30761  -0.26643  -0.25892
 Alpha  occ. eigenvalues --   -0.25729  -0.23829  -0.22671  -0.15004
 Alpha virt. eigenvalues --   -0.03227  -0.00779  -0.00438  -0.00032   0.00660
 Alpha virt. eigenvalues --    0.01067   0.01136   0.01782   0.02090   0.02858
 Alpha virt. eigenvalues --    0.02988   0.03725   0.04320   0.04588   0.04706

  Beta  occ. eigenvalues --  -19.14201 -19.07881 -19.06773 -10.22079 -10.21929
  Beta  occ. eigenvalues --  -10.21693 -10.17380 -10.17246 -10.17065 -10.17049
  Beta  occ. eigenvalues --  -10.17007 -10.16932 -10.16056 -10.16032 -10.15771
  Beta  occ. eigenvalues --  -10.15735 -10.15723 -10.15655 -10.15587 -10.15428
  Beta  occ. eigenvalues --   -1.06026  -0.98921  -0.98424  -0.85554  -0.81173
  Beta  occ. eigenvalues --   -0.79935  -0.77504  -0.74897  -0.74755  -0.71718
  Beta  occ. eigenvalues --   -0.67783  -0.65394  -0.62354  -0.61093  -0.58646
  Beta  occ. eigenvalues --   -0.57256  -0.57122  -0.56473  -0.53428  -0.50134
  Beta  occ. eigenvalues --   -0.48244  -0.47574  -0.46010  -0.45152  -0.44612
  Beta  occ. eigenvalues --   -0.43212  -0.42558  -0.41969  -0.41957  -0.41057
  Beta  occ. eigenvalues --   -0.40798  -0.39707  -0.39323  -0.37848  -0.37629
  Beta  occ. eigenvalues --   -0.37303  -0.36658  -0.36167  -0.34736  -0.34428
  Beta  occ. eigenvalues --   -0.33628  -0.33441  -0.33133  -0.32677  -0.32098
  Beta  occ. eigenvalues --   -0.31951  -0.31652  -0.30667  -0.25341  -0.25023
  Beta  occ. eigenvalues --   -0.24678  -0.23326  -0.21776
  Beta virt. eigenvalues --   -0.08474  -0.02473  -0.00459  -0.00025   0.00328
  Beta virt. eigenvalues --    0.00693   0.01082   0.01145   0.01792   0.02094
  Beta virt. eigenvalues --    0.02875   0.02997   0.03738   0.04349   0.04598

 Mulliken charges and spin densities:
               1          2
     1  C    0.066201   0.074338
     2  C   -0.375260  -0.000986
     3  C   -0.450260   0.072593
     4  C    0.477914  -0.002433
     5  C   -0.071532   0.061705
     6  C    0.097778   0.002575
     7  C   -0.929502   0.166173
     8  C   -0.596852   0.058813
     9  C    2.028241   0.053036
    10  C   -0.749010   0.074801
    11  O   -0.524215   0.229589
    12  O   -0.455052   0.197709
    13  H    0.165697  -0.004066
    14  H    0.182703  -0.000634
    15  H    0.178175  -0.005183
    16  H    0.166140  -0.000279
    17  O   -0.284876   0.015918
    18  C   -0.391618   0.010735
    19  C   -0.609651  -0.002262
    20  C   -0.086916   0.002617
    21  C   -0.099412  -0.003170
    22  C   -0.275116  -0.000380
    23  H    0.290179  -0.003653
    24  H    0.198703   0.002557
    25  H    0.213026  -0.000591
    26  H    0.162089   0.002028
    27  H    0.173827  -0.001801
    28  H    0.112564   0.000507
    29  H    0.111220  -0.000299
    30  H    0.122937  -0.000015
    31  H    0.122515  -0.000013
    32  H    0.125711  -0.000004
    33  H    0.125335  -0.000008
    34  C   -0.223807  -0.000023
    35  C   -0.683338   0.000103
    36  H    0.130789  -0.000002
    37  H    0.131040  -0.000003
    38  H    0.139770  -0.000015
    39  H    0.144032   0.000020
    40  H    0.139832   0.000007
 Sum of Mulliken charges =  -1.00000   1.00000

 Dipole moment (field-independent basis, Debye):
    X=              8.9258    Y=             -1.5863    Z=             -1.4905  Tot=              9.1874
 Quadrupole moment (field-independent basis, Debye-Ang):
   XX=           -151.6135   YY=           -149.3949   ZZ=           -130.9568
   XY=             13.7273   XZ=             -0.8319   YZ=              6.0700

 Normal termination of Gaussian 16 at Sun Jan 21 08:42:44 2024.
