 Gaussian 16, Revision A.03,
 Gaussian 16:  ES64L-G16RevA.03 25-Dec-2016

 ----------------------------------------------------------------------
 #P UB3LYP/6-311++G(d,p) nosym opt freq SCRF=(PCM,Solvent=n,n-DiMethylF
 ormamide)
 ----------------------------------------------------------------------

 --------
 Oxidized
 --------
 Symbolic Z-matrix:
 Charge =  0 Multiplicity = 1

 SCF Done:  E(UB3LYP) =  -839.466501948     A.U. after   14 cycles
 SCF Done:  E(UB3LYP) =  -839.466643659     A.U. after   12 cycles
 SCF Done:  E(UB3LYP) =  -839.466671142     A.U. after   12 cycles
 SCF Done:  E(UB3LYP) =  -839.466682403     A.U. after   11 cycles
 SCF Done:  E(UB3LYP) =  -839.466683140     A.U. after   10 cycles
 SCF Done:  E(UB3LYP) =  -839.466684486     A.U. after    9 cycles
 SCF Done:  E(UB3LYP) =  -839.466684335     A.U. after    9 cycles
 SCF Done:  E(UB3LYP) =  -839.466684700     A.U. after    8 cycles
 SCF Done:  E(UB3LYP) =  -839.466684620     A.U. after   10 cycles
 SCF Done:  E(UB3LYP) =  -839.466684509     A.U. after    8 cycles
 Optimization completed.
    -- Stationary point found.
 Normal termination of Gaussian 16 at Sat Feb 10 22:27:59 2024.

 ----------------------------------------------------------------------
 #P Geom=AllCheck Guess=TCheck SCRF=Check GenChk UB3LYP/6-311++G(d,p) F
 req
 ----------------------------------------------------------------------

 Structure from the checkpoint file:  "186.chk"
 --------
 Oxidized
 --------
 Charge =  0 Multiplicity = 1

                          Input orientation:
 ---------------------------------------------------------------------
 Center     Atomic      Atomic             Coordinates (Angstroms)
 Number     Number       Type             X           Y           Z
 ---------------------------------------------------------------------
      1          8           0        3.098576   -2.184061    0.220946
      2          6           0        2.780130   -0.880004    0.260521
      3          6           0        3.816595    0.048806    0.428091
      4          6           0        3.530030    1.403091    0.473092
      5          6           0        2.214480    1.864991    0.353091
      6          6           0        1.175062    0.959432    0.187296
      7          6           0       -0.222930    1.488310    0.060325
      8          8           0       -0.412733    2.697464    0.089726
      9          6           0       -1.323999    0.505181   -0.099724
     10          6           0       -2.677675    0.901797   -0.208883
     11          8           0       -3.007915    2.212530   -0.156871
     12          6           0       -3.682608   -0.063337   -0.369789
     13          6           0       -3.371930   -1.411875   -0.420771
     14          6           0       -2.047113   -1.827124   -0.310459
     15          6           0       -1.036716   -0.883171   -0.151633
     16          6           0        0.357761   -1.386660   -0.034143
     17          8           0        0.584994   -2.608103   -0.081068
     18          6           0        1.442741   -0.427364    0.138805
     19          1           0        2.251856   -2.681143    0.098487
     20          1           0        4.832056   -0.316934    0.519685
     21          1           0        4.337778    2.113903    0.602970
     22          1           0        1.992600    2.922827    0.387814
     23          1           0       -3.966672    2.304630   -0.234870
     24          1           0       -4.713977    0.263036   -0.454522
     25          1           0       -4.163899   -2.140405   -0.545730
     26          1           0       -1.786489   -2.875814   -0.345703
 ---------------------------------------------------------------------

 SCF Done:  E(UB3LYP) =  -839.466684509     A.U. after    1 cycles

 Alpha  occ. eigenvalues --  -19.17728 -19.16453 -19.14133 -19.12588 -10.29150
 Alpha  occ. eigenvalues --  -10.28406 -10.27323 -10.26908 -10.21596 -10.21397
 Alpha  occ. eigenvalues --  -10.21212 -10.20914 -10.20467 -10.20355 -10.20212
 Alpha  occ. eigenvalues --  -10.19607 -10.19581 -10.19321  -1.09432  -1.09286
 Alpha  occ. eigenvalues --   -1.06258  -1.05931  -0.89569  -0.88114  -0.81843
 Alpha  occ. eigenvalues --   -0.77937  -0.77819  -0.77028  -0.69691  -0.67736
 Alpha  occ. eigenvalues --   -0.66354  -0.62623  -0.61599  -0.57827  -0.56829
 Alpha  occ. eigenvalues --   -0.54154  -0.52954  -0.51505  -0.49807  -0.49273
 Alpha  occ. eigenvalues --   -0.47823  -0.46839  -0.46204  -0.45599  -0.45333
 Alpha  occ. eigenvalues --   -0.44383  -0.41945  -0.41720  -0.41338  -0.41120
 Alpha  occ. eigenvalues --   -0.39742  -0.39334  -0.38305  -0.37631  -0.36267
 Alpha  occ. eigenvalues --   -0.35740  -0.29539  -0.29533  -0.28196  -0.27237
 Alpha  occ. eigenvalues --   -0.25761  -0.25168
 Alpha virt. eigenvalues --   -0.12258  -0.06912  -0.04217  -0.01735  -0.00803
 Alpha virt. eigenvalues --    0.00006   0.00557   0.01492   0.01863   0.02998
 Alpha virt. eigenvalues --    0.03512   0.03771   0.03789   0.04099   0.04340

  Beta  occ. eigenvalues --  -19.17728 -19.16453 -19.14133 -19.12588 -10.29150
  Beta  occ. eigenvalues --  -10.28406 -10.27323 -10.26908 -10.21596 -10.21397
  Beta  occ. eigenvalues --  -10.21212 -10.20914 -10.20467 -10.20355 -10.20212
  Beta  occ. eigenvalues --  -10.19607 -10.19581 -10.19321  -1.09432  -1.09286
  Beta  occ. eigenvalues --   -1.06258  -1.05931  -0.89569  -0.88114  -0.81843
  Beta  occ. eigenvalues --   -0.77937  -0.77819  -0.77028  -0.69691  -0.67736
  Beta  occ. eigenvalues --   -0.66354  -0.62623  -0.61599  -0.57827  -0.56829
  Beta  occ. eigenvalues --   -0.54154  -0.52954  -0.51505  -0.49807  -0.49273
  Beta  occ. eigenvalues --   -0.47823  -0.46839  -0.46204  -0.45599  -0.45333
  Beta  occ. eigenvalues --   -0.44383  -0.41945  -0.41720  -0.41338  -0.41120
  Beta  occ. eigenvalues --   -0.39742  -0.39334  -0.38305  -0.37631  -0.36267
  Beta  occ. eigenvalues --   -0.35740  -0.29539  -0.29533  -0.28196  -0.27237
  Beta  occ. eigenvalues --   -0.25761  -0.25168
  Beta virt. eigenvalues --   -0.12258  -0.06912  -0.04217  -0.01735  -0.00803
  Beta virt. eigenvalues --    0.00006   0.00557   0.01492   0.01863   0.02998
  Beta virt. eigenvalues --    0.03512   0.03771   0.03789   0.04099   0.04340

 Mulliken charges and spin densities:
               1          2
     1  O   -0.316868  -0.000000
     2  C   -0.143907  -0.000000
     3  C   -0.109936   0.000000
     4  C   -0.369676   0.000000
     5  C   -0.073945   0.000000
     6  C    0.523484   0.000000
     7  C   -0.412306  -0.000000
     8  O   -0.285666   0.000000
     9  C   -0.251385  -0.000000
    10  C   -0.010116  -0.000000
    11  O   -0.202129   0.000000
    12  C   -0.153655   0.000000
    13  C   -0.362847  -0.000000
    14  C    0.068159   0.000000
    15  C    0.599243   0.000000
    16  C   -0.462100   0.000000
    17  O   -0.316194   0.000000
    18  C    0.425384  -0.000000
    19  H    0.348326   0.000000
    20  H    0.214432   0.000000
    21  H    0.218359  -0.000000
    22  H    0.174615  -0.000000
    23  H    0.309101   0.000000
    24  H    0.184748   0.000000
    25  H    0.221007   0.000000
    26  H    0.183873  -0.000000
 Sum of Mulliken charges =  -0.00000  -0.00000

 Dipole moment (field-independent basis, Debye):
    X=             -4.2879    Y=             -0.3080    Z=             -0.3695  Tot=              4.3148
 Quadrupole moment (field-independent basis, Debye-Ang):
   XX=            -67.2535   YY=           -116.0835   ZZ=           -104.6793
   XY=             10.2146   XZ=              4.3032   YZ=              0.7248

  Exact polarizability: 375.714  10.931 300.413  28.278  11.694 117.175
 Approx polarizability: 407.949   2.980 390.071  29.055  14.701 138.451

                      1                      2                      3
                      A                      A                      A
 Frequencies --     31.3948                64.2465               101.5508
 Red. masses --      7.4656                 6.4761                 9.3826
 Frc consts  --      0.0043                 0.0157                 0.0570
 IR Inten    --     13.2439                 0.1443                 0.6335

                      4                      5                      6
                      A                      A                      A
 Frequencies --    164.1887               196.4308               205.8028
 Red. masses --      6.9552                 4.4771                 5.9928
 Frc consts  --      0.1105                 0.1018                 0.1495
 IR Inten    --      0.0243                 0.9526                 1.8715

                      7                      8                      9
                      A                      A                      A
 Frequencies --    236.8950               266.4607               289.7926
 Red. masses --      4.7243                 5.7733                 7.7380
 Frc consts  --      0.1562                 0.2415                 0.3829
 IR Inten    --      0.3485                 3.2873                 9.1321

                     10                     11                     12
                      A                      A                      A
 Frequencies --    349.1149               381.1307               428.4113
 Red. masses --      7.2459                10.4569                 1.1478
 Frc consts  --      0.5203                 0.8950                 0.1241
 IR Inten    --      1.3638                 5.2237               141.8890

                     13                     14                     15
                      A                      A                      A
 Frequencies --    430.5594               431.4312               442.9073
 Red. masses --     10.2875                 5.0943                 7.2030
 Frc consts  --      1.1236                 0.5587                 0.8325
 IR Inten    --     55.6318                 0.4135                 5.4144

                     16                     17                     18
                      A                      A                      A
 Frequencies --    456.9812               479.8796               503.2444
 Red. masses --      7.5602                 3.7041                 6.8272
 Frc consts  --      0.9302                 0.5026                 1.0187
 IR Inten    --     15.5600                 7.8993                14.6514

                     19                     20                     21
                      A                      A                      A
 Frequencies --    537.4782               542.8004               565.0164
 Red. masses --      6.5007                 5.1488                 4.4435
 Frc consts  --      1.1065                 0.8938                 0.8358
 IR Inten    --      4.2393                 3.4043                 0.1526

                     22                     23                     24
                      A                      A                      A
 Frequencies --    593.4359               624.2275               678.4684
 Red. masses --      7.6731                 5.9770                 4.2416
 Frc consts  --      1.5921                 1.3722                 1.1504
 IR Inten    --      6.5191                 3.6987                 0.3421

                     25                     26                     27
                      A                      A                      A
 Frequencies --    709.2115               711.2525               762.8861
 Red. masses --      6.5542                 2.9540                 2.4111
 Frc consts  --      1.9423                 0.8805                 0.8268
 IR Inten    --      6.0517                59.8256                 0.1844

                     28                     29                     30
                      A                      A                      A
 Frequencies --    779.1446               780.1926               784.3863
 Red. masses --      7.0965                 1.7381                 1.6848
 Frc consts  --      2.5382                 0.6234                 0.6107
 IR Inten    --     51.3587               216.0455                39.2132

                     31                     32                     33
                      A                      A                      A
 Frequencies --    820.1975               830.8180               868.0340
 Red. masses --      1.9100                 2.2764                 7.8554
 Frc consts  --      0.7571                 0.9258                 3.4873
 IR Inten    --     45.3724                 0.9626               166.4487

                     34                     35                     36
                      A                      A                      A
 Frequencies --    913.3326               923.5659               932.3849
 Red. masses --      7.2789                 1.4104                 1.4238
 Frc consts  --      3.5774                 0.7088                 0.7293
 IR Inten    --     11.5764                 0.0545                 0.0062

                     37                     38                     39
                      A                      A                      A
 Frequencies --    972.4623              1002.5233              1009.6969
 Red. masses --      5.4628                 1.3185                 1.3223
 Frc consts  --      3.0438                 0.7807                 0.7943
 IR Inten    --      6.7985                 0.2682                 0.4873

                     40                     41                     42
                      A                      A                      A
 Frequencies --   1059.9404              1081.7258              1107.8876
 Red. masses --      4.6433                 2.1933                 1.9295
 Frc consts  --      3.0735                 1.5121                 1.3954
 IR Inten    --    123.4986                 7.3135                39.1984

                     43                     44                     45
                      A                      A                      A
 Frequencies --   1177.0840              1181.2214              1194.2676
 Red. masses --      1.9742                 1.2761                 1.1553
 Frc consts  --      1.6116                 1.0490                 0.9709
 IR Inten    --     62.8670                52.5788                26.6424

                     46                     47                     48
                      A                      A                      A
 Frequencies --   1206.2355              1234.8243              1264.1826
 Red. masses --      2.0901                 1.7606                 4.0115
 Frc consts  --      1.7917                 1.5817                 3.7773
 IR Inten    --     47.8000               225.7469              1393.5391

                     49                     50                     51
                      A                      A                      A
 Frequencies --   1293.7154              1305.7935              1329.9952
 Red. masses --      2.2917                 3.6638                 4.3270
 Frc consts  --      2.2599                 3.6807                 4.5096
 IR Inten    --    263.5730               253.0159                32.1108

                     52                     53                     54
                      A                      A                      A
 Frequencies --   1370.1227              1383.2590              1397.3208
 Red. masses --      4.3784                 6.9891                 3.0391
 Frc consts  --      4.8426                 7.8791                 3.4961
 IR Inten    --    100.8541               170.0271               257.9135

                     55                     56                     57
                      A                      A                      A
 Frequencies --   1475.4553              1482.9511              1496.9235
 Red. masses --      2.3426                 2.7601                 2.6994
 Frc consts  --      3.0047                 3.5763                 3.5638
 IR Inten    --    120.2676                36.0590                40.5523

                     58                     59                     60
                      A                      A                      A
 Frequencies --   1504.9941              1600.6292              1607.1777
 Red. masses --      2.9553                 4.4938                 5.8378
 Frc consts  --      3.9438                 6.7834                 8.8843
 IR Inten    --    239.5057                94.7223                71.3019

                     61                     62                     63
                      A                      A                      A
 Frequencies --   1611.6766              1630.6152              1657.6795
 Red. masses --      5.7377                 5.4817                 7.2449
 Frc consts  --      8.7809                 8.5876                11.7297
 IR Inten    --    389.1123               284.4719               324.1865

                     64                     65                     66
                      A                      A                      A
 Frequencies --   1695.5045              3167.5421              3182.2176
 Red. masses --     11.0663                 1.0900                 1.0884
 Frc consts  --     18.7434                 6.4435                 6.4937
 IR Inten    --    358.5411                10.7650                10.1231

                     67                     68                     69
                      A                      A                      A
 Frequencies --   3192.9078              3198.2966              3213.7799
 Red. masses --      1.0926                 1.0942                 1.0929
 Frc consts  --      6.5630                 6.5947                 6.6507
 IR Inten    --     12.3302                10.2221                 5.7811

                     70                     71                     72
                      A                      A                      A
 Frequencies --   3217.2164              3296.2379              3785.0911
 Red. masses --      1.0932                 1.0685                 1.0662
 Frc consts  --      6.6668                 6.8398                 9.0003
 IR Inten    --      4.6039               550.9076               181.0920

 - Thermochemistry -
 -------------------
 Temperature   298.150 Kelvin.  Pressure   1.00000 Atm.
 Atom     1 has atomic number  8 and mass  15.99491

 Molecular mass:   240.04226 amu.
 Principal axes and moments of inertia in atomic units:
                           1         2         3
     Eigenvalues --  2267.361875103.627567370.73640
           X            0.98924   0.10253  -0.10437
           Y           -0.10876   0.99249  -0.05593
           Z            0.09785   0.06668   0.99297
 This molecule is an asymmetric top.
 Rotational symmetry number  1.
 Warning -- assumption of classical behavior for rotation
           may cause significant error
 Rotational temperatures (Kelvin)      0.03820     0.01697     0.01175
 Rotational constants (GHZ):           0.79597     0.35362     0.24485
 Zero-point vibrational energy     492899.8 (Joules/Mol)
                                  117.80588 (Kcal/Mol)
 Warning -- explicit consideration of  22 degrees of freedom as
           vibrations may cause significant error
 Vibrational temperatures:     45.17    92.44   146.11   236.23   282.62
          (Kelvin)            296.10   340.84   383.38   416.95   502.30
                              548.36   616.39   619.48   620.73   637.24
                              657.49   690.44   724.06   773.31   780.97
                              812.93   853.82   898.12   976.16  1020.40
                             1023.33  1097.62  1121.02  1122.52  1128.56
                             1180.08  1195.36  1248.91  1314.08  1328.81
                             1341.49  1399.16  1442.41  1452.73  1525.02
                             1556.36  1594.00  1693.56  1699.51  1718.28
                             1735.50  1776.64  1818.88  1861.37  1878.75
                             1913.57  1971.30  1990.20  2010.43  2122.85
                             2133.64  2153.74  2165.35  2302.95  2312.37
                             2318.84  2346.09  2385.03  2439.45  4557.39
                             4578.50  4593.88  4601.64  4623.91  4628.86
                             4742.55  5445.90

 Zero-point correction=                           0.187736 (Hartree/Particle)
 Thermal correction to Energy=                    0.200942
 Thermal correction to Enthalpy=                  0.201886
 Thermal correction to Gibbs Free Energy=         0.147606
 Sum of electronic and zero-point Energies=           -839.278949
 Sum of electronic and thermal Energies=              -839.265743
 Sum of electronic and thermal Enthalpies=            -839.264799
 Sum of electronic and thermal Free Energies=         -839.319078

                     E (Thermal)             CV                S
                      KCal/Mol        Cal/Mol-Kelvin    Cal/Mol-Kelvin
 Total                  126.093             53.669            114.241
 Electronic               0.000              0.000              0.000
 Translational            0.889              2.981             42.328
 Rotational               0.889              2.981             32.811
 Vibrational            124.315             47.708             39.102
 Vibration     1          0.594              1.983              5.739
 Vibration     2          0.597              1.971              4.322
 Vibration     3          0.604              1.948              3.424
 Vibration     4          0.623              1.886              2.501
 Vibration     5          0.636              1.845              2.166
 Vibration     6          0.640              1.832              2.081
 Vibration     7          0.656              1.784              1.826
 Vibration     8          0.672              1.735              1.619
 Vibration     9          0.686              1.693              1.475
 Vibration    10          0.726              1.577              1.170
 Vibration    11          0.751              1.510              1.035
 Vibration    12          0.790              1.408              0.864
 Vibration    13          0.792              1.404              0.857
 Vibration    14          0.792              1.402              0.854
 Vibration    15          0.803              1.377              0.818
 Vibration    16          0.815              1.345              0.775
 Vibration    17          0.836              1.295              0.710
 Vibration    18          0.859              1.243              0.650
 Vibration    19          0.893              1.167              0.571
 Vibration    20          0.898              1.155              0.559
 Vibration    21          0.921              1.107              0.514
 Vibration    22          0.951              1.046              0.461

 Optimization completed.
    -- Stationary point found.
 Normal termination of Gaussian 16 at Sat Feb 10 22:57:39 2024.
