 Q-Chem 5.4, Q-Chem, Inc., Pleasanton, CA (2021)
 Q-Chem 5.4.0 for Intel X86 EM64T Linux

User input:
--------------------------------------------------------------
$molecule
-2 1
C                  5.7614360000     -5.1229810000      1.2394400000
C                  6.7752340000     -5.0420630000      0.3014450000
C                  6.6861480000     -4.0902140000     -0.7472370000
C                  4.6216090000     -4.2842660000      1.1972800000
C                  4.5313740000     -3.3134250000      0.1268720000
C                  5.5838610000     -3.2561370000     -0.8152650000
C                  3.6000320000     -4.4462540000      2.2365140000
C                  2.5424130000     -3.5312760000      2.0367570000
C                  2.4222850000     -2.5746730000      1.0081720000
C                  3.3962190000     -2.4021070000     -0.0046980000
O                  3.7005340000     -5.3155630000      3.1805790000
O                  3.3080280000     -1.5317000000     -0.9588740000
H                  5.7977190000     -5.8398170000      2.0546420000
H                  7.6373080000     -5.7052910000      0.3673250000
H                  5.4797760000     -2.5149870000     -1.6029430000
Cl                 1.1737950000     -3.5833630000      3.2366170000
H                  7.4788100000     -4.0178310000     -1.4912660000
H                  1.5462070000     -1.9338730000      0.9805800000
$end
$rem
MAX_SCF_CYCLES=200
BASIS  =  6-311++G(d,p)
GUI  =  2
JOB_TYPE  =  SP
METHOD  =  B3LYP
SOLVENT_METHOD = PCM
$end
$pcm
theory = CPCM
$end
$solvent
dielectric 37.219
opticaldielectric 1.43
$end

--------------------------------------------------------------

             Standard Nuclear Orientation (Angstroms)
    I     Atom           X                Y                Z
 ----------------------------------------------------------------
    1      C       5.7614360000    -5.1229810000     1.2394400000
    2      C       6.7752340000    -5.0420630000     0.3014450000
    3      C       6.6861480000    -4.0902140000    -0.7472370000
    4      C       4.6216090000    -4.2842660000     1.1972800000
    5      C       4.5313740000    -3.3134250000     0.1268720000
    6      C       5.5838610000    -3.2561370000    -0.8152650000
    7      C       3.6000320000    -4.4462540000     2.2365140000
    8      C       2.5424130000    -3.5312760000     2.0367570000
    9      C       2.4222850000    -2.5746730000     1.0081720000
   10      C       3.3962190000    -2.4021070000    -0.0046980000
   11      O       3.7005340000    -5.3155630000     3.1805790000
   12      O       3.3080280000    -1.5317000000    -0.9588740000
   13      H       5.7977190000    -5.8398170000     2.0546420000
   14      H       7.6373080000    -5.7052910000     0.3673250000
   15      H       5.4797760000    -2.5149870000    -1.6029430000
   16      Cl      1.1737950000    -3.5833630000     3.2366170000
   17      H       7.4788100000    -4.0178310000    -1.4912660000
   18      H       1.5462070000    -1.9338730000     0.9805800000
 ----------------------------------------------------------------

    9    -995.1518289370      5.35e-06  Convergence criterion met
 Total energy in the final basis set =     -995.1518289370

                    Orbital Energies (a.u.)
 --------------------------------------------------------------

 Alpha MOs
 -- Occupied --
******** -19.0280 -19.0257 -10.1862 -10.1855 -10.1820 -10.1553 -10.1545
-10.1510 -10.1509 -10.1503 -10.1471 -10.1314  -9.4400  -7.2037  -7.1954
 -7.1950  -0.9462  -0.9385  -0.8351  -0.8266  -0.7620  -0.7287  -0.7014
 -0.6516  -0.5918  -0.5778  -0.5332  -0.4821  -0.4748  -0.4405  -0.4261
 -0.4047  -0.3882  -0.3853  -0.3846  -0.3693  -0.3570  -0.3417  -0.3268
 -0.3259  -0.3131  -0.3042  -0.2930  -0.2352  -0.2324  -0.2178  -0.2108
 -0.2053  -0.1245

          Ground-State Mulliken Net Atomic Charges

     Atom                 Charge (a.u.)
  ----------------------------------------
      1 C                    -0.104142
      2 C                    -0.453645
      3 C                    -0.483960
      4 C                     0.112889
      5 C                     0.231264
      6 C                    -0.011514
      7 C                    -1.044575
      8 C                     1.179051
      9 C                    -0.068890
     10 C                    -0.974023
     11 O                    -0.677044
     12 O                    -0.718178
     13 H                     0.146237
     14 H                     0.184148
     15 H                     0.148962
     16 Cl                    0.191641
     17 H                     0.180977
     18 H                     0.160802
  ----------------------------------------
  Sum of atomic charges =    -2.000000

                    Cartesian Multipole Moments
 -----------------------------------------------------------------
    Charge (ESU x 10^10)
                -9.6064
    Dipole Moment (Debye)
         X     -32.2012      Y      33.3152      Z     -12.3881
       Tot      47.9613
    Quadrupole Moments (Debye-Ang)
        XX    -207.9873     XY     113.9020     YY    -232.9094
        XZ     -37.9311     YZ      70.3656     ZZ    -143.8586

 Total job time:  25.46s(wall), 158.62s(cpu)
        *  Thank you very much for using Q-Chem.  Have a nice day.  *
