 Q-Chem 5.4, Q-Chem, Inc., Pleasanton, CA (2021)
 Q-Chem 5.4.0 for Intel X86 EM64T Linux

User input:
--------------------------------------------------------------
$molecule
0 1
Cl                 2.9875740000      2.8527520000      0.3363760000
C                  2.6320530000      1.1413480000      0.2643020000
C                  3.7413060000      0.2985990000      0.3449430000
C                  3.5842240000     -1.0803480000      0.2985710000
C                  2.3144800000     -1.6264500000      0.1710380000
C                  1.1995650000     -0.7939240000      0.0896800000
C                 -0.1337920000     -1.4664010000     -0.0464120000
O                 -0.2165250000     -2.6831350000     -0.0822090000
C                 -1.3387340000     -0.6065830000     -0.1350460000
C                 -2.5990320000     -1.2005600000     -0.2625390000
C                 -3.7357300000     -0.4073790000     -0.3467190000
C                 -3.6210640000      0.9852310000     -0.3040720000
C                 -2.3721180000      1.5809360000     -0.1774940000
C                 -1.2211670000      0.7904150000     -0.0919500000
C                  0.1035470000      1.4753220000      0.0435630000
O                  0.1518480000      2.6908590000      0.0763030000
C                  1.3300390000      0.6168230000      0.1343800000
H                  4.7244620000      0.7403280000      0.4441600000
H                  4.4550020000     -1.7225400000      0.3623380000
H                  2.1577530000     -2.6965160000      0.1319320000
H                 -2.6603890000     -2.2812780000     -0.2931430000
H                 -4.7116910000     -0.8687430000     -0.4454990000
H                 -4.5088980000      1.6038500000     -0.3698780000
H                 -2.2627130000      2.6573930000     -0.1426240000
$end

$rem
BASIS  =  6-311++G(d,p)
GUI  =  2
JOB_TYPE  =  SP
METHOD  =  B3LYP
SCF_CONVERGENCE  = 8
SOLVENT_METHOD = sm12
$end

$smx
solvent dimethylformamide
charges CM5
$end

--------------------------------------------------------------

             Standard Nuclear Orientation (Angstroms)
    I     Atom           X                Y                Z
 ----------------------------------------------------------------
    1      Cl      2.9875740000     2.8527520000     0.3363760000
    2      C       2.6320530000     1.1413480000     0.2643020000
    3      C       3.7413060000     0.2985990000     0.3449430000
    4      C       3.5842240000    -1.0803480000     0.2985710000
    5      C       2.3144800000    -1.6264500000     0.1710380000
    6      C       1.1995650000    -0.7939240000     0.0896800000
    7      C      -0.1337920000    -1.4664010000    -0.0464120000
    8      O      -0.2165250000    -2.6831350000    -0.0822090000
    9      C      -1.3387340000    -0.6065830000    -0.1350460000
   10      C      -2.5990320000    -1.2005600000    -0.2625390000
   11      C      -3.7357300000    -0.4073790000    -0.3467190000
   12      C      -3.6210640000     0.9852310000    -0.3040720000
   13      C      -2.3721180000     1.5809360000    -0.1774940000
   14      C      -1.2211670000     0.7904150000    -0.0919500000
   15      C       0.1035470000     1.4753220000     0.0435630000
   16      O       0.1518480000     2.6908590000     0.0763030000
   17      C       1.3300390000     0.6168230000     0.1343800000
   18      H       4.7244620000     0.7403280000     0.4441600000
   19      H       4.4550020000    -1.7225400000     0.3623380000
   20      H       2.1577530000    -2.6965160000     0.1319320000
   21      H      -2.6603890000    -2.2812780000    -0.2931430000
   22      H      -4.7116910000    -0.8687430000    -0.4454990000
   23      H      -4.5088980000     1.6038500000    -0.3698780000
   24      H      -2.2627130000     2.6573930000    -0.1426240000
 ----------------------------------------------------------------

   15   -1148.5626379983      6.27e-09  Convergence criterion met
 Total energy in the final basis set =    -1148.5838572893

                    Orbital Energies (a.u.)
 --------------------------------------------------------------

 Alpha MOs
 -- Occupied --
******** -19.1312 -19.1299 -10.2869 -10.2840 -10.2653 -10.2255 -10.2177
-10.2104 -10.2089 -10.2075 -10.2050 -10.2007 -10.1987 -10.1983 -10.1978
-10.1972  -9.4765  -7.2412  -7.2317  -7.2304  -1.0683  -1.0662  -0.9150
 -0.8899  -0.8608  -0.8164  -0.7791  -0.7759  -0.7634  -0.6923  -0.6712
 -0.6499  -0.6151  -0.5848  -0.5670  -0.5596  -0.5085  -0.4964  -0.4922
 -0.4897  -0.4612  -0.4592  -0.4548  -0.4510  -0.4488  -0.4433  -0.4232
 -0.4085  -0.4024  -0.3878  -0.3792  -0.3760  -0.3685  -0.3490  -0.3313
 -0.2942  -0.2866  -0.2807  -0.2787  -0.2693  -0.2687

          Ground-State Mulliken Net Atomic Charges

     Atom                 Charge (a.u.)
  ----------------------------------------
      1 Cl                    0.329989
      2 C                     0.500803
      3 C                     0.917176
      4 C                     0.469358
      5 C                     0.558167
      6 C                    -0.120620
      7 C                    -1.684457
      8 O                    -0.245811
      9 C                    -0.314578
     10 C                     0.161581
     11 C                     0.440131
     12 C                     0.335487
     13 C                     0.200589
     14 C                    -0.550863
     15 C                    -2.102114
     16 O                    -0.165287
     17 C                    -0.616363
     18 H                     0.280068
     19 H                     0.370637
     20 H                     0.200304
     21 H                     0.193444
     22 H                     0.329240
     23 H                     0.323834
     24 H                     0.189284
  ----------------------------------------
  Sum of atomic charges =     0.000000

                    Cartesian Multipole Moments
 -----------------------------------------------------------------
    Charge (ESU x 10^10)
                 0.0000
    Dipole Moment (Debye)
         X      -0.5953      Y      -1.5499      Z      -0.0891
       Tot       1.6627
    Quadrupole Moments (Debye-Ang)
        XX     -73.6995     XY      -8.7213     YY    -116.9425
        XZ       2.7347     YZ      -1.0347     ZZ    -106.0661

 Total job time:  454.75s(wall), 3355.20s(cpu)
        *  Thank you very much for using Q-Chem.  Have a nice day.  *
