 Q-Chem 5.4, Q-Chem, Inc., Pleasanton, CA (2021)
 Q-Chem 5.4.0 for Intel X86 EM64T Linux

User input:
--------------------------------------------------------------
$molecule
-2 1
C                 -3.7585500000      1.7610710000     -0.3767200000
C                 -2.5203320000      0.9268520000     -0.1346320000
C                 -1.2641710000      1.4296220000     -0.4123190000
C                 -0.0692820000      0.6874560000     -0.2404370000
C                  1.2063870000      1.3055670000     -0.5527730000
O                  1.3069720000      2.5091240000     -0.9787850000
C                  2.3605320000      0.4539970000     -0.3372400000
C                  3.6563790000      0.9609380000     -0.6083740000
C                  4.7967570000      0.2054550000     -0.4253690000
C                  4.6850960000     -1.1309850000      0.0520180000
C                  3.4380640000     -1.6534450000      0.3288630000
C                  2.2473870000     -0.9038300000      0.1554580000
C                  0.9708910000     -1.5182070000      0.4665580000
O                  0.8700770000     -2.7217860000      0.8925170000
C                 -0.1818080000     -0.6630700000      0.2499080000
C                 -1.4804030000     -1.1618050000      0.5200230000
C                 -2.6335650000     -0.4237800000      0.3373990000
C                 -3.9867820000     -1.0049240000      0.6822750000
H                 -3.4882040000      2.7757290000     -0.6831470000
H                 -4.4038950000      1.3388760000     -1.1681500000
H                 -4.3914180000      1.8405780000      0.5132710000
H                 -1.1489870000      2.4417350000     -0.7898170000
H                  3.7078200000      1.9828170000     -0.9717280000
H                  5.7761480000      0.6269010000     -0.6451430000
H                  5.5787870000     -1.7352110000      0.1981470000
H                  3.3193650000     -2.6687580000      0.6948470000
H                 -1.5337760000     -2.1799940000      0.8949940000
H                 -4.4739900000     -0.4724670000      1.5190700000
H                 -4.6910650000     -0.9532910000     -0.1545100000
H                 -3.8944330000     -2.0551640000      0.9737970000
$end
$rem
MAX_SCF_CYCLES=200
BASIS  =  6-311++G(d,p)
GUI  =  2
JOB_TYPE  =  SP
METHOD  =  B3LYP
SOLVENT_METHOD = COSMO
$end
$solvent
dielectric 37.219
opticaldielectric 1.43
$end

--------------------------------------------------------------

             Standard Nuclear Orientation (Angstroms)
    I     Atom           X                Y                Z
 ----------------------------------------------------------------
    1      C       4.3204152771    -1.4850159928    -0.0262615013
    2      C       3.0175026724    -0.7175903906     0.0082123300
    3      C       1.8061713125    -1.3812765922     0.0031960550
    4      C       0.5525348615    -0.7205985232    -0.0004990060
    5      C      -0.6683578463    -1.5056855186     0.0019069458
    6      O      -0.6682436358    -2.7863333676     0.0116070712
    7      C      -1.8903845131    -0.7244539139    -0.0002437219
    8      C      -3.1405220732    -1.3929224699     0.0050611253
    9      C      -4.3408039959    -0.7117261505     0.0035588799
   10      C      -4.3407900388     0.7117883835    -0.0031322652
   11      C      -3.1404820097     1.3929301098    -0.0048639190
   12      C      -1.8903709491     0.7244239573     0.0001879047
   13      C      -0.6683417264     1.5056558598    -0.0021868401
   14      O      -0.6682324080     2.7863242060    -0.0119601003
   15      C       0.5525493970     0.7205885897     0.0002093992
   16      C       1.8061765602     1.3812344004    -0.0034968149
   17      C       3.0174923449     0.7175286587    -0.0083735317
   18      C       4.3203708338     1.4850810163     0.0267700991
   19      H       4.1380493766    -2.5612435690     0.0443940402
   20      H       4.8902129134    -1.3078146794    -0.9563209511
   21      H       4.9924009649    -1.2077094277     0.7925568869
   22      H       1.7750825761    -2.4671483592    -0.0046023362
   23      H      -3.1067157345    -2.4781632152     0.0093800178
   24      H      -5.2825116805    -1.2578968440     0.0064369379
   25      H      -5.2825016551     1.2579552696    -0.0058362500
   26      H      -3.1066594536     2.4781634706    -0.0092016758
   27      H       1.7751050750     2.4671147186     0.0042015691
   28      H       4.8893845778     1.3084053025     0.9574241785
   29      H       4.9930043261     1.2073758465    -0.7913580514
   30      H       4.1379964224     2.5612662373    -0.0445209660
 ----------------------------------------------------------------

   17    -767.5790624654      7.31e-06  Convergence criterion met
 Total energy in the final basis set =     -767.5790624654
    6    -767.8530622694      3.50e-06  Convergence criterion met
 Total energy in the final basis set =     -767.8530622694

                    Orbital Energies (a.u.)
 --------------------------------------------------------------

 Alpha MOs
 -- Occupied --
-19.0253 -19.0253 -10.1755 -10.1755 -10.1565 -10.1561 -10.1515 -10.1515
-10.1484 -10.1479 -10.1459 -10.1459 -10.1416 -10.1415 -10.1360 -10.1357
-10.1354 -10.1350  -0.9469  -0.9438  -0.8338  -0.8234  -0.7663  -0.7421
 -0.7235  -0.7230  -0.6826  -0.6614  -0.6258  -0.5952  -0.5721  -0.5596
 -0.5253  -0.4946  -0.4862  -0.4510  -0.4351  -0.4241  -0.4164  -0.4149
 -0.3990  -0.3977  -0.3895  -0.3834  -0.3800  -0.3734  -0.3695  -0.3669
 -0.3521  -0.3452  -0.3329  -0.3312  -0.3147  -0.3128  -0.2992  -0.2960
 -0.2340  -0.2271  -0.2244  -0.2101  -0.2085  -0.2000  -0.1067

          Ground-State Mulliken Net Atomic Charges

     Atom                 Charge (a.u.)
  ----------------------------------------
      1 C                    -0.524895
      2 C                     0.249046
      3 C                    -0.226430
      4 C                     0.154469
      5 C                    -0.497154
      6 O                    -0.695095
      7 C                     0.202466
      8 C                    -0.009223
      9 C                    -0.589353
     10 C                    -0.588811
     11 C                    -0.009346
     12 C                     0.204528
     13 C                    -0.499093
     14 O                    -0.695017
     15 C                     0.157086
     16 C                    -0.226152
     17 C                     0.253386
     18 C                    -0.526443
     19 H                     0.170264
     20 H                     0.164008
     21 H                     0.152171
     22 H                     0.117352
     23 H                     0.151590
     24 H                     0.177494
     25 H                     0.177578
     26 H                     0.151579
     27 H                     0.117615
     28 H                     0.164032
     29 H                     0.152070
     30 H                     0.170277
  ----------------------------------------
  Sum of atomic charges =    -2.000000

                    Cartesian Multipole Moments
 -----------------------------------------------------------------
    Charge (ESU x 10^10)
                -9.6064
    Dipole Moment (Debye)
         X       7.9141      Y      -0.0006      Z       0.0040
       Tot       7.9141
    Quadrupole Moments (Debye-Ang)
        XX    -130.2016     XY      -0.0005     YY    -169.8045
        XZ      -0.0025     YZ       0.3621     ZZ    -118.4373

 Total job time:  104.66s(wall), 806.20s(cpu)
        *  Thank you very much for using Q-Chem.  Have a nice day.  *
