 Q-Chem 5.4, Q-Chem, Inc., Pleasanton, CA (2021)
 Q-Chem 5.4.0 for Intel X86 EM64T Linux

User input:
--------------------------------------------------------------
$molecule
-2 1
C                  5.9179770000     -5.2148140000      1.1094220000
C                  6.8205270000     -5.0827280000      0.0699430000
C                  6.6072130000     -4.0904430000     -0.9186540000
C                  4.7767520000     -4.3868180000      1.2237560000
C                  4.5604390000     -3.3805000000      0.2212260000
C                  5.4993450000     -3.2673490000     -0.8307720000
C                  3.8735510000     -4.5976940000      2.3585850000
C                  2.7784700000     -3.6967770000      2.3395940000
C                  2.5638050000     -2.6983100000      1.3448460000
C                  3.4152580000     -2.4659180000      0.2347750000
O                  4.0905620000     -5.5032290000      3.2389430000
O                  3.2465000000     -1.5769210000     -0.6725930000
H                  6.0467940000     -5.9626800000      1.8856770000
H                  5.3015210000     -2.4957420000     -1.5683050000
Br                 1.5301690000     -3.9192950000      3.8245980000
Br                 1.0129250000     -1.5147870000      1.4285710000
H                  7.6893950000     -5.7366660000      0.0112410000
H                  7.3111350000     -3.9770190000     -1.7418440000
$end
$rem
MAX_SCF_CYCLES=200
BASIS  =  6-311++G(d,p)
GUI  =  2
JOB_TYPE  =  SP
METHOD  =  B3LYP
SOLVENT_METHOD = PCM
$end
$pcm
theory = CPCM
$end
$solvent
dielectric 37.219
opticaldielectric 1.43
$end

--------------------------------------------------------------

             Standard Nuclear Orientation (Angstroms)
    I     Atom           X                Y                Z
 ----------------------------------------------------------------
    1      C       5.9179770000    -5.2148140000     1.1094220000
    2      C       6.8205270000    -5.0827280000     0.0699430000
    3      C       6.6072130000    -4.0904430000    -0.9186540000
    4      C       4.7767520000    -4.3868180000     1.2237560000
    5      C       4.5604390000    -3.3805000000     0.2212260000
    6      C       5.4993450000    -3.2673490000    -0.8307720000
    7      C       3.8735510000    -4.5976940000     2.3585850000
    8      C       2.7784700000    -3.6967770000     2.3395940000
    9      C       2.5638050000    -2.6983100000     1.3448460000
   10      C       3.4152580000    -2.4659180000     0.2347750000
   11      O       4.0905620000    -5.5032290000     3.2389430000
   12      O       3.2465000000    -1.5769210000    -0.6725930000
   13      H       6.0467940000    -5.9626800000     1.8856770000
   14      H       5.3015210000    -2.4957420000    -1.5683050000
   15      Br      1.5301690000    -3.9192950000     3.8245980000
   16      Br      1.0129250000    -1.5147870000     1.4285710000
   17      H       7.6893950000    -5.7366660000     0.0112410000
   18      H       7.3111350000    -3.9770190000    -1.7418440000
 ----------------------------------------------------------------

    9   -5682.6123397362      4.84e-06  Convergence criterion met
 Total energy in the final basis set =    -5682.6123397362

                    Orbital Energies (a.u.)
 --------------------------------------------------------------

 Alpha MOs
 -- Occupied --
********-482.8081 -62.4610 -62.4610 -56.2812 -56.2812 -56.2778 -56.2778
-56.2775 -56.2775 -19.0324 -19.0324 -10.1941 -10.1941 -10.1911 -10.1907
-10.1582 -10.1578 -10.1551 -10.1548 -10.1541 -10.1541  -8.6696  -8.6696
 -6.5002  -6.5002  -6.4889  -6.4888  -6.4881  -6.4881  -2.6112  -2.6112
 -2.6081  -2.6081  -2.6077  -2.6076  -2.5985  -2.5985  -2.5985  -2.5985
 -0.9553  -0.9517  -0.8383  -0.8147  -0.7662  -0.7542  -0.7328  -0.6930
 -0.6529  -0.5878  -0.5816  -0.5374  -0.4917  -0.4714  -0.4431  -0.4281
 -0.4075  -0.3936  -0.3894  -0.3840  -0.3703  -0.3595  -0.3415  -0.3407
 -0.3301  -0.3186  -0.2968  -0.2878  -0.2831  -0.2592  -0.2378  -0.2377
 -0.2182  -0.2162  -0.2098  -0.1304

          Ground-State Mulliken Net Atomic Charges

     Atom                 Charge (a.u.)
  ----------------------------------------
      1 C                     0.053359
      2 C                    -0.444362
      3 C                    -0.441953
      4 C                     0.539008
      5 C                     0.540230
      6 C                     0.052781
      7 C                    -1.165887
      8 C                     0.553845
      9 C                     0.544426
     10 C                    -1.160273
     11 O                    -0.617583
     12 O                    -0.617717
     13 H                     0.152966
     14 H                     0.153302
     15 Br                   -0.259346
     16 Br                   -0.259023
     17 H                     0.188036
     18 H                     0.188192
  ----------------------------------------
  Sum of atomic charges =    -2.000000

                    Cartesian Multipole Moments
 -----------------------------------------------------------------
    Charge (ESU x 10^10)
                -9.6064
    Dipole Moment (Debye)
         X     -31.0712      Y      32.5781      Z     -14.6637
       Tot      47.3474
    Quadrupole Moments (Debye-Ang)
        XX    -227.5608     XY     114.6141     YY    -255.8358
        XZ     -48.1104     YZ      75.7119     ZZ    -169.3689

 Total job time:  41.67s(wall), 216.28s(cpu)
        *  Thank you very much for using Q-Chem.  Have a nice day.  *
