 Q-Chem 5.4, Q-Chem, Inc., Pleasanton, CA (2021)
 Q-Chem 5.4.0 for Intel X86 EM64T Linux

User input:
--------------------------------------------------------------
$molecule
-1 2
C                 -3.0088010000      3.7297910000      0.4086100000
C                 -4.2505510000      3.1550530000      0.4958090000
C                 -4.4342930000      1.7626250000      0.4200090000
C                 -1.8636420000      2.9192460000      0.2426300000
C                 -2.0242600000      1.5057670000      0.1655770000
C                 -3.3231380000      0.9612550000      0.2590200000
C                 -0.5535600000      3.5610880000      0.1465390000
C                  0.5852790000      2.6610230000     -0.0278580000
C                  0.4307010000      1.2468970000     -0.1054420000
C                 -0.8830500000      0.6052970000     -0.0149110000
C                  1.8811090000      3.2142190000     -0.1316480000
C                  2.9666520000      2.3940740000     -0.3013580000
C                  2.8387590000      0.9957360000     -0.3829590000
C                  1.5783630000      0.4444030000     -0.2820060000
O                 -0.4152120000      4.8090020000      0.2077370000
O                 -1.0226260000     -0.6384940000     -0.0911430000
H                 -3.4172520000     -0.1165390000      0.1976370000
H                  1.4328370000     -0.6279790000     -0.3375700000
H                 -2.8798690000      4.8040750000      0.4547980000
H                  1.9893490000      4.2906960000     -0.0834480000
H                  3.7163410000      0.3745520000     -0.5133970000
O                  4.2275150000      3.0072320000     -0.5027500000
C                  5.2439310000      2.7919100000      0.3645770000
C                  6.4597720000      3.5800550000     -0.0681390000
O                  5.1897500000      2.0856240000      1.3383860000
O                 -5.3708760000      4.0195280000      0.5577800000
H                  6.2367800000      4.6490680000     -0.0251960000
H                  6.7165580000      3.3408320000     -1.1023530000
H                  7.2951450000      3.3505960000      0.5907480000
C                 -6.1986430000      3.9979160000      1.6283300000
C                 -7.2888840000      5.0307640000      1.4514680000
O                 -6.0833690000      3.2723130000      2.5824250000
H                 -5.4280490000      1.3387400000      0.4961090000
H                 -6.8455240000      6.0293760000      1.4266790000
H                 -7.9936620000      4.9605880000      2.2779060000
H                 -7.8037890000      4.8778380000      0.5005740000
$end

$rem
BASIS  =  6-311++G(d,p)
GUI  =  2
JOB_TYPE  =  SP
METHOD  =  B3LYP
SCF_CONVERGENCE  = 8
SOLVENT_METHOD = sm12
$end

$smx
solvent dimethylformamide
charges CM5
$end

--------------------------------------------------------------

             Standard Nuclear Orientation (Angstroms)
    I     Atom           X                Y                Z
 ----------------------------------------------------------------
    1      C      -3.0088010000     3.7297910000     0.4086100000
    2      C      -4.2505510000     3.1550530000     0.4958090000
    3      C      -4.4342930000     1.7626250000     0.4200090000
    4      C      -1.8636420000     2.9192460000     0.2426300000
    5      C      -2.0242600000     1.5057670000     0.1655770000
    6      C      -3.3231380000     0.9612550000     0.2590200000
    7      C      -0.5535600000     3.5610880000     0.1465390000
    8      C       0.5852790000     2.6610230000    -0.0278580000
    9      C       0.4307010000     1.2468970000    -0.1054420000
   10      C      -0.8830500000     0.6052970000    -0.0149110000
   11      C       1.8811090000     3.2142190000    -0.1316480000
   12      C       2.9666520000     2.3940740000    -0.3013580000
   13      C       2.8387590000     0.9957360000    -0.3829590000
   14      C       1.5783630000     0.4444030000    -0.2820060000
   15      O      -0.4152120000     4.8090020000     0.2077370000
   16      O      -1.0226260000    -0.6384940000    -0.0911430000
   17      H      -3.4172520000    -0.1165390000     0.1976370000
   18      H       1.4328370000    -0.6279790000    -0.3375700000
   19      H      -2.8798690000     4.8040750000     0.4547980000
   20      H       1.9893490000     4.2906960000    -0.0834480000
   21      H       3.7163410000     0.3745520000    -0.5133970000
   22      O       4.2275150000     3.0072320000    -0.5027500000
   23      C       5.2439310000     2.7919100000     0.3645770000
   24      C       6.4597720000     3.5800550000    -0.0681390000
   25      O       5.1897500000     2.0856240000     1.3383860000
   26      O      -5.3708760000     4.0195280000     0.5577800000
   27      H       6.2367800000     4.6490680000    -0.0251960000
   28      H       6.7165580000     3.3408320000    -1.1023530000
   29      H       7.2951450000     3.3505960000     0.5907480000
   30      C      -6.1986430000     3.9979160000     1.6283300000
   31      C      -7.2888840000     5.0307640000     1.4514680000
   32      O      -6.0833690000     3.2723130000     2.5824250000
   33      H      -5.4280490000     1.3387400000     0.4961090000
   34      H      -6.8455240000     6.0293760000     1.4266790000
   35      H      -7.9936620000     4.9605880000     2.2779060000
   36      H      -7.8037890000     4.8778380000     0.5005740000
 ----------------------------------------------------------------

   17   -1144.9089081629      4.04e-09  Convergence criterion met
 Total energy in the final basis set =    -1145.0009026445

                    Orbital Energies (a.u.)
 --------------------------------------------------------------

 Alpha MOs
 -- Occupied --
-19.1837 -19.1837 -19.1209 -19.1208 -19.0792 -19.0782 -10.3138 -10.3138
-10.2442 -10.2442 -10.2298 -10.2267 -10.1863 -10.1863 -10.1840 -10.1839
-10.1833 -10.1833 -10.1811 -10.1811 -10.1804 -10.1804 -10.1775 -10.1775
 -1.1217  -1.1217  -1.0378  -1.0378  -1.0065  -1.0034  -0.8733  -0.8659
 -0.8030  -0.7785  -0.7712  -0.7617  -0.7485  -0.7335  -0.6825  -0.6610
 -0.6528  -0.6126  -0.6095  -0.5840  -0.5670  -0.5253  -0.5226  -0.5012
 -0.4982  -0.4964  -0.4902  -0.4891  -0.4839  -0.4653  -0.4625  -0.4440
 -0.4429  -0.4371  -0.4299  -0.4275  -0.4169  -0.4155  -0.4121  -0.4081
 -0.4067  -0.3918  -0.3900  -0.3845  -0.3832  -0.3755  -0.3679  -0.3623
 -0.3542  -0.3422  -0.3291  -0.3258  -0.2920  -0.2918  -0.2714  -0.2682
 -0.2619  -0.2526  -0.2489  -0.2403  -0.1467

 Beta MOs
 -- Occupied --
-19.1837 -19.1837 -19.1209 -19.1208 -19.0736 -19.0719 -10.3138 -10.3138
-10.2438 -10.2438 -10.2285 -10.2251 -10.1858 -10.1858 -10.1835 -10.1835
-10.1831 -10.1831 -10.1810 -10.1810 -10.1795 -10.1795 -10.1775 -10.1775
 -1.1216  -1.1216  -1.0377  -1.0377  -0.9968  -0.9926  -0.8708  -0.8648
 -0.7995  -0.7778  -0.7691  -0.7604  -0.7472  -0.7325  -0.6764  -0.6592
 -0.6515  -0.6116  -0.6078  -0.5828  -0.5645  -0.5242  -0.5207  -0.5004
 -0.4981  -0.4960  -0.4897  -0.4879  -0.4833  -0.4645  -0.4614  -0.4425
 -0.4425  -0.4367  -0.4264  -0.4204  -0.4151  -0.4136  -0.4094  -0.4061
 -0.4028  -0.3903  -0.3896  -0.3839  -0.3739  -0.3668  -0.3609  -0.3599
 -0.3511  -0.3366  -0.3286  -0.3198  -0.2918  -0.2915  -0.2646  -0.2539
 -0.2480  -0.2476  -0.2434  -0.2348

          Ground-State Mulliken Net Atomic Charges

     Atom                 Charge (a.u.)    Spin (a.u.)
  --------------------------------------------------------
      1 C                    -0.158919       0.029277
      2 C                     0.990397       0.024262
      3 C                     1.572608       0.048411
      4 C                    -0.770883       0.058892
      5 C                    -1.161085       0.036985
      6 C                     0.223925       0.016932
      7 C                    -1.795286       0.086893
      8 C                    -0.763712       0.058954
      9 C                    -1.163342       0.036837
     10 C                    -2.220173       0.052493
     11 C                    -0.153783       0.029117
     12 C                     0.977189       0.024454
     13 C                     1.574104       0.048811
     14 C                     0.223444       0.016944
     15 O                    -0.315918       0.235880
     16 O                    -0.299126       0.209057
     17 H                     0.193266      -0.000688
     18 H                     0.193236      -0.000687
     19 H                     0.177064      -0.002513
     20 H                     0.177076      -0.002507
     21 H                     0.313739      -0.003644
     22 O                     0.096659       0.000772
     23 C                    -0.179422      -0.000529
     24 C                     0.129516       0.000118
     25 O                    -0.323384      -0.000717
     26 O                     0.097314       0.000741
     27 H                     0.232408       0.000028
     28 H                     0.245048       0.000081
     29 H                     0.234947      -0.000032
     30 C                    -0.179937      -0.000483
     31 C                     0.129964       0.000148
     32 O                    -0.323390      -0.000727
     33 H                     0.313979      -0.003636
     34 H                     0.232444       0.000027
     35 H                     0.234994      -0.000031
     36 H                     0.245039       0.000081
  --------------------------------------------------------
  Sum of atomic charges =    -1.000000

                    Cartesian Multipole Moments
 -----------------------------------------------------------------
    Charge (ESU x 10^10)
                -4.8032
    Dipole Moment (Debye)
         X       3.2698      Y      -8.0867      Z      -3.7659
       Tot       9.5009
    Quadrupole Moments (Debye-Ang)
        XX    -138.8833     XY       2.9277     YY    -174.0391
        XZ       0.6372     YZ      -6.2576     ZZ    -156.4927

 Total job time:  1378.57s(wall), 10439.65s(cpu)
        *  Thank you very much for using Q-Chem.  Have a nice day.  *
