 Q-Chem 5.4, Q-Chem, Inc., Pleasanton, CA (2021)
 Q-Chem 5.4.0 for Intel X86 EM64T Linux

User input:
--------------------------------------------------------------
$molecule
-1 2
C                  4.1691540000     -1.3119880000      3.8478200000
C                  3.3709270000     -0.9834310000      4.9266320000
C                  2.4534080000      0.0851460000      4.8382800000
C                  4.0704840000     -0.5755350000      2.6433590000
C                  3.1503660000      0.5010390000      2.5436240000
C                  2.3551310000      0.8049680000      3.6631350000
C                  4.9054030000     -0.9199650000      1.5140690000
C                  4.7445340000     -0.1231170000      0.3198100000
C                  3.8676160000      0.9326210000      0.1909120000
C                  3.0142600000      1.2932260000      1.3045250000
O                  5.7621900000     -1.8663270000      1.4981750000
O                  2.1904170000      2.2412540000      1.2288220000
O                  5.5612250000     -0.5089480000     -0.7039900000
O                  3.3930850000     -1.6405460000      6.1421900000
C                  4.2934430000     -2.7220730000      6.2850160000
C                  3.7541460000      1.7149130000     -1.0918020000
C                  2.6379330000      1.1971420000     -2.0207770000
C                  2.5059670000      2.0211810000     -3.3075930000
C                  1.3438890000      1.6187570000     -4.2323750000
C                  1.5106560000      0.2069100000     -4.8249840000
C                  1.1495510000      2.6428650000     -5.3665750000
C                 -0.0037340000      2.2714760000     -6.3099220000
C                  0.1708590000      0.8590520000     -6.8851750000
C                  0.3588620000     -0.1748480000     -5.7665630000
H                  4.8851740000     -2.1224100000      3.8717070000
H                  1.8406660000      0.3188910000      5.7018110000
H                  1.6568170000      1.6291460000      3.5716340000
H                  6.0527030000     -1.2577590000     -0.2997300000
H                  4.1564970000     -3.0982620000      7.2998470000
H                  5.3341310000     -2.4023140000      6.1531070000
H                  4.0796400000     -3.5238500000      5.5679960000
H                  4.7089410000      1.6826860000     -1.6268470000
H                  3.5369910000      2.7576970000     -0.8388580000
H                  1.6911850000      1.2251060000     -1.4702780000
H                  2.8413580000      0.1478710000     -2.2577800000
H                  3.4466810000      1.9695800000     -3.8748750000
H                  2.3767740000      3.0759800000     -3.0311110000
H                  0.4239810000      1.6180920000     -3.6276240000
H                  1.5923530000     -0.5308980000     -4.0225370000
H                  2.4598270000      0.1683930000     -5.3787310000
H                  2.0819350000      2.7112410000     -5.9452560000
H                  0.9789870000      3.6370480000     -4.9380820000
H                 -0.0820390000      3.0049330000     -7.1210620000
H                 -0.9508710000      2.3184740000     -5.7559210000
H                  1.0522060000      0.8442810000     -7.5407950000
H                 -0.6885530000      0.5932460000     -7.5117870000
H                  0.5357730000     -1.1681560000     -6.1946270000
H                 -0.5705580000     -0.2486620000     -5.1861580000
$end

$rem
BASIS  =  6-311++G(d,p)
GUI  =  2
JOB_TYPE  =  SP
METHOD  =  B3LYP
SCF_CONVERGENCE  = 8
SOLVENT_METHOD = sm12
$end

$smx
solvent dimethylformamide
charges CM5
$end

--------------------------------------------------------------

             Standard Nuclear Orientation (Angstroms)
    I     Atom           X                Y                Z
 ----------------------------------------------------------------
    1      C       4.1691540000    -1.3119880000     3.8478200000
    2      C       3.3709270000    -0.9834310000     4.9266320000
    3      C       2.4534080000     0.0851460000     4.8382800000
    4      C       4.0704840000    -0.5755350000     2.6433590000
    5      C       3.1503660000     0.5010390000     2.5436240000
    6      C       2.3551310000     0.8049680000     3.6631350000
    7      C       4.9054030000    -0.9199650000     1.5140690000
    8      C       4.7445340000    -0.1231170000     0.3198100000
    9      C       3.8676160000     0.9326210000     0.1909120000
   10      C       3.0142600000     1.2932260000     1.3045250000
   11      O       5.7621900000    -1.8663270000     1.4981750000
   12      O       2.1904170000     2.2412540000     1.2288220000
   13      O       5.5612250000    -0.5089480000    -0.7039900000
   14      O       3.3930850000    -1.6405460000     6.1421900000
   15      C       4.2934430000    -2.7220730000     6.2850160000
   16      C       3.7541460000     1.7149130000    -1.0918020000
   17      C       2.6379330000     1.1971420000    -2.0207770000
   18      C       2.5059670000     2.0211810000    -3.3075930000
   19      C       1.3438890000     1.6187570000    -4.2323750000
   20      C       1.5106560000     0.2069100000    -4.8249840000
   21      C       1.1495510000     2.6428650000    -5.3665750000
   22      C      -0.0037340000     2.2714760000    -6.3099220000
   23      C       0.1708590000     0.8590520000    -6.8851750000
   24      C       0.3588620000    -0.1748480000    -5.7665630000
   25      H       4.8851740000    -2.1224100000     3.8717070000
   26      H       1.8406660000     0.3188910000     5.7018110000
   27      H       1.6568170000     1.6291460000     3.5716340000
   28      H       6.0527030000    -1.2577590000    -0.2997300000
   29      H       4.1564970000    -3.0982620000     7.2998470000
   30      H       5.3341310000    -2.4023140000     6.1531070000
   31      H       4.0796400000    -3.5238500000     5.5679960000
   32      H       4.7089410000     1.6826860000    -1.6268470000
   33      H       3.5369910000     2.7576970000    -0.8388580000
   34      H       1.6911850000     1.2251060000    -1.4702780000
   35      H       2.8413580000     0.1478710000    -2.2577800000
   36      H       3.4466810000     1.9695800000    -3.8748750000
   37      H       2.3767740000     3.0759800000    -3.0311110000
   38      H       0.4239810000     1.6180920000    -3.6276240000
   39      H       1.5923530000    -0.5308980000    -4.0225370000
   40      H       2.4598270000     0.1683930000    -5.3787310000
   41      H       2.0819350000     2.7112410000    -5.9452560000
   42      H       0.9789870000     3.6370480000    -4.9380820000
   43      H      -0.0820390000     3.0049330000    -7.1210620000
   44      H      -0.9508710000     2.3184740000    -5.7559210000
   45      H       1.0522060000     0.8442810000    -7.5407950000
   46      H      -0.6885530000     0.5932460000    -7.5117870000
   47      H       0.5357730000    -1.1681560000    -6.1946270000
   48      H      -0.5705580000    -0.2486620000    -5.1861580000
 ----------------------------------------------------------------

   18   -1077.8613349182      4.92e-09  Convergence criterion met
 Total energy in the final basis set =    -1077.9509742540

                    Orbital Energies (a.u.)
 --------------------------------------------------------------

 Alpha MOs
 -- Occupied --
-19.1549 -19.1419 -19.0829 -19.0700 -10.2366 -10.2213 -10.2206 -10.2173
-10.2167 -10.1790 -10.1773 -10.1749 -10.1716 -10.1699 -10.1698 -10.1642
-10.1640 -10.1638 -10.1629 -10.1624 -10.1620 -10.1618 -10.1612 -10.1609
 -1.0666  -1.0612  -0.9952  -0.9919  -0.8605  -0.8376  -0.8131  -0.7878
 -0.7620  -0.7555  -0.7413  -0.7333  -0.6997  -0.6830  -0.6563  -0.6200
 -0.6170  -0.6072  -0.5837  -0.5763  -0.5712  -0.5533  -0.5446  -0.5161
 -0.4889  -0.4828  -0.4802  -0.4760  -0.4660  -0.4624  -0.4420  -0.4411
 -0.4391  -0.4349  -0.4322  -0.4238  -0.4154  -0.4078  -0.4036  -0.3992
 -0.3906  -0.3876  -0.3812  -0.3779  -0.3719  -0.3665  -0.3602  -0.3541
 -0.3489  -0.3441  -0.3428  -0.3384  -0.3341  -0.3323  -0.3252  -0.3169
 -0.3119  -0.2983  -0.2944  -0.2658  -0.2562  -0.2455  -0.2350  -0.2207
 -0.1489

 Beta MOs
 -- Occupied --
-19.1550 -19.1415 -19.0761 -19.0646 -10.2366 -10.2203 -10.2198 -10.2167
-10.2145 -10.1787 -10.1777 -10.1741 -10.1709 -10.1698 -10.1689 -10.1642
-10.1640 -10.1638 -10.1630 -10.1624 -10.1620 -10.1617 -10.1611 -10.1599
 -1.0666  -1.0592  -0.9860  -0.9804  -0.8583  -0.8376  -0.8103  -0.7862
 -0.7608  -0.7537  -0.7413  -0.7324  -0.6987  -0.6780  -0.6520  -0.6184
 -0.6163  -0.6067  -0.5823  -0.5746  -0.5702  -0.5533  -0.5435  -0.5142
 -0.4874  -0.4822  -0.4776  -0.4758  -0.4656  -0.4620  -0.4417  -0.4399
 -0.4385  -0.4341  -0.4245  -0.4209  -0.4134  -0.4046  -0.4004  -0.3965
 -0.3882  -0.3815  -0.3801  -0.3776  -0.3661  -0.3640  -0.3564  -0.3495
 -0.3442  -0.3434  -0.3378  -0.3338  -0.3334  -0.3311  -0.3247  -0.3169
 -0.3026  -0.2977  -0.2942  -0.2533  -0.2501  -0.2301  -0.2290  -0.2145

          Ground-State Mulliken Net Atomic Charges

     Atom                 Charge (a.u.)    Spin (a.u.)
  --------------------------------------------------------
      1 C                     1.026286       0.096322
      2 C                     0.789732      -0.012922
      3 C                     0.533833       0.055582
      4 C                     0.452975       0.021044
      5 C                    -2.410777       0.067233
      6 C                    -0.044491       0.000081
      7 C                    -1.772611       0.165876
      8 C                    -0.677759       0.019168
      9 C                     0.964014       0.077922
     10 C                    -2.688149       0.044974
     11 O                    -0.363829       0.253021
     12 O                    -0.309086       0.200562
     13 O                    -0.137923       0.015127
     14 O                    -0.109740       0.001074
     15 C                     0.160046       0.000276
     16 C                     0.118074       0.010598
     17 C                    -1.493600      -0.012375
     18 C                    -0.370641       0.007121
     19 C                     1.691344      -0.004182
     20 C                    -0.778179       0.000780
     21 C                     0.208209       0.000163
     22 C                     0.365688      -0.000088
     23 C                    -0.084610       0.000299
     24 C                     0.100109       0.000542
     25 H                     0.110463      -0.004603
     26 H                     0.304568      -0.005000
     27 H                     0.148906       0.000213
     28 H                     0.292521      -0.004034
     29 H                     0.346319      -0.000080
     30 H                     0.180280      -0.000016
     31 H                     0.179525      -0.000015
     32 H                     0.185019      -0.000999
     33 H                     0.128348       0.004217
     34 H                     0.016003      -0.002292
     35 H                    -0.028470       0.005433
     36 H                     0.156020      -0.000489
     37 H                     0.129856       0.000589
     38 H                     0.071635      -0.000038
     39 H                     0.156731      -0.000987
     40 H                     0.092595      -0.000128
     41 H                     0.102854       0.000034
     42 H                     0.157421      -0.000052
     43 H                     0.273343      -0.000034
     44 H                     0.105126       0.000027
     45 H                     0.117107      -0.000009
     46 H                     0.248098       0.000028
     47 H                     0.211419       0.000037
     48 H                     0.145398       0.000000
  --------------------------------------------------------
  Sum of atomic charges =    -1.000000

                    Cartesian Multipole Moments
 -----------------------------------------------------------------
    Charge (ESU x 10^10)
                -4.8032
    Dipole Moment (Debye)
         X     -17.7957      Y      -2.6253      Z      -5.7657
       Tot      18.8898
    Quadrupole Moments (Debye-Ang)
        XX    -230.4032     XY       0.5772     YY    -163.6178
        XZ     -16.6482     YZ      -5.7938     ZZ    -170.2194

 Total job time:  2790.21s(wall), 20677.55s(cpu)
        *  Thank you very much for using Q-Chem.  Have a nice day.  *
