 Gaussian 16, Revision A.03,
 Gaussian 16:  ES64L-G16RevA.03 25-Dec-2016

 ----------------------------------------------------------------------
 #P UB3LYP/6-311++G(d,p) nosym opt freq SCRF=(PCM,Solvent=n,n-DiMethylF
 ormamide)
 ----------------------------------------------------------------------

 -------
 Reduced
 -------
 Symbolic Z-matrix:
 Charge = -2 Multiplicity = 1

 SCF Done:  E(UB3LYP) =  -3777.72355636     A.U. after   19 cycles
 SCF Done:  E(UB3LYP) =  -3777.72491701     A.U. after   15 cycles
 SCF Done:  E(UB3LYP) =  -3777.72514056     A.U. after   15 cycles
 SCF Done:  E(UB3LYP) =  -3777.72519542     A.U. after   14 cycles
 SCF Done:  E(UB3LYP) =  -3777.72523772     A.U. after   12 cycles
 SCF Done:  E(UB3LYP) =  -3777.72524687     A.U. after   12 cycles
 SCF Done:  E(UB3LYP) =  -3777.72524917     A.U. after   11 cycles
 SCF Done:  E(UB3LYP) =  -3777.72524950     A.U. after   11 cycles
 Optimization completed.
    -- Stationary point found.
 Normal termination of Gaussian 16 at Sat Feb 10 18:32:54 2024.

 ----------------------------------------------------------------------
 #P Geom=AllCheck Guess=TCheck SCRF=Check GenChk UB3LYP/6-311++G(d,p) F
 req
 ----------------------------------------------------------------------

 Structure from the checkpoint file:  "161-an.chk"
 -------
 Reduced
 -------
 Charge = -2 Multiplicity = 1

                          Input orientation:
 ---------------------------------------------------------------------
 Center     Atomic      Atomic             Coordinates (Angstroms)
 Number     Number       Type             X           Y           Z
 ---------------------------------------------------------------------
      1          7           0       -4.547228    1.033095   -0.490802
      2          6           0       -3.275164    0.465669   -0.359694
      3          6           0       -3.145170   -0.958927   -0.284897
      4         17           0       -4.622536   -1.954866   -0.348482
      5          6           0       -1.932476   -1.570926   -0.206360
      6          6           0       -0.726941   -0.833192   -0.118587
      7          6           0        0.497542   -1.587022   -0.048892
      8          8           0        0.516069   -2.885236   -0.104128
      9          6           0        1.690667   -0.803667    0.097270
     10          6           0        2.961456   -1.442752    0.144880
     11          6           0        4.131402   -0.735599    0.300766
     12          6           0        4.081920    0.680237    0.424504
     13          6           0        2.868113    1.328656    0.391392
     14          6           0        1.635765    0.634099    0.223106
     15          6           0        0.403110    1.391092    0.203287
     16          8           0        0.411735    2.670492    0.422247
     17          6           0       -0.787519    0.627184   -0.061889
     18          6           0       -2.098820    1.192823   -0.258815
     19         35           0       -2.333959    3.105894   -0.592173
     20          1           0       -4.538501    1.972663   -0.865176
     21          1           0       -5.217324    0.441771   -0.963707
     22          1           0       -1.853126   -2.650277   -0.197582
     23          1           0        2.976352   -2.523011    0.052353
     24          1           0        5.086453   -1.251139    0.329953
     25          1           0        5.000922    1.246125    0.544338
     26          1           0        2.817259    2.406819    0.489677
 ---------------------------------------------------------------------

 SCF Done:  E(UB3LYP) =  -3777.72524950     A.U. after    2 cycles

 Alpha  occ. eigenvalues -- -482.81198-101.54951 -62.46481 -56.28499 -56.28148
 Alpha  occ. eigenvalues --  -56.28115 -19.02249 -19.01356 -14.31316 -10.21586
 Alpha  occ. eigenvalues --  -10.21509 -10.20812 -10.17839 -10.17718 -10.16167
 Alpha  occ. eigenvalues --  -10.15591 -10.15066 -10.15006 -10.14843 -10.14667
 Alpha  occ. eigenvalues --  -10.14634 -10.14005 -10.13901  -9.46409  -8.67449
 Alpha  occ. eigenvalues --   -7.22825  -7.21909  -7.21893  -6.50525  -6.49363
 Alpha  occ. eigenvalues --   -6.49274  -2.61629  -2.61313  -2.61247  -2.60322
 Alpha  occ. eigenvalues --   -2.60321  -0.93683  -0.93013  -0.92456  -0.85973
 Alpha  occ. eigenvalues --   -0.82813  -0.82158  -0.77997  -0.75038  -0.72438
 Alpha  occ. eigenvalues --   -0.71118  -0.70388  -0.64126  -0.61307  -0.59373
 Alpha  occ. eigenvalues --   -0.57163  -0.53643  -0.51981  -0.50501  -0.49266
 Alpha  occ. eigenvalues --   -0.46781  -0.44309  -0.43886  -0.42899  -0.40737
 Alpha  occ. eigenvalues --   -0.40594  -0.39995  -0.39137  -0.38283  -0.37296
 Alpha  occ. eigenvalues --   -0.36981  -0.35976  -0.34429  -0.33432  -0.32916
 Alpha  occ. eigenvalues --   -0.32547  -0.32089  -0.31446  -0.30412  -0.29251
 Alpha  occ. eigenvalues --   -0.27952  -0.27738  -0.23264  -0.22499  -0.22090
 Alpha  occ. eigenvalues --   -0.20376  -0.20155  -0.18891  -0.10911
 Alpha virt. eigenvalues --   -0.03305  -0.01547  -0.00054   0.00186   0.00789
 Alpha virt. eigenvalues --    0.01459   0.01675   0.01914   0.02411   0.03383
 Alpha virt. eigenvalues --    0.04180   0.04369   0.05008   0.05627   0.05852

  Beta  occ. eigenvalues -- -482.81198-101.54951 -62.46481 -56.28499 -56.28148
  Beta  occ. eigenvalues --  -56.28115 -19.02249 -19.01356 -14.31316 -10.21586
  Beta  occ. eigenvalues --  -10.21509 -10.20812 -10.17839 -10.17718 -10.16167
  Beta  occ. eigenvalues --  -10.15591 -10.15066 -10.15006 -10.14843 -10.14667
  Beta  occ. eigenvalues --  -10.14634 -10.14005 -10.13901  -9.46409  -8.67449
  Beta  occ. eigenvalues --   -7.22825  -7.21909  -7.21893  -6.50525  -6.49363
  Beta  occ. eigenvalues --   -6.49274  -2.61629  -2.61313  -2.61247  -2.60322
  Beta  occ. eigenvalues --   -2.60321  -0.93683  -0.93013  -0.92456  -0.85973
  Beta  occ. eigenvalues --   -0.82813  -0.82158  -0.77997  -0.75038  -0.72438
  Beta  occ. eigenvalues --   -0.71118  -0.70388  -0.64126  -0.61307  -0.59373
  Beta  occ. eigenvalues --   -0.57163  -0.53643  -0.51981  -0.50501  -0.49266
  Beta  occ. eigenvalues --   -0.46781  -0.44309  -0.43886  -0.42899  -0.40737
  Beta  occ. eigenvalues --   -0.40594  -0.39995  -0.39137  -0.38283  -0.37296
  Beta  occ. eigenvalues --   -0.36981  -0.35976  -0.34429  -0.33432  -0.32916
  Beta  occ. eigenvalues --   -0.32547  -0.32089  -0.31446  -0.30412  -0.29251
  Beta  occ. eigenvalues --   -0.27952  -0.27738  -0.23264  -0.22499  -0.22090
  Beta  occ. eigenvalues --   -0.20376  -0.20155  -0.18891  -0.10911
  Beta virt. eigenvalues --   -0.03305  -0.01547  -0.00054   0.00186   0.00789
  Beta virt. eigenvalues --    0.01459   0.01675   0.01914   0.02411   0.03383
  Beta virt. eigenvalues --    0.04180   0.04369   0.05008   0.05627   0.05852

 Mulliken charges and spin densities:
               1          2
     1  N   -0.209481   0.000000
     2  C   -1.031774   0.000000
     3  C    0.787656  -0.000000
     4  Cl   0.359380  -0.000000
     5  C   -0.476710   0.000000
     6  C   -0.398725  -0.000000
     7  C   -0.526702  -0.000000
     8  O   -0.653860   0.000000
     9  C    0.213916   0.000000
    10  C   -0.091486  -0.000000
    11  C   -0.453643   0.000000
    12  C   -0.518120  -0.000000
    13  C    0.019874   0.000000
    14  C    0.286783  -0.000000
    15  C   -1.112666  -0.000000
    16  O   -0.582107   0.000000
    17  C    0.799120   0.000000
    18  C    0.470424   0.000000
    19  Br  -0.182472  -0.000000
    20  H    0.252103   0.000000
    21  H    0.232584   0.000000
    22  H    0.196969  -0.000000
    23  H    0.146787  -0.000000
    24  H    0.160508   0.000000
    25  H    0.156338  -0.000000
    26  H    0.155299   0.000000
 Sum of Mulliken charges =  -2.00000  -0.00000

 Dipole moment (field-independent basis, Debye):
    X=             -1.5442    Y=             -0.0842    Z=             -1.9682  Tot=              2.5031
 Quadrupole moment (field-independent basis, Debye-Ang):
   XX=           -163.8662   YY=           -197.2607   ZZ=           -141.4263
   XY=             -0.1694   XZ=              4.0866   YZ=             -5.8133

  Exact polarizability: 649.466 -13.575 445.605  44.816   6.571 187.514
 Approx polarizability: 701.221  -9.752 518.987  45.434  12.778 209.967

                      1                      2                      3
                      A                      A                      A
 Frequencies --     33.8360                42.0184                84.8342
 Red. masses --     12.0592                 8.1392                 6.6837
 Frc consts  --      0.0081                 0.0085                 0.0283
 IR Inten    --      0.9192                17.8218                 1.1002

                      4                      5                      6
                      A                      A                      A
 Frequencies --    118.9276               139.9989               144.2570
 Red. masses --      4.7655                 9.4928                10.0560
 Frc consts  --      0.0397                 0.1096                 0.1233
 IR Inten    --      2.5149                 6.4261                 8.9826

                      7                      8                      9
                      A                      A                      A
 Frequencies --    173.8197               191.4213               230.7497
 Red. masses --     22.3779                 6.2365                11.3113
 Frc consts  --      0.3984                 0.1346                 0.3549
 IR Inten    --      2.9341                 1.6289                 7.0094

                     10                     11                     12
                      A                      A                      A
 Frequencies --    268.8359               279.3868               298.6256
 Red. masses --      6.4308                 9.5057                10.4519
 Frc consts  --      0.2738                 0.4372                 0.5492
 IR Inten    --     14.8746                13.6806                 0.8156

                     13                     14                     15
                      A                      A                      A
 Frequencies --    314.3827               325.2895               345.6285
 Red. masses --      2.6732                 3.1931                 1.7843
 Frc consts  --      0.1557                 0.1991                 0.1256
 IR Inten    --     15.9370                22.2851                68.7559

                     16                     17                     18
                      A                      A                      A
 Frequencies --    366.1314               367.5963               410.4185
 Red. masses --      9.5198                 7.3288                 7.1042
 Frc consts  --      0.7519                 0.5835                 0.7051
 IR Inten    --      7.3237                 3.2778                 1.8708

                     19                     20                     21
                      A                      A                      A
 Frequencies --    443.4931               483.8396               494.1363
 Red. masses --      3.7693                 7.4962                 8.4414
 Frc consts  --      0.4368                 1.0339                 1.2144
 IR Inten    --     14.2790                 9.4763                 4.6714

                     22                     23                     24
                      A                      A                      A
 Frequencies --    502.9748               542.4473               552.4847
 Red. masses --      4.6453                 5.4229                 4.5291
 Frc consts  --      0.6924                 0.9401                 0.8145
 IR Inten    --      3.1903                13.8333                16.0414

                     25                     26                     27
                      A                      A                      A
 Frequencies --    607.5564               630.1446               664.8505
 Red. masses --      6.0563                 2.1063                 6.2917
 Frc consts  --      1.3171                 0.4928                 1.6386
 IR Inten    --    149.4642               331.5882               106.3650

                     28                     29                     30
                      A                      A                      A
 Frequencies --    684.8378               692.2166               698.7000
 Red. masses --      3.3020                 3.7888                 3.9613
 Frc consts  --      0.9124                 1.0696                 1.1394
 IR Inten    --    296.1034                64.3510                58.8702

                     31                     32                     33
                      A                      A                      A
 Frequencies --    715.6067               727.7881               765.4129
 Red. masses --      5.8634                 8.5061                 5.2012
 Frc consts  --      1.7691                 2.6545                 1.7953
 IR Inten    --     19.9935               148.6780                34.7001

                     34                     35                     36
                      A                      A                      A
 Frequencies --    773.7111               793.2612               856.2902
 Red. masses --      1.8668                 4.0252                 1.6550
 Frc consts  --      0.6584                 1.4923                 0.7150
 IR Inten    --     53.6439                 0.9975                 0.3476

                     37                     38                     39
                      A                      A                      A
 Frequencies --    876.7862               928.8118               950.4567
 Red. masses --      6.2427                 1.3790                 7.1381
 Frc consts  --      2.8275                 0.7009                 3.7992
 IR Inten    --      3.6146                25.2124                12.2519

                     40                     41                     42
                      A                      A                      A
 Frequencies --    975.4929               984.8720              1012.9124
 Red. masses --      1.3524                 1.2664                 3.7056
 Frc consts  --      0.7582                 0.7237                 2.2400
 IR Inten    --      3.3956                 1.1818                59.7757

                     43                     44                     45
                      A                      A                      A
 Frequencies --   1020.0979              1086.5524              1103.6062
 Red. masses --      2.0717                 4.6292                 2.1117
 Frc consts  --      1.2702                 3.2200                 1.5153
 IR Inten    --    105.7922               533.2649               191.3004

                     46                     47                     48
                      A                      A                      A
 Frequencies --   1123.8596              1136.9328              1170.5190
 Red. masses --      1.8310                 2.0373                 1.8069
 Frc consts  --      1.3626                 1.5516                 1.4586
 IR Inten    --    211.8450               157.8792                37.7864

                     49                     50                     51
                      A                      A                      A
 Frequencies --   1195.7689              1209.0354              1255.3583
 Red. masses --      1.9390                 2.3397                 3.4404
 Frc consts  --      1.6335                 2.0151                 3.1945
 IR Inten    --    283.6135               495.7356               185.7088

                     52                     53                     54
                      A                      A                      A
 Frequencies --   1289.3829              1301.9980              1343.0481
 Red. masses --      3.9720                 4.2754                 6.0075
 Frc consts  --      3.8907                 4.2702                 6.3845
 IR Inten    --    316.9740              1449.7108               730.8875

                     55                     56                     57
                      A                      A                      A
 Frequencies --   1354.6415              1419.3375              1442.6389
 Red. masses --      3.1729                 4.8535                 5.6869
 Frc consts  --      3.4305                 5.7607                 6.9733
 IR Inten    --   1359.2342               411.1328                 5.4690

                     58                     59                     60
                      A                      A                      A
 Frequencies --   1453.6099              1467.0338              1484.9458
 Red. masses --      4.6137                 3.1705                 4.4565
 Frc consts  --      5.7437                 4.0203                 5.7898
 IR Inten    --    374.1166                22.1943                 4.7364

                     61                     62                     63
                      A                      A                      A
 Frequencies --   1516.2565              1572.0471              1590.3039
 Red. masses --      5.6417                 8.0032                 4.2671
 Frc consts  --      7.6419                11.6531                 6.3583
 IR Inten    --    104.9197                28.0527                82.9572

                     64                     65                     66
                      A                      A                      A
 Frequencies --   1609.0924              1625.4656              3139.8815
 Red. masses --      5.2754                 1.3156                 1.0848
 Frc consts  --      8.0476                 2.0479                 6.3014
 IR Inten    --     10.9149               265.1890                26.0804

                     67                     68                     69
                      A                      A                      A
 Frequencies --   3155.4353              3174.4177              3179.2635
 Red. masses --      1.0894                 1.0917                 1.0929
 Frc consts  --      6.3908                 6.4817                 6.5084
 IR Inten    --     36.3849                44.9537                80.4989

                     70                     71                     72
                      A                      A                      A
 Frequencies --   3196.6483              3534.6674              3629.9237
 Red. masses --      1.0898                 1.0483                 1.0976
 Frc consts  --      6.5611                 7.7166                 8.5207
 IR Inten    --     17.4880                26.3929                69.2806

 - Thermochemistry -
 -------------------
 Temperature   298.150 Kelvin.  Pressure   1.00000 Atm.
 Atom     1 has atomic number  7 and mass  14.00307

 Molecular mass:   334.93487 amu.
 Principal axes and moments of inertia in atomic units:
                           1         2         3
     Eigenvalues --  4579.030318586.24254**********
           X            0.98120   0.15949  -0.10864
           Y           -0.15636   0.98701   0.03687
           Z            0.11311  -0.01919   0.99340
 This molecule is an asymmetric top.
 Rotational symmetry number  1.
 Warning -- assumption of classical behavior for rotation
           may cause significant error
 Rotational temperatures (Kelvin)      0.01892     0.01009     0.00662
 Rotational constants (GHZ):           0.39413     0.21019     0.13791
 Zero-point vibrational energy     450256.5 (Joules/Mol)
                                  107.61389 (Kcal/Mol)
 Warning -- explicit consideration of  25 degrees of freedom as
           vibrations may cause significant error
 Vibrational temperatures:     48.68    60.46   122.06   171.11   201.43
          (Kelvin)            207.55   250.09   275.41   332.00   386.79
                              401.98   429.66   452.33   468.02   497.28
                              526.78   528.89   590.50   638.09   696.14
                              710.95   723.67   780.46   794.90   874.14
                              906.64   956.57   985.33   995.95  1005.27
                             1029.60  1047.12  1101.26  1113.20  1141.33
                             1232.01  1261.50  1336.35  1367.50  1403.52
                             1417.01  1457.35  1467.69  1563.31  1587.84
                             1616.98  1635.79  1684.12  1720.44  1739.53
                             1806.18  1855.13  1873.28  1932.35  1949.03
                             2042.11  2075.64  2091.42  2110.73  2136.51
                             2181.55  2261.83  2288.09  2315.13  2338.68
                             4517.59  4539.97  4567.28  4574.25  4599.26
                             5085.60  5222.65

 Zero-point correction=                           0.171494 (Hartree/Particle)
 Thermal correction to Energy=                    0.187180
 Thermal correction to Enthalpy=                  0.188124
 Thermal correction to Gibbs Free Energy=         0.127333
 Sum of electronic and zero-point Energies=          -3777.553756
 Sum of electronic and thermal Energies=             -3777.538069
 Sum of electronic and thermal Enthalpies=           -3777.537125
 Sum of electronic and thermal Free Energies=        -3777.597916

                     E (Thermal)             CV                S
                      KCal/Mol        Cal/Mol-Kelvin    Cal/Mol-Kelvin
 Total                  117.457             60.848            127.946
 Electronic               0.000              0.000              0.000
 Translational            0.889              2.981             43.321
 Rotational               0.889              2.981             34.597
 Vibrational            115.680             54.886             50.028
 Vibration     1          0.594              1.983              5.591
 Vibration     2          0.595              1.980              5.162
 Vibration     3          0.601              1.960              3.776
 Vibration     4          0.609              1.934              3.118
 Vibration     5          0.615              1.913              2.804
 Vibration     6          0.616              1.909              2.747
 Vibration     7          0.627              1.875              2.394
 Vibration     8          0.634              1.852              2.214
 Vibration     9          0.652              1.794              1.873
 Vibration    10          0.673              1.730              1.604
 Vibration    11          0.680              1.712              1.537
 Vibration    12          0.692              1.676              1.425
 Vibration    13          0.702              1.646              1.339
 Vibration    14          0.709              1.625              1.283
 Vibration    15          0.724              1.584              1.186
 Vibration    16          0.739              1.542              1.096
 Vibration    17          0.740              1.539              1.090
 Vibration    18          0.775              1.448              0.925
 Vibration    19          0.803              1.375              0.816
 Vibration    20          0.840              1.286              0.700
 Vibration    21          0.850              1.263              0.673
 Vibration    22          0.858              1.243              0.651
 Vibration    23          0.898              1.156              0.560
 Vibration    24          0.908              1.134              0.539
 Vibration    25          0.966              1.016              0.437

 Optimization completed.
    -- Stationary point found.
 Normal termination of Gaussian 16 at Sat Feb 10 19:10:04 2024.
