 Q-Chem 5.4, Q-Chem, Inc., Pleasanton, CA (2021)
 Q-Chem 5.4.0 for Intel X86 EM64T Linux

User input:
--------------------------------------------------------------
$molecule
-2 1
C                 -2.9857520000      3.7689990000      0.5287770000
C                 -4.2323360000      3.2024660000      0.5762260000
C                 -4.4257640000      1.8095190000      0.4306560000
C                 -1.8320000000      2.9698960000      0.3364170000
C                 -2.0011580000      1.5459900000      0.1857350000
C                 -3.3123390000      1.0169720000      0.2439180000
C                 -0.5326470000      3.6167330000      0.2840680000
C                  0.5855840000      2.7150270000      0.0697120000
C                  0.4212460000      1.2905930000     -0.0813410000
C                 -0.8807310000      0.6451920000     -0.0319030000
C                  1.8929200000      3.2547280000     -0.0096770000
C                  2.9763290000      2.4425940000     -0.2191490000
C                  2.8426580000      1.0432810000     -0.3708250000
C                  1.5763590000      0.5015850000     -0.2949320000
O                 -0.3858720000      4.8757280000      0.4113820000
O                 -1.0286510000     -0.6112710000     -0.1718340000
H                 -3.4094120000     -0.0573150000      0.1288640000
H                  1.4229230000     -0.5667930000     -0.4034790000
H                 -2.8499150000      4.8400300000      0.6255580000
H                  2.0047500000      4.3283220000      0.0893850000
H                  3.7151800000      0.4212030000     -0.5280310000
O                  4.2373940000      3.0802190000     -0.4002470000
C                  5.3305230000      2.7153760000      0.2954570000
C                  6.5371940000      3.5039830000     -0.1728570000
O                  5.3767160000      1.8589680000      1.1482680000
O                 -5.3437820000      4.0900270000      0.6576160000
H                  6.2555080000      4.4894350000     -0.5439670000
H                  7.0301940000      2.9631550000     -0.9908810000
H                  7.2525710000      3.5914840000      0.6446360000
C                 -6.3109040000      3.9429150000      1.5823240000
C                 -7.4013520000      4.9737040000      1.3685620000
O                 -6.3462150000      3.0956280000      2.4446910000
H                 -5.4206880000      1.3843340000      0.4791780000
H                 -7.0087970000      5.8899040000      0.9273000000
H                 -7.8921820000      5.1845420000      2.3184640000
H                 -8.1577640000      4.5670200000      0.6850950000
$end
$rem
MAX_SCF_CYCLES=200
BASIS  =  6-311++G(d,p)
GUI  =  2
JOB_TYPE  =  SP
METHOD  =  B3LYP
SOLVENT_METHOD = COSMO
$end
$solvent
dielectric 37.219
opticaldielectric 1.43
$end

--------------------------------------------------------------

             Standard Nuclear Orientation (Angstroms)
    I     Atom           X                Y                Z
 ----------------------------------------------------------------
    1      C       2.4677835580    -0.8810836342    -0.2553971973
    2      C       3.6462073668    -0.1824272277    -0.2359223580
    3      C       3.6763235740     1.2300062617    -0.1808677236
    4      C       1.2229518658    -0.2062489583    -0.2141192385
    5      C       1.2252908993     1.2344332927    -0.1570493553
    6      C       2.4726540324     1.9024101622    -0.1388000644
    7      C       0.0001993001    -0.9893942435    -0.2459997403
    8      C      -1.2226159596    -0.2063594117    -0.2137186711
    9      C      -1.2251372320     1.2343190274    -0.1564868123
   10      C       0.0000409854     2.0167854969    -0.1279344956
   11      C      -2.4673808247    -0.8813237425    -0.2548377967
   12      C      -3.6459032090    -0.1828244835    -0.2348630849
   13      C      -3.6761894825     1.2296014463    -0.1793099425
   14      C      -2.4725810001     1.9021255279    -0.1375314545
   15      O       0.0002447317    -2.2620386093    -0.3025371738
   16      O       0.0000132730     3.2888927140    -0.0843052725
   17      H       2.4440685906     2.9859013100    -0.0942696973
   18      H      -2.4441228920     2.9856100751    -0.0927209624
   19      H       2.4557141161    -1.9633807986    -0.3138166463
   20      H      -2.4552021672    -1.9635985439    -0.3136275920
   21      H      -4.6207229869     1.7590754957    -0.1568801644
   22      O      -4.8458293853    -0.9338407905    -0.3954829420
   23      C      -5.8884696733    -0.8060134474     0.4463049654
   24      C      -7.0502585698    -1.6575713963    -0.0252557676
   25      O      -5.9302539189    -0.0927892902     1.4222252674
   26      O       4.8463179037    -0.9332656402    -0.3961642046
   27      H      -6.7096164965    -2.5386670636    -0.5691479278
   28      H      -7.6833286876    -1.0675956233    -0.7004283407
   29      H      -7.6590244361    -1.9464932380     0.8312743087
   30      C       5.8880196557    -0.8061150503     0.4468909396
   31      C       7.0500646595    -1.6577439657    -0.0239345009
   32      O       5.9287995931    -0.0934876041     1.4232710344
   33      H       4.6208229072     1.7595859644    -0.1590323735
   34      H       6.7093138689    -2.5412746412    -0.5638386265
   35      H       7.6609971797    -1.9427584946     0.8323415847
   36      H       7.6807637492    -1.0696246040    -0.7029134433
 ----------------------------------------------------------------

   37   -1144.8392911515      6.12e-06  Convergence criterion met
 Total energy in the final basis set =    -1144.8392911515
    6   -1145.1079296621      4.00e-06  Convergence criterion met
 Total energy in the final basis set =    -1145.1079296621

                    Orbital Energies (a.u.)
 --------------------------------------------------------------

 Alpha MOs
 -- Occupied --
-19.1774 -19.1774 -19.1195 -19.1195 -19.0317 -19.0296 -10.3122 -10.3122
-10.2204 -10.2204 -10.1848 -10.1820 -10.1719 -10.1719 -10.1592 -10.1592
-10.1571 -10.1571 -10.1561 -10.1561 -10.1465 -10.1465 -10.1436 -10.1436
 -1.1142  -1.1142  -1.0335  -1.0334  -0.9565  -0.9528  -0.8433  -0.8383
 -0.7766  -0.7625  -0.7468  -0.7346  -0.7309  -0.7125  -0.6576  -0.6353
 -0.6341  -0.5898  -0.5831  -0.5600  -0.5356  -0.5066  -0.5042  -0.4936
 -0.4893  -0.4873  -0.4810  -0.4728  -0.4679  -0.4452  -0.4420  -0.4234
 -0.4176  -0.4109  -0.4108  -0.4102  -0.4027  -0.3964  -0.3890  -0.3881
 -0.3834  -0.3765  -0.3742  -0.3695  -0.3558  -0.3405  -0.3396  -0.3372
 -0.3370  -0.3183  -0.3134  -0.3032  -0.2905  -0.2901  -0.2442  -0.2366
 -0.2330  -0.2221  -0.2145  -0.2064  -0.1124

          Ground-State Mulliken Net Atomic Charges

     Atom                 Charge (a.u.)
  ----------------------------------------
      1 C                    -0.073929
      2 C                    -0.747020
      3 C                    -0.059547
      4 C                     0.374285
      5 C                     0.326066
      6 C                     0.051541
      7 C                    -0.698138
      8 C                     0.374364
      9 C                     0.326843
     10 C                    -0.468024
     11 C                    -0.075302
     12 C                    -0.746930
     13 C                    -0.060792
     14 C                     0.051509
     15 O                    -0.675466
     16 O                    -0.664393
     17 H                     0.168986
     18 H                     0.168886
     19 H                     0.181133
     20 H                     0.181273
     21 H                     0.225767
     22 O                    -0.050294
     23 C                     0.192623
     24 C                    -0.551613
     25 O                    -0.355260
     26 O                    -0.050025
     27 H                     0.181426
     28 H                     0.207189
     29 H                     0.182861
     30 C                     0.192569
     31 C                    -0.551413
     32 O                    -0.355412
     33 H                     0.224896
     34 H                     0.181354
     35 H                     0.182795
     36 H                     0.207184
  ----------------------------------------
  Sum of atomic charges =    -2.000010

                    Cartesian Multipole Moments
 -----------------------------------------------------------------
    Charge (ESU x 10^10)
                -9.6065
    Dipole Moment (Debye)
         X      -0.0013      Y      -6.4462      Z      -2.9932
       Tot       7.1072
    Quadrupole Moments (Debye-Ang)
        XX    -166.1796     XY       0.0033     YY    -193.4623
        XZ      -0.0067     YZ      -3.9246     ZZ    -159.5321

 Total job time:  290.31s(wall), 2251.62s(cpu)
        *  Thank you very much for using Q-Chem.  Have a nice day.  *
