 Gaussian 16, Revision A.03,
 Gaussian 16:  ES64L-G16RevA.03 25-Dec-2016

 ----------------------------------------------------------------------
 #P UB3LYP/6-311++G(d,p) nosym opt freq SCRF=(PCM,Solvent=n,n-DiMethylF
 ormamide)
 ----------------------------------------------------------------------

 -------
 Reduced
 -------
 Symbolic Z-matrix:
 Charge = -2 Multiplicity = 1

 SCF Done:  E(UB3LYP) =  -1029.57659080     A.U. after   15 cycles
 SCF Done:  E(UB3LYP) =  -1029.57680535     A.U. after   12 cycles
 SCF Done:  E(UB3LYP) =  -1029.57680147     A.U. after   12 cycles
 SCF Done:  E(UB3LYP) =  -1029.57683274     A.U. after   12 cycles
 SCF Done:  E(UB3LYP) =  -1029.57686848     A.U. after   10 cycles
 SCF Done:  E(UB3LYP) =  -1029.57689461     A.U. after   11 cycles
 SCF Done:  E(UB3LYP) =  -1029.57702164     A.U. after   12 cycles
 SCF Done:  E(UB3LYP) =  -1029.57668940     A.U. after   14 cycles
 SCF Done:  E(UB3LYP) =  -1029.57712896     A.U. after   12 cycles
 SCF Done:  E(UB3LYP) =  -1029.57715430     A.U. after   11 cycles
 SCF Done:  E(UB3LYP) =  -1029.57716787     A.U. after   11 cycles
 SCF Done:  E(UB3LYP) =  -1029.57718011     A.U. after   10 cycles
 SCF Done:  E(UB3LYP) =  -1029.57717978     A.U. after   10 cycles
 SCF Done:  E(UB3LYP) =  -1029.57718049     A.U. after   10 cycles
 SCF Done:  E(UB3LYP) =  -1029.57718211     A.U. after    9 cycles
 SCF Done:  E(UB3LYP) =  -1029.57718209     A.U. after    8 cycles
 Optimization completed.
    -- Stationary point found.
 Normal termination of Gaussian 16 at Sun Feb 11 00:27:50 2024.

 ----------------------------------------------------------------------
 #P Geom=AllCheck Guess=TCheck SCRF=Check GenChk UB3LYP/6-311++G(d,p) F
 req
 ----------------------------------------------------------------------

 Structure from the checkpoint file:  "206-an.chk"
 -------
 Reduced
 -------
 Charge = -2 Multiplicity = 1

                          Input orientation:
 ---------------------------------------------------------------------
 Center     Atomic      Atomic             Coordinates (Angstroms)
 Number     Number       Type             X           Y           Z
 ---------------------------------------------------------------------
      1          6           0       -4.555546    0.893799    0.346032
      2          6           0       -3.189305    0.273807    0.182120
      3          6           0       -3.052436   -1.123565   -0.061679
      4          6           0       -1.821411   -1.715445   -0.215275
      5          8           0       -1.738065   -3.063992   -0.448496
      6          6           0       -0.617911   -0.934403   -0.133443
      7          6           0        0.660078   -1.540755   -0.291122
      8          8           0        0.763710   -2.859142   -0.520743
      9          6           0        1.820476   -0.726786   -0.201015
     10          6           0        3.135794   -1.295843   -0.352877
     11          8           0        3.263655   -2.640745   -0.586157
     12          6           0        4.255435   -0.505280   -0.265764
     13          6           0        4.139733    0.893178   -0.023774
     14          6           0        2.907301    1.480166    0.128046
     15          8           0        2.815525    2.828082    0.360645
     16          6           0        1.702324    0.692798    0.045353
     17          6           0        0.425943    1.296499    0.202914
     18          8           0        0.318686    2.615971    0.434085
     19          6           0       -0.738262    0.481770    0.112885
     20          6           0       -2.051866    1.050169    0.265477
     21          8           0       -2.177785    2.397039    0.499383
     22          1           0       -4.751220    1.656251   -0.416214
     23          1           0       -4.662395    1.391306    1.316180
     24          1           0       -5.337775    0.135145    0.269372
     25          1           0       -3.941783   -1.742718   -0.128886
     26          1           0       -0.747727   -3.244516   -0.521932
     27          1           0        2.314672   -2.984484   -0.605984
     28          1           0        5.233957   -0.958425   -0.383968
     29          1           0        5.030342    1.509058    0.043167
     30          1           0        1.823117    3.003367    0.433553
     31          1           0       -1.227260    2.737696    0.518118
 ---------------------------------------------------------------------

 SCF Done:  E(UB3LYP) =  -1029.57718209     A.U. after    1 cycles

 Alpha  occ. eigenvalues --  -19.10712 -19.10685 -19.10623 -19.10537 -19.06106
 Alpha  occ. eigenvalues --  -19.06010 -10.20609 -10.20597 -10.20586 -10.20118
 Alpha  occ. eigenvalues --  -10.19926 -10.19819 -10.15643 -10.15607 -10.15548
 Alpha  occ. eigenvalues --  -10.15534 -10.15330 -10.15301 -10.14424 -10.14376
 Alpha  occ. eigenvalues --  -10.14285  -1.02762  -1.02559  -1.01995  -1.01815
 Alpha  occ. eigenvalues --   -0.95774  -0.95535  -0.83746  -0.81802  -0.77517
 Alpha  occ. eigenvalues --   -0.73651  -0.72170  -0.70786  -0.68182  -0.65032
 Alpha  occ. eigenvalues --   -0.62256  -0.60140  -0.57496  -0.56151  -0.52400
 Alpha  occ. eigenvalues --   -0.50315  -0.49632  -0.48919  -0.48691  -0.48532
 Alpha  occ. eigenvalues --   -0.44734  -0.42502  -0.42147  -0.42050  -0.40575
 Alpha  occ. eigenvalues --   -0.40018  -0.39588  -0.38988  -0.38714  -0.38407
 Alpha  occ. eigenvalues --   -0.38165  -0.37948  -0.37629  -0.36183  -0.35816
 Alpha  occ. eigenvalues --   -0.34144  -0.33993  -0.33975  -0.33230  -0.32456
 Alpha  occ. eigenvalues --   -0.31774  -0.28525  -0.27857  -0.24382  -0.24212
 Alpha  occ. eigenvalues --   -0.22966  -0.22418  -0.20355  -0.18403  -0.12278
 Alpha virt. eigenvalues --   -0.01645  -0.00602   0.00034   0.00801   0.01354
 Alpha virt. eigenvalues --    0.02106   0.02610   0.03839   0.04040   0.04151
 Alpha virt. eigenvalues --    0.04238   0.04680   0.05594   0.06411   0.06515

  Beta  occ. eigenvalues --  -19.10712 -19.10685 -19.10623 -19.10537 -19.06106
  Beta  occ. eigenvalues --  -19.06010 -10.20609 -10.20597 -10.20586 -10.20118
  Beta  occ. eigenvalues --  -10.19926 -10.19819 -10.15643 -10.15607 -10.15548
  Beta  occ. eigenvalues --  -10.15534 -10.15330 -10.15301 -10.14424 -10.14376
  Beta  occ. eigenvalues --  -10.14285  -1.02762  -1.02559  -1.01995  -1.01815
  Beta  occ. eigenvalues --   -0.95774  -0.95535  -0.83746  -0.81802  -0.77517
  Beta  occ. eigenvalues --   -0.73651  -0.72170  -0.70786  -0.68182  -0.65032
  Beta  occ. eigenvalues --   -0.62256  -0.60140  -0.57496  -0.56151  -0.52400
  Beta  occ. eigenvalues --   -0.50315  -0.49632  -0.48919  -0.48691  -0.48532
  Beta  occ. eigenvalues --   -0.44734  -0.42502  -0.42147  -0.42050  -0.40575
  Beta  occ. eigenvalues --   -0.40018  -0.39588  -0.38988  -0.38714  -0.38407
  Beta  occ. eigenvalues --   -0.38165  -0.37948  -0.37629  -0.36183  -0.35816
  Beta  occ. eigenvalues --   -0.34144  -0.33993  -0.33975  -0.33230  -0.32456
  Beta  occ. eigenvalues --   -0.31774  -0.28525  -0.27857  -0.24382  -0.24212
  Beta  occ. eigenvalues --   -0.22966  -0.22418  -0.20355  -0.18403  -0.12278
  Beta virt. eigenvalues --   -0.01645  -0.00602   0.00034   0.00801   0.01354
  Beta virt. eigenvalues --    0.02106   0.02610   0.03839   0.04040   0.04151
  Beta virt. eigenvalues --    0.04238   0.04680   0.05594   0.06411   0.06515

 Mulliken charges and spin densities:
               1          2
     1  C   -0.176157  -0.000000
     2  C    0.756210  -0.000000
     3  C   -0.807999   0.000000
     4  C   -0.423103   0.000000
     5  O   -0.474747  -0.000000
     6  C    0.525182  -0.000000
     7  C   -0.462106  -0.000000
     8  O   -0.713565   0.000000
     9  C    0.404196   0.000000
    10  C   -0.379016  -0.000000
    11  O   -0.478113   0.000000
    12  C   -0.149297  -0.000000
    13  C   -0.197567  -0.000000
    14  C   -0.336770   0.000000
    15  O   -0.485050  -0.000000
    16  C    0.472190  -0.000000
    17  C   -0.408480  -0.000000
    18  O   -0.730783   0.000000
    19  C    0.170303   0.000000
    20  C   -0.251869   0.000000
    21  O   -0.494225  -0.000000
    22  H    0.164741   0.000000
    23  H    0.163884   0.000000
    24  H    0.157725  -0.000000
    25  H    0.135227   0.000000
    26  H    0.412243   0.000000
    27  H    0.412541  -0.000000
    28  H    0.168106  -0.000000
    29  H    0.167670   0.000000
    30  H    0.416165  -0.000000
    31  H    0.442466   0.000000
 Sum of Mulliken charges =  -2.00000  -0.00000

 Dipole moment (field-independent basis, Debye):
    X=             -6.0077    Y=              1.2424    Z=              0.4644  Tot=              6.1524
 Quadrupole moment (field-independent basis, Debye-Ang):
   XX=           -182.0849   YY=           -193.3051   ZZ=           -134.1059
   XY=              0.9665   XZ=              2.2714   YZ=            -10.4471

  Exact polarizability: 575.937   8.958 371.364 -15.970  35.426 168.228
 Approx polarizability: 628.926   8.656 465.815 -17.336  47.795 191.933

                      1                      2                      3
                      A                      A                      A
 Frequencies --     45.6137                62.4638                65.6489
 Red. masses --      2.6485                 1.7021                 3.6170
 Frc consts  --      0.0032                 0.0039                 0.0092
 IR Inten    --      2.5667                 0.9611                 0.0063

                      4                      5                      6
                      A                      A                      A
 Frequencies --    100.2063               111.1694               129.8372
 Red. masses --      8.4501                 9.1226                 7.2655
 Frc consts  --      0.0500                 0.0664                 0.0722
 IR Inten    --      0.0292                 0.1004                 0.0440

                      7                      8                      9
                      A                      A                      A
 Frequencies --    171.2281               198.4276               203.0876
 Red. masses --      6.9903                 5.5243                 4.6840
 Frc consts  --      0.1208                 0.1282                 0.1138
 IR Inten    --      0.1960                 1.7027                 1.9776

                     10                     11                     12
                      A                      A                      A
 Frequencies --    281.8252               285.7493               318.5285
 Red. masses --      4.0620                 5.4880                 6.9334
 Frc consts  --      0.1901                 0.2640                 0.4145
 IR Inten    --      1.2007                 1.9116                 0.2666

                     13                     14                     15
                      A                      A                      A
 Frequencies --    321.5366               371.7093               379.4389
 Red. masses --      5.8240                 7.4778                 9.5239
 Frc consts  --      0.3548                 0.6087                 0.8079
 IR Inten    --      1.9652                 0.0545                 0.0216

                     16                     17                     18
                      A                      A                      A
 Frequencies --    391.4540               400.0792               422.2746
 Red. masses --      6.2839                 5.7577                 7.2631
 Frc consts  --      0.5673                 0.5430                 0.7631
 IR Inten    --      1.3825                65.3794                59.7951

                     19                     20                     21
                      A                      A                      A
 Frequencies --    435.0234               467.6272               474.7519
 Red. masses --      8.2569                10.4758                10.0676
 Frc consts  --      0.9206                 1.3497                 1.3369
 IR Inten    --     10.6580                59.0030               129.7375

                     22                     23                     24
                      A                      A                      A
 Frequencies --    481.9746               482.6275               497.7670
 Red. masses --     10.5132                11.1809                 4.2874
 Frc consts  --      1.4389                 1.5344                 0.6259
 IR Inten    --     37.8892                54.7670                 4.8429

                     25                     26                     27
                      A                      A                      A
 Frequencies --    537.5133               547.8775               558.2968
 Red. masses --      6.6136                 7.0917                 4.8813
 Frc consts  --      1.1258                 1.2542                 0.8964
 IR Inten    --      6.4262                 2.9080                 6.2585

                     28                     29                     30
                      A                      A                      A
 Frequencies --    615.2339               619.8350               658.1910
 Red. masses --      5.2403                 4.2730                 5.1522
 Frc consts  --      1.1687                 0.9672                 1.3151
 IR Inten    --      8.4884                 0.4238                 8.7226

                     31                     32                     33
                      A                      A                      A
 Frequencies --    680.4463               710.0057               719.7980
 Red. masses --      4.5668                 7.6303                 7.1212
 Frc consts  --      1.2458                 2.2663                 2.1738
 IR Inten    --     73.0440                 2.9397                96.2497

                     34                     35                     36
                      A                      A                      A
 Frequencies --    730.2899               748.2834               786.0113
 Red. masses --      5.7335                10.3896                 8.0968
 Frc consts  --      1.8016                 3.4275                 2.9473
 IR Inten    --      8.8362                 0.0227               215.1701

                     37                     38                     39
                      A                      A                      A
 Frequencies --    796.0267               826.7239               839.7057
 Red. masses --      1.6788                 1.4458                 9.1040
 Frc consts  --      0.6268                 0.5822                 3.7821
 IR Inten    --    131.3092                89.7860                28.5353

                     40                     41                     42
                      A                      A                      A
 Frequencies --    854.9700               863.8921               871.0223
 Red. masses --      1.3516                 1.0701                 1.0637
 Frc consts  --      0.5821                 0.4706                 0.4755
 IR Inten    --      1.0804               169.6721               299.5948

                     43                     44                     45
                      A                      A                      A
 Frequencies --    905.7967               913.1336               917.6940
 Red. masses --      1.0382                 1.0427                 6.4867
 Frc consts  --      0.5019                 0.5123                 3.2186
 IR Inten    --      0.1976                 1.9333               388.6183

                     46                     47                     48
                      A                      A                      A
 Frequencies --    934.1615               980.8619              1017.0039
 Red. masses --      8.4746                 2.5441                 2.3395
 Frc consts  --      4.3573                 1.4421                 1.4256
 IR Inten    --    623.4761                37.9925               154.6768

                     49                     50                     51
                      A                      A                      A
 Frequencies --   1042.0584              1076.5550              1106.9468
 Red. masses --      1.4530                 2.8089                 2.1341
 Frc consts  --      0.9296                 1.9180                 1.5407
 IR Inten    --      1.0534                30.8463                87.2445

                     52                     53                     54
                      A                      A                      A
 Frequencies --   1182.3874              1183.9755              1207.7697
 Red. masses --      4.6337                 6.8381                 2.4037
 Frc consts  --      3.8168                 5.6477                 2.0658
 IR Inten    --    189.3840               170.4716               401.0875

                     55                     56                     57
                      A                      A                      A
 Frequencies --   1240.9610              1244.8700              1247.2350
 Red. masses --      2.6315                 2.4885                 9.0883
 Frc consts  --      2.3876                 2.2722                 8.3297
 IR Inten    --    343.7058                79.4325                94.8350

                     58                     59                     60
                      A                      A                      A
 Frequencies --   1283.1441              1321.0411              1325.5273
 Red. masses --      5.1211                 2.8327                 4.1990
 Frc consts  --      4.9678                 2.9126                 4.3469
 IR Inten    --     32.5195               204.2741               149.8804

                     61                     62                     63
                      A                      A                      A
 Frequencies --   1343.3921              1364.6598              1368.8194
 Red. masses --      4.3455                 3.8296                 8.0195
 Frc consts  --      4.6206                 4.2019                 8.8530
 IR Inten    --    780.6724              1017.1304                28.1568

                     64                     65                     66
                      A                      A                      A
 Frequencies --   1403.8764              1434.3403              1446.0096
 Red. masses --      1.3516                 5.1286                 5.7558
 Frc consts  --      1.5695                 6.2167                 7.0909
 IR Inten    --     13.4347               622.2337               337.0108

                     67                     68                     69
                      A                      A                      A
 Frequencies --   1467.3302              1477.4392              1496.5805
 Red. masses --      1.0476                 1.3587                 1.4823
 Frc consts  --      1.3290                 1.7474                 1.9561
 IR Inten    --      9.1544                75.8922                 1.5975

                     70                     71                     72
                      A                      A                      A
 Frequencies --   1525.2310              1548.4532              1549.4737
 Red. masses --      1.7352                 5.5894                 3.0584
 Frc consts  --      2.3784                 7.8960                 4.3262
 IR Inten    --    897.1253                 2.1784               540.9689

                     73                     74                     75
                      A                      A                      A
 Frequencies --   1583.2793              1587.2397              1654.7386
 Red. masses --      2.5037                 1.9558                 3.2752
 Frc consts  --      3.6978                 2.9031                 5.2838
 IR Inten    --     82.0442               222.1700                 3.4306

                     76                     77                     78
                      A                      A                      A
 Frequencies --   1658.7889              1693.7533              2821.3155
 Red. masses --      1.9471                 2.3747                 1.0737
 Frc consts  --      3.1566                 4.0138                 5.0355
 IR Inten    --      0.3165                22.1346               858.4844

                     79                     80                     81
                      A                      A                      A
 Frequencies --   2842.9205              2927.5576              2946.7288
 Red. masses --      1.0738                 1.0762                 1.0753
 Frc consts  --      5.1135                 5.4343                 5.5013
 IR Inten    --   4056.2460                66.1070                13.2065

                     82                     83                     84
                      A                      A                      A
 Frequencies --   3006.4354              3044.2441              3088.7751
 Red. masses --      1.0379                 1.0997                 1.0993
 Frc consts  --      5.5274                 6.0046                 6.1795
 IR Inten    --    139.7015                50.8000                39.7437

                     85                     86                     87
                      A                      A                      A
 Frequencies --   3154.1821              3156.7266              3172.4882
 Red. masses --      1.0895                 1.0869                 1.0932
 Frc consts  --      6.3863                 6.3814                 6.4828
 IR Inten    --     52.2619                49.7823                38.1179

 - Thermochemistry -
 -------------------
 Temperature   298.150 Kelvin.  Pressure   1.00000 Atm.
 Atom     1 has atomic number  6 and mass  12.00000

 Molecular mass:   286.04774 amu.
 Principal axes and moments of inertia in atomic units:
                           1         2         3
     Eigenvalues --  3584.038856702.41586**********
           X            0.99826   0.04158   0.04174
           Y           -0.03402   0.98525  -0.16770
           Z           -0.04809   0.16599   0.98495
 This molecule is an asymmetric top.
 Rotational symmetry number  1.
 Warning -- assumption of classical behavior for rotation
           may cause significant error
 Rotational temperatures (Kelvin)      0.02417     0.01292     0.00843
 Rotational constants (GHZ):           0.50355     0.26927     0.17564
 Zero-point vibrational energy     573968.7 (Joules/Mol)
                                  137.18181 (Kcal/Mol)
 Warning -- explicit consideration of  29 degrees of freedom as
           vibrations may cause significant error
 Vibrational temperatures:     65.63    89.87    94.45   144.17   159.95
          (Kelvin)            186.81   246.36   285.49   292.20   405.48
                              411.13   458.29   462.62   534.81   545.93
                              563.21   575.62   607.56   625.90   672.81
                              683.06   693.45   694.39   716.18   773.36
                              788.27   803.26   885.18   891.80   946.99
                              979.01  1021.54  1035.63  1050.72  1076.61
                             1130.89  1145.30  1189.47  1208.15  1230.11
                             1242.95  1253.21  1303.24  1313.80  1320.36
                             1344.05  1411.24  1463.24  1499.29  1548.92
                             1592.65  1701.19  1703.48  1737.71  1785.47
                             1791.09  1794.49  1846.16  1900.68  1907.14
                             1932.84  1963.44  1969.43  2019.86  2063.70
                             2080.49  2111.16  2125.71  2153.25  2194.47
                             2227.88  2229.35  2277.99  2283.68  2380.80
                             2386.63  2436.93  4059.24  4090.33  4212.10
                             4239.69  4325.59  4379.99  4444.06  4538.16
                             4541.83  4564.50

 Zero-point correction=                           0.218613 (Hartree/Particle)
 Thermal correction to Energy=                    0.235078
 Thermal correction to Enthalpy=                  0.236022
 Thermal correction to Gibbs Free Energy=         0.174883
 Sum of electronic and zero-point Energies=          -1029.358569
 Sum of electronic and thermal Energies=             -1029.342104
 Sum of electronic and thermal Enthalpies=           -1029.341160
 Sum of electronic and thermal Free Energies=        -1029.402299

                     E (Thermal)             CV                S
                      KCal/Mol        Cal/Mol-Kelvin    Cal/Mol-Kelvin
 Total                  147.513             66.201            128.677
 Electronic               0.000              0.000              0.000
 Translational            0.889              2.981             42.851
 Rotational               0.889              2.981             33.867
 Vibrational            145.736             60.239             51.959
 Vibration     1          0.595              1.979              4.999
 Vibration     2          0.597              1.972              4.378
 Vibration     3          0.597              1.971              4.280
 Vibration     4          0.604              1.949              3.450
 Vibration     5          0.607              1.940              3.248
 Vibration     6          0.612              1.923              2.948
 Vibration     7          0.626              1.878              2.422
 Vibration     8          0.637              1.842              2.148
 Vibration     9          0.639              1.836              2.105
 Vibration    10          0.681              1.707              1.523
 Vibration    11          0.684              1.700              1.499
 Vibration    12          0.705              1.638              1.318
 Vibration    13          0.707              1.632              1.302
 Vibration    14          0.743              1.530              1.073
 Vibration    15          0.749              1.514              1.041
 Vibration    16          0.759              1.488              0.995
 Vibration    17          0.766              1.470              0.962
 Vibration    18          0.785              1.422              0.884
 Vibration    19          0.796              1.394              0.842
 Vibration    20          0.825              1.322              0.744
 Vibration    21          0.831              1.306              0.724
 Vibration    22          0.838              1.290              0.705
 Vibration    23          0.839              1.289              0.703
 Vibration    24          0.853              1.255              0.664
 Vibration    25          0.893              1.167              0.571
 Vibration    26          0.903              1.144              0.549
 Vibration    27          0.914              1.122              0.527
 Vibration    28          0.975              1.000              0.424
 Vibration    29          0.980              0.990              0.417

                           ! Non-Optimized Parameters !
 Normal termination of Gaussian 16 at Sun Feb 11 02:25:52 2024.
