 Gaussian 16, Revision A.03,
 Gaussian 16:  ES64L-G16RevA.03 25-Dec-2016

 ----------------------------------------------------------------------
 #P UB3LYP/6-311++G(d,p) nosym opt freq SCRF=(PCM,Solvent=n,n-DiMethylF
 ormamide)
 ----------------------------------------------------------------------

 --------
 Oxidized
 --------
 Symbolic Z-matrix:
 Charge = -2 Multiplicity = 1

 SCF Done:  E(UB3LYP) =  -1935.86504486     A.U. after   16 cycles
 SCF Done:  E(UB3LYP) =  -1935.86601979     A.U. after   13 cycles
 SCF Done:  E(UB3LYP) =  -1935.86605637     A.U. after   14 cycles
 SCF Done:  E(UB3LYP) =  -1935.86678435     A.U. after   13 cycles
 SCF Done:  E(UB3LYP) =  -1935.86679464     A.U. after   12 cycles
 SCF Done:  E(UB3LYP) =  -1935.86684881     A.U. after   12 cycles
 SCF Done:  E(UB3LYP) =  -1935.86685045     A.U. after   12 cycles
 SCF Done:  E(UB3LYP) =  -1935.86686243     A.U. after   11 cycles
 SCF Done:  E(UB3LYP) =  -1935.86686257     A.U. after   11 cycles
 SCF Done:  E(UB3LYP) =  -1935.86686289     A.U. after   10 cycles
 SCF Done:  E(UB3LYP) =  -1935.86686297     A.U. after   10 cycles
 Optimization completed.
    -- Stationary point found.
 Normal termination of Gaussian 16 at Sun Feb 11 00:11:58 2024.

 ----------------------------------------------------------------------
 #P Geom=AllCheck Guess=TCheck SCRF=Check GenChk UB3LYP/6-311++G(d,p) F
 req
 ----------------------------------------------------------------------

 Structure from the checkpoint file:  "224.chk"
 --------
 Oxidized
 --------
 Charge = -2 Multiplicity = 1

                          Input orientation:
 ---------------------------------------------------------------------
 Center     Atomic      Atomic             Coordinates (Angstroms)
 Number     Number       Type             X           Y           Z
 ---------------------------------------------------------------------
      1          6           0        5.525090   -4.875814    0.816574
      2          6           0        6.663885   -4.576149    0.083806
      3          6           0        6.647798   -3.518623   -0.824576
      4          6           0        4.365678   -4.119439    0.633652
      5          6           0        4.319178   -3.088366   -0.325243
      6          6           0        5.489377   -2.774738   -1.044831
      7          6           0        3.176880   -4.445726    1.484989
      8          6           0        2.167190   -3.360112    1.672874
      9          6           0        2.041216   -2.442155    0.611252
     10          6           0        2.979193   -2.469509   -0.556002
     11          6           0        1.299141   -3.245127    2.777176
     12          6           0        0.316220   -2.256069    2.774785
     13          6           0        0.166320   -1.390266    1.692597
     14          6           0        1.029039   -1.480461    0.610405
     15          8           0        3.053089   -5.553826    1.972894
     16          8           0        2.635439   -2.024661   -1.635517
     17         16           0        1.392617   -4.254324    4.315704
     18          8           0        0.651414   -3.436259    5.317896
     19          8           0        2.835460   -4.380902    4.643976
     20          8           0        0.705044   -5.539948    4.022782
     21         16           0        5.668679   -1.364869   -2.217236
     22          8           0        7.142901   -1.153807   -2.289476
     23          8           0        5.102338   -1.811747   -3.517194
     24          8           0        4.961737   -0.217423   -1.593160
     25          1           0        5.521021   -5.676841    1.544416
     26          1           0        7.574188   -5.145266    0.230254
     27          1           0        7.546882   -3.247631   -1.361071
     28          1           0       -0.322742   -2.159746    3.642065
     29          1           0       -0.611241   -0.635886    1.711280
     30          1           0        0.945272   -0.805379   -0.231446
 ---------------------------------------------------------------------

 SCF Done:  E(UB3LYP) =  -1935.86686297     A.U. after    1 cycles

 Alpha  occ. eigenvalues --  -89.04606 -89.04601 -19.12958 -19.12947 -19.08764
 Alpha  occ. eigenvalues --  -19.08756 -19.08755 -19.08750 -19.08670 -19.08662
 Alpha  occ. eigenvalues --  -10.28295 -10.28290 -10.21986 -10.21978 -10.21703
 Alpha  occ. eigenvalues --  -10.21691 -10.20991 -10.20989 -10.19747 -10.19744
 Alpha  occ. eigenvalues --  -10.19714 -10.19708 -10.19648 -10.19648  -8.10455
 Alpha  occ. eigenvalues --   -8.10449  -6.06716  -6.06710  -6.06704  -6.06698
 Alpha  occ. eigenvalues --   -6.06666  -6.06660  -1.10714  -1.10702  -1.06575
 Alpha  occ. eigenvalues --   -1.06358  -0.97080  -0.97069  -0.96767  -0.96757
 Alpha  occ. eigenvalues --   -0.89759  -0.88452  -0.81541  -0.78632  -0.78321
 Alpha  occ. eigenvalues --   -0.77139  -0.69360  -0.67685  -0.64609  -0.64519
 Alpha  occ. eigenvalues --   -0.62306  -0.57853  -0.56396  -0.55538  -0.54256
 Alpha  occ. eigenvalues --   -0.50881  -0.49595  -0.49428  -0.48754  -0.47710
 Alpha  occ. eigenvalues --   -0.47601  -0.45820  -0.45792  -0.45406  -0.45023
 Alpha  occ. eigenvalues --   -0.44947  -0.44630  -0.44155  -0.43191  -0.41457
 Alpha  occ. eigenvalues --   -0.39790  -0.39235  -0.39079  -0.39056  -0.38074
 Alpha  occ. eigenvalues --   -0.37118  -0.33264  -0.33237  -0.33018  -0.33011
 Alpha  occ. eigenvalues --   -0.31098  -0.30860  -0.30431  -0.29675  -0.29229
 Alpha  occ. eigenvalues --   -0.29152  -0.28881  -0.27742  -0.27167  -0.26919
 Alpha  occ. eigenvalues --   -0.26507  -0.26433  -0.25126  -0.25095
 Alpha virt. eigenvalues --   -0.10888  -0.07612  -0.03484  -0.03354  -0.00114
 Alpha virt. eigenvalues --    0.00698   0.01313   0.01595   0.02440   0.02701
 Alpha virt. eigenvalues --    0.02706   0.03608   0.03942   0.04631   0.04886

  Beta  occ. eigenvalues --  -89.04606 -89.04601 -19.12958 -19.12947 -19.08764
  Beta  occ. eigenvalues --  -19.08756 -19.08755 -19.08750 -19.08670 -19.08662
  Beta  occ. eigenvalues --  -10.28295 -10.28290 -10.21986 -10.21978 -10.21703
  Beta  occ. eigenvalues --  -10.21691 -10.20991 -10.20989 -10.19747 -10.19744
  Beta  occ. eigenvalues --  -10.19714 -10.19708 -10.19648 -10.19648  -8.10455
  Beta  occ. eigenvalues --   -8.10449  -6.06716  -6.06710  -6.06704  -6.06698
  Beta  occ. eigenvalues --   -6.06666  -6.06660  -1.10714  -1.10702  -1.06575
  Beta  occ. eigenvalues --   -1.06358  -0.97080  -0.97069  -0.96767  -0.96757
  Beta  occ. eigenvalues --   -0.89759  -0.88452  -0.81541  -0.78632  -0.78321
  Beta  occ. eigenvalues --   -0.77139  -0.69360  -0.67685  -0.64609  -0.64519
  Beta  occ. eigenvalues --   -0.62306  -0.57853  -0.56396  -0.55538  -0.54256
  Beta  occ. eigenvalues --   -0.50881  -0.49595  -0.49428  -0.48754  -0.47710
  Beta  occ. eigenvalues --   -0.47601  -0.45820  -0.45792  -0.45406  -0.45023
  Beta  occ. eigenvalues --   -0.44947  -0.44630  -0.44155  -0.43191  -0.41457
  Beta  occ. eigenvalues --   -0.39790  -0.39235  -0.39079  -0.39056  -0.38074
  Beta  occ. eigenvalues --   -0.37118  -0.33264  -0.33237  -0.33018  -0.33011
  Beta  occ. eigenvalues --   -0.31098  -0.30860  -0.30431  -0.29675  -0.29229
  Beta  occ. eigenvalues --   -0.29152  -0.28881  -0.27742  -0.27167  -0.26919
  Beta  occ. eigenvalues --   -0.26507  -0.26433  -0.25126  -0.25095
  Beta virt. eigenvalues --   -0.10888  -0.07612  -0.03484  -0.03354  -0.00114
  Beta virt. eigenvalues --    0.00698   0.01313   0.01595   0.02440   0.02701
  Beta virt. eigenvalues --    0.02706   0.03608   0.03942   0.04631   0.04886

 Mulliken charges and spin densities:
               1          2
     1  C   -0.332724   0.000000
     2  C   -0.406078   0.000000
     3  C    0.178403  -0.000000
     4  C    0.658295  -0.000000
     5  C    0.892957  -0.000000
     6  C   -0.768877   0.000000
     7  C   -1.050648   0.000000
     8  C    0.917822  -0.000000
     9  C    0.651551   0.000000
    10  C   -1.054557   0.000000
    11  C   -0.764580   0.000000
    12  C    0.178983  -0.000000
    13  C   -0.406065  -0.000000
    14  C   -0.338959   0.000000
    15  O   -0.216468  -0.000000
    16  O   -0.219817  -0.000000
    17  S    0.552824   0.000000
    18  O   -0.389991  -0.000000
    19  O   -0.410049  -0.000000
    20  O   -0.372152  -0.000000
    21  S    0.548851   0.000000
    22  O   -0.390923  -0.000000
    23  O   -0.369844  -0.000000
    24  O   -0.411456  -0.000000
    25  H    0.197504   0.000000
    26  H    0.220141   0.000000
    27  H    0.243781  -0.000000
    28  H    0.243776   0.000000
    29  H    0.220209  -0.000000
    30  H    0.198095   0.000000
 Sum of Mulliken charges =  -2.00000   0.00000

 Dipole moment (field-independent basis, Debye):
    X=            -33.0711    Y=             28.1442    Z=             -9.0565  Tot=             44.3601
 Quadrupole moment (field-independent basis, Debye-Ang):
   XX=           -309.1538   YY=           -283.8490   ZZ=           -316.6149
   XY=             43.7658   XZ=             40.0862   YZ=             93.2651

  Exact polarizability: 359.464 -50.383 308.887 -65.779 -74.471 339.661
 Approx polarizability: 404.568 -62.189 368.442 -53.845 -82.781 383.581

                      1                      2                      3
                      A                      A                      A
 Frequencies --     23.6806                39.0167                49.2346
 Red. masses --     13.1815                 8.5626                10.8937
 Frc consts  --      0.0044                 0.0077                 0.0156
 IR Inten    --      8.4382                19.5431                 5.4908

                      4                      5                      6
                      A                      A                      A
 Frequencies --     68.9937                77.7794               126.5778
 Red. masses --     13.2336                10.0857                 9.4281
 Frc consts  --      0.0371                 0.0359                 0.0890
 IR Inten    --      6.8399                 1.5631                 5.4865

                      7                      8                      9
                      A                      A                      A
 Frequencies --    129.7527               146.2216               153.6671
 Red. masses --      9.0682                 8.2159                 9.8204
 Frc consts  --      0.0900                 0.1035                 0.1366
 IR Inten    --      0.2142                 0.2782                 2.0504

                     10                     11                     12
                      A                      A                      A
 Frequencies --    160.9362               195.8378               225.7800
 Red. masses --      9.1009                 6.9086                 8.7323
 Frc consts  --      0.1389                 0.1561                 0.2623
 IR Inten    --      0.9737                 2.7316                 4.9233

                     13                     14                     15
                      A                      A                      A
 Frequencies --    240.6050               248.6368               283.2340
 Red. masses --     14.2565                10.4341                10.4495
 Frc consts  --      0.4863                 0.3800                 0.4939
 IR Inten    --      0.6354                 0.1747                 9.0563

                     16                     17                     18
                      A                      A                      A
 Frequencies --    291.9620               306.0060               329.6018
 Red. masses --      6.6764                 8.9454                 6.6347
 Frc consts  --      0.3353                 0.4935                 0.4247
 IR Inten    --      0.2444                 5.8705                 0.1579

                     19                     20                     21
                      A                      A                      A
 Frequencies --    350.4862               396.7658               397.1468
 Red. masses --      7.1819                 8.5850                 8.9275
 Frc consts  --      0.5198                 0.7963                 0.8296
 IR Inten    --      5.4419                29.0402                20.6906

                     22                     23                     24
                      A                      A                      A
 Frequencies --    413.9707               445.3586               464.4199
 Red. masses --      6.6739                 7.5799                 8.7400
 Frc consts  --      0.6739                 0.8858                 1.1107
 IR Inten    --     17.2469                 0.0489                10.7634

                     25                     26                     27
                      A                      A                      A
 Frequencies --    486.5443               489.2818               512.1174
 Red. masses --     10.4390                 5.7423                13.9624
 Frc consts  --      1.4560                 0.8099                 2.1575
 IR Inten    --     17.0241                22.5773                43.5503

                     28                     29                     30
                      A                      A                      A
 Frequencies --    514.2312               525.5765               558.2972
 Red. masses --      9.1067                11.6335                 5.5980
 Frc consts  --      1.4188                 1.8934                 1.0280
 IR Inten    --     19.8647                 2.6451                29.9588

                     31                     32                     33
                      A                      A                      A
 Frequencies --    561.8100               583.6831               598.8175
 Red. masses --      7.9853                15.5378                17.7335
 Frc consts  --      1.4850                 3.1188                 3.7466
 IR Inten    --     63.9162               634.3578                20.7442

                     34                     35                     36
                      A                      A                      A
 Frequencies --    624.9613               682.8574               692.6219
 Red. masses --      5.8456                 5.9408                 5.8111
 Frc consts  --      1.3452                 1.6321                 1.6425
 IR Inten    --      9.6998                15.7493                 7.4192

                     37                     38                     39
                      A                      A                      A
 Frequencies --    719.7982               729.9934               770.5943
 Red. masses --      8.0597                 3.0646                 8.6046
 Frc consts  --      2.4603                 0.9622                 3.0104
 IR Inten    --     71.4446                75.9726                 4.8671

                     40                     41                     42
                      A                      A                      A
 Frequencies --    789.4484               792.7389               822.3263
 Red. masses --      7.7864                 1.5023                 5.6935
 Frc consts  --      2.8591                 0.5562                 2.2684
 IR Inten    --     10.0938                 5.5221                 9.5211

                     43                     44                     45
                      A                      A                      A
 Frequencies --    828.7808               853.2329               922.7359
 Red. masses --      1.6791                 4.9122                 7.0504
 Frc consts  --      0.6795                 2.1070                 3.5368
 IR Inten    --     50.9003                 7.1182                 1.6993

                     46                     47                     48
                      A                      A                      A
 Frequencies --    960.6058               961.9992               967.2870
 Red. masses --      1.5404                 1.4617                 4.9418
 Frc consts  --      0.8375                 0.7970                 2.7242
 IR Inten    --     32.3037                17.1063               145.6882

                     49                     50                     51
                      A                      A                      A
 Frequencies --    977.5866               978.6337              1016.9023
 Red. masses --     12.9100                11.0939                 1.3438
 Frc consts  --      7.2692                 6.2600                 0.8187
 IR Inten    --     99.9444               668.0072                 1.7175

                     52                     53                     54
                      A                      A                      A
 Frequencies --   1017.3406              1085.2096              1097.6780
 Red. masses --      1.3424                 2.6378                 2.2780
 Frc consts  --      0.8186                 1.8303                 1.6172
 IR Inten    --      1.9518                 8.3390               109.1887

                     55                     56                     57
                      A                      A                      A
 Frequencies --   1120.0800              1122.3058              1137.9816
 Red. masses --     13.4213                 8.5213                15.7195
 Frc consts  --      9.9207                 6.3238                11.9939
 IR Inten    --    467.7605               460.9614               497.1753

                     58                     59                     60
                      A                      A                      A
 Frequencies --   1139.0699              1148.1755              1151.6471
 Red. masses --     15.5551                 3.1564                 4.7193
 Frc consts  --     11.8911                 2.4517                 3.6878
 IR Inten    --    550.1319                19.4296               133.0544

                     61                     62                     63
                      A                      A                      A
 Frequencies --   1180.0283              1195.4957              1195.6942
 Red. masses --      1.3685                 1.2666                 2.3147
 Frc consts  --      1.1227                 1.0666                 1.9498
 IR Inten    --     44.5225                 1.1827                 0.1123

                     64                     65                     66
                      A                      A                      A
 Frequencies --   1228.4693              1273.1109              1295.7559
 Red. masses --      1.8419                 4.4664                 3.0582
 Frc consts  --      1.6377                 4.2652                 3.0252
 IR Inten    --     69.8087               772.5753                 0.7532

                     67                     68                     69
                      A                      A                      A
 Frequencies --   1331.1347              1340.1712              1441.0880
 Red. masses --      8.0732                 8.6078                 3.5743
 Frc consts  --      8.4283                 9.1089                 4.3735
 IR Inten    --    143.2647                 1.0971                24.5555

                     70                     71                     72
                      A                      A                      A
 Frequencies --   1451.5620              1469.7478              1477.2368
 Red. masses --      3.6915                 2.2488                 2.3625
 Frc consts  --      4.5827                 2.8621                 3.0375
 IR Inten    --      0.4172                 0.7148                 0.5859

                     73                     74                     75
                      A                      A                      A
 Frequencies --   1592.2476              1605.4902              1607.3221
 Red. masses --      6.3625                 6.9340                 5.8350
 Frc consts  --      9.5038                10.5305                 8.8816
 IR Inten    --      0.8585                 1.0161               180.7163

                     76                     77                     78
                      A                      A                      A
 Frequencies --   1611.6396              1725.0068              1726.4389
 Red. masses --      5.8622                12.9188                12.7475
 Frc consts  --      8.9711                22.6492                22.3860
 IR Inten    --      1.7870               173.9513               679.9243

                     79                     80                     81
                      A                      A                      A
 Frequencies --   3185.3871              3185.4869              3206.8486
 Red. masses --      1.0891                 1.0890                 1.0925
 Frc consts  --      6.5106                 6.5105                 6.6198
 IR Inten    --      9.5964                 7.7241                 6.9618

                     82                     83                     84
                      A                      A                      A
 Frequencies --   3207.1276              3213.8506              3214.3763
 Red. masses --      1.0926                 1.0931                 1.0929
 Frc consts  --      6.6213                 6.6522                 6.6534
 IR Inten    --      3.6766                 8.0100                 7.1791

 - Thermochemistry -
 -------------------
 Temperature   298.150 Kelvin.  Pressure   1.00000 Atm.
 Atom     1 has atomic number  6 and mass  12.00000

 Molecular mass:   365.95041 amu.
 Principal axes and moments of inertia in atomic units:
                           1         2         3
     Eigenvalues --  3808.36030********************
           X           -0.58327  -0.66447   0.46721
           Y           -0.27728   0.70351   0.65437
           Z            0.76349  -0.25212   0.59458
 This molecule is an asymmetric top.
 Rotational symmetry number  1.
 Warning -- assumption of classical behavior for rotation
           may cause significant error
 Rotational temperatures (Kelvin)      0.02274     0.00612     0.00520
 Rotational constants (GHZ):           0.47389     0.12754     0.10828
 Zero-point vibrational energy     481313.5 (Joules/Mol)
                                  115.03670 (Kcal/Mol)
 Warning -- explicit consideration of  33 degrees of freedom as
           vibrations may cause significant error
 Vibrational temperatures:     34.07    56.14    70.84    99.27   111.91
          (Kelvin)            182.12   186.69   210.38   221.09   231.55
                              281.77   324.85   346.18   357.73   407.51
                              420.07   440.27   474.22   504.27   570.86
                              571.41   595.61   640.77   668.20   700.03
                              703.97   736.82   739.86   756.19   803.27
                              808.32   839.79   861.56   899.18   982.48
                              996.53  1035.63  1050.30  1108.71  1135.84
                             1140.57  1183.14  1192.43  1227.61  1327.61
                             1382.10  1384.10  1391.71  1406.53  1408.04
                             1463.10  1463.73  1561.37  1579.31  1611.55
                             1614.75  1637.30  1638.87  1651.97  1656.96
                             1697.80  1720.05  1720.34  1767.49  1831.72
                             1864.30  1915.21  1928.21  2073.40  2088.47
                             2114.64  2125.41  2290.89  2309.94  2312.58
                             2318.79  2481.90  2483.96  4583.06  4583.21
                             4613.94  4614.34  4624.01  4624.77

 Zero-point correction=                           0.183323 (Hartree/Particle)
 Thermal correction to Energy=                    0.202637
 Thermal correction to Enthalpy=                  0.203581
 Thermal correction to Gibbs Free Energy=         0.134378
 Sum of electronic and zero-point Energies=          -1935.683540
 Sum of electronic and thermal Energies=             -1935.664226
 Sum of electronic and thermal Enthalpies=           -1935.663282
 Sum of electronic and thermal Free Energies=        -1935.732485

                     E (Thermal)             CV                S
                      KCal/Mol        Cal/Mol-Kelvin    Cal/Mol-Kelvin
 Total                  127.157             73.848            145.651
 Electronic               0.000              0.000              0.000
 Translational            0.889              2.981             43.585
 Rotational               0.889              2.981             35.150
 Vibrational            125.379             67.886             66.916
 Vibration     1          0.593              1.985              6.299
 Vibration     2          0.594              1.981              5.308
 Vibration     3          0.595              1.978              4.848
 Vibration     4          0.598              1.969              4.182
 Vibration     5          0.599              1.964              3.946
 Vibration     6          0.611              1.927              2.997
 Vibration     7          0.612              1.924              2.950
 Vibration     8          0.617              1.907              2.721
 Vibration     9          0.619              1.899              2.626
 Vibration    10          0.622              1.890              2.539
 Vibration    11          0.636              1.846              2.172
 Vibration    12          0.650              1.802              1.912
 Vibration    13          0.658              1.778              1.798
 Vibration    14          0.662              1.765              1.740
 Vibration    15          0.682              1.705              1.514
 Vibration    16          0.687              1.689              1.463
 Vibration    17          0.696              1.662              1.384
 Vibration    18          0.712              1.616              1.262
 Vibration    19          0.727              1.574              1.164
 Vibration    20          0.763              1.477              0.975
 Vibration    21          0.764              1.476              0.973
 Vibration    22          0.778              1.440              0.913
 Vibration    23          0.805              1.371              0.810
 Vibration    24          0.822              1.329              0.753
 Vibration    25          0.843              1.280              0.693
 Vibration    26          0.845              1.274              0.685
 Vibration    27          0.867              1.223              0.629
 Vibration    28          0.869              1.218              0.623
 Vibration    29          0.881              1.193              0.597
 Vibration    30          0.914              1.122              0.527
 Vibration    31          0.918              1.114              0.520
 Vibration    32          0.941              1.067              0.479
 Vibration    33          0.957              1.034              0.452

                           ! Non-Optimized Parameters !
 Normal termination of Gaussian 16 at Sun Feb 11 02:52:16 2024.
