 Q-Chem 5.4, Q-Chem, Inc., Pleasanton, CA (2021)
 Q-Chem 5.4.0 for Intel X86 EM64T Linux

User input:
--------------------------------------------------------------
$molecule
-1 2
Cl                -3.0876310000      0.6713610000      0.1056380000
C                 -1.3581100000      0.2925840000      0.0464480000
C                 -0.9614530000     -1.0133090000      0.0338630000
C                  0.4327630000     -1.4164130000     -0.0137470000
O                  0.7812060000     -2.6202600000     -0.0248310000
C                  1.3581200000     -0.2924660000     -0.0464460000
C                  0.9614770000      1.0133010000     -0.0338630000
C                 -0.4325710000      1.4164410000      0.0137490000
O                 -0.7812850000      2.6202770000      0.0248320000
Cl                 3.0875910000     -0.6716480000     -0.1056440000
H                 -1.6875800000     -1.8168230000      0.0594660000
H                  1.6874730000      1.8169560000     -0.0594660000
$end

$rem
BASIS  =  6-311++G(d,p)
GUI  =  2
JOB_TYPE  =  SP
METHOD  =  B3LYP
SCF_CONVERGENCE  = 8
SOLVENT_METHOD = sm12
$end

$smx
solvent dimethylformamide
charges CM5
$end

--------------------------------------------------------------

             Standard Nuclear Orientation (Angstroms)
    I     Atom           X                Y                Z
 ----------------------------------------------------------------
    1      Cl     -3.0876310000     0.6713610000     0.1056380000
    2      C      -1.3581100000     0.2925840000     0.0464480000
    3      C      -0.9614530000    -1.0133090000     0.0338630000
    4      C       0.4327630000    -1.4164130000    -0.0137470000
    5      O       0.7812060000    -2.6202600000    -0.0248310000
    6      C       1.3581200000    -0.2924660000    -0.0464460000
    7      C       0.9614770000     1.0133010000    -0.0338630000
    8      C      -0.4325710000     1.4164410000     0.0137490000
    9      O      -0.7812850000     2.6202770000     0.0248320000
   10      Cl      3.0875910000    -0.6716480000    -0.1056440000
   11      H      -1.6875800000    -1.8168230000     0.0594660000
   12      H       1.6874730000     1.8169560000    -0.0594660000
 ----------------------------------------------------------------

   18   -1300.8999668123      1.65e-09  Convergence criterion met
 Total energy in the final basis set =    -1300.9767477344

                    Orbital Energies (a.u.)
 --------------------------------------------------------------

 Alpha MOs
 -- Occupied --
********-101.5515 -19.0882 -19.0881 -10.2397 -10.2397 -10.2334 -10.2334
-10.1840 -10.1840  -9.4653  -9.4653  -7.2295  -7.2295  -7.2206  -7.2206
 -7.2198  -7.2198  -1.0155  -1.0127  -0.8810  -0.8669  -0.8068  -0.7384
 -0.6901  -0.6170  -0.5717  -0.5039  -0.4819  -0.4591  -0.4345  -0.4338
 -0.4166  -0.3991  -0.3932  -0.3869  -0.3557  -0.3394  -0.3138  -0.3110
 -0.2836  -0.2564  -0.2543  -0.2518  -0.1746

 Beta MOs
 -- Occupied --
********-101.5514 -19.0807 -19.0807 -10.2388 -10.2388 -10.2320 -10.2320
-10.1830 -10.1830  -9.4652  -9.4652  -7.2296  -7.2296  -7.2204  -7.2204
 -7.2198  -7.2198  -1.0030  -0.9998  -0.8773  -0.8655  -0.8034  -0.7352
 -0.6807  -0.6129  -0.5676  -0.5018  -0.4779  -0.4562  -0.4336  -0.4180
 -0.4090  -0.3937  -0.3850  -0.3718  -0.3439  -0.3280  -0.3133  -0.3107
 -0.2545  -0.2494  -0.2473  -0.2449

          Ground-State Mulliken Net Atomic Charges

     Atom                 Charge (a.u.)    Spin (a.u.)
  --------------------------------------------------------
      1 Cl                    0.466570       0.005847
      2 C                     1.231883       0.095252
      3 C                    -0.549926       0.075379
      4 C                    -1.506574       0.062116
      5 O                    -0.342598       0.268092
      6 C                     1.232447       0.095378
      7 C                    -0.549284       0.075407
      8 C                    -1.506419       0.062153
      9 O                    -0.342690       0.268165
     10 Cl                    0.466523       0.005854
     11 H                     0.200026      -0.006820
     12 H                     0.200043      -0.006823
  --------------------------------------------------------
  Sum of atomic charges =    -1.000000

                    Cartesian Multipole Moments
 -----------------------------------------------------------------
    Charge (ESU x 10^10)
                -4.8032
    Dipole Moment (Debye)
         X       0.0003      Y      -0.0002      Z      -0.0000
       Tot       0.0004
    Quadrupole Moments (Debye-Ang)
        XX     -89.1541     XY      13.2708     YY    -104.9940
        XZ       0.5019     YZ      -0.4329     ZZ     -74.2648

 Total job time:  134.40s(wall), 930.05s(cpu)
        *  Thank you very much for using Q-Chem.  Have a nice day.  *
