 Gaussian 16, Revision A.03,
 Gaussian 16:  ES64L-G16RevA.03 25-Dec-2016

 ----------------------------------------------------------------
 #P UB3LYP/6-311++G(d,p) SCRF=(PCM,Solvent=n,n-DiMethylFormamide)
 ----------------------------------------------------------------

 -------
 Reduced
 -------
 Symbolic Z-matrix:
 Charge = -2 Multiplicity = 1

                         Standard orientation:
 ---------------------------------------------------------------------
 Center     Atomic      Atomic             Coordinates (Angstroms)
 Number     Number       Type             X           Y           Z
 ---------------------------------------------------------------------
      1          6           0       -0.000122   -1.656689    0.005158
      2          6           0        1.232568   -0.901288    0.001024
      3          6           0        1.226486    0.509471   -0.002476
      4          6           0       -0.000028    1.259815   -0.010081
      5          6           0       -1.226622    0.509575   -0.003240
      6          6           0       -1.232708   -0.901155    0.001377
      7          8           0       -0.000288   -2.963684    0.004545
      8          8           0       -0.000096    2.573054   -0.020600
      9          6           0       -2.484838   -1.782762   -0.009671
     10          6           0       -3.340528   -1.721344    1.275432
     11          6           0       -3.351889   -1.679059   -1.282984
     12          6           0       -2.526849    1.319057    0.009447
     13          6           0       -2.658371    2.193065    1.276357
     14          6           0       -2.693944    2.179667   -1.262056
     15          6           0        2.484747   -1.782936   -0.013062
     16          6           0        3.337737   -1.727816    1.274239
     17          6           0        3.354294   -1.672739   -1.284056
     18          6           0        2.526861    1.318669    0.013149
     19          6           0        2.697467    2.179076   -1.257976
     20          6           0        2.655777    2.192863    1.280275
     21          1           0       -2.052135   -2.788560   -0.027078
     22          1           0       -4.120087   -2.501166    1.264099
     23          1           0       -3.842536   -0.758795    1.420039
     24          1           0       -2.705517   -1.896060    2.149295
     25          1           0       -3.857701   -0.714227   -1.391605
     26          1           0       -4.127283   -2.460646   -1.289339
     27          1           0       -2.724570   -1.823147   -2.168223
     28          1           0       -3.366459    0.623771    0.026136
     29          1           0       -2.652079    1.565552    2.175084
     30          1           0       -3.599945    2.764861    1.266916
     31          1           0       -1.812166    2.882258    1.321490
     32          1           0       -1.853958    2.874183   -1.333030
     33          1           0       -3.640175    2.744748   -1.235571
     34          1           0       -2.703107    1.544882   -2.155379
     35          1           0        2.052265   -2.788671   -0.036084
     36          1           0        4.120247   -2.504735    1.259516
     37          1           0        2.701432   -1.910694    2.145504
     38          1           0        3.836024   -0.764494    1.426453
     39          1           0        4.127471   -2.456259   -1.294200
     40          1           0        3.863139   -0.708748   -1.385260
     41          1           0        2.728364   -1.809035   -2.171555
     42          1           0        3.366107    0.623079    0.032295
     43          1           0        3.644949    2.742042   -1.230125
     44          1           0        1.859120    2.875456   -1.330076
     45          1           0        2.706459    1.544434   -2.151380
     46          1           0        3.597004    2.765140    1.272175
     47          1           0        2.648822    1.565429    2.179084
     48          1           0        1.809155    2.881634    1.324106
 ---------------------------------------------------------------------

 SCF Done:  E(UB3LYP) =  -853.674164992     A.U. after   17 cycles

 The electronic state is 1-A.
 Alpha  occ. eigenvalues --  -18.99635 -18.98336 -10.14580 -10.14152 -10.13823
 Alpha  occ. eigenvalues --  -10.13823 -10.13722 -10.13719 -10.13684 -10.13682
 Alpha  occ. eigenvalues --  -10.13450 -10.13445 -10.12642 -10.12637 -10.12607
 Alpha  occ. eigenvalues --  -10.12606 -10.10837 -10.10835 -10.10739 -10.10738
 Alpha  occ. eigenvalues --   -0.91051  -0.89814  -0.78459  -0.77886  -0.75438
 Alpha  occ. eigenvalues --   -0.75096  -0.72146  -0.66435  -0.66232  -0.66223
 Alpha  occ. eigenvalues --   -0.65193  -0.65154  -0.62380  -0.59406  -0.56482
 Alpha  occ. eigenvalues --   -0.54228  -0.52432  -0.49611  -0.47780  -0.44734
 Alpha  occ. eigenvalues --   -0.43376  -0.41834  -0.41130  -0.41058  -0.40513
 Alpha  occ. eigenvalues --   -0.40305  -0.39280  -0.39084  -0.38639  -0.38243
 Alpha  occ. eigenvalues --   -0.38005  -0.37286  -0.36723  -0.36224  -0.35834
 Alpha  occ. eigenvalues --   -0.35368  -0.35309  -0.33840  -0.32889  -0.31853
 Alpha  occ. eigenvalues --   -0.31625  -0.31271  -0.31010  -0.30938  -0.30425
 Alpha  occ. eigenvalues --   -0.29942  -0.29912  -0.29379  -0.28301  -0.27559
 Alpha  occ. eigenvalues --   -0.26704  -0.26564  -0.19718  -0.17896  -0.17554
 Alpha  occ. eigenvalues --   -0.15920  -0.09609
 Alpha virt. eigenvalues --   -0.00314   0.00504   0.00977   0.01235   0.02024
 Alpha virt. eigenvalues --    0.02374   0.02407   0.03137   0.03225   0.03420
 Alpha virt. eigenvalues --    0.03975   0.04505   0.04646   0.04801   0.05761

  Beta  occ. eigenvalues --  -18.99635 -18.98336 -10.14580 -10.14152 -10.13823
  Beta  occ. eigenvalues --  -10.13823 -10.13722 -10.13719 -10.13684 -10.13682
  Beta  occ. eigenvalues --  -10.13450 -10.13445 -10.12642 -10.12637 -10.12607
  Beta  occ. eigenvalues --  -10.12606 -10.10837 -10.10835 -10.10739 -10.10738
  Beta  occ. eigenvalues --   -0.91051  -0.89814  -0.78459  -0.77886  -0.75438
  Beta  occ. eigenvalues --   -0.75096  -0.72146  -0.66435  -0.66232  -0.66223
  Beta  occ. eigenvalues --   -0.65193  -0.65154  -0.62380  -0.59406  -0.56482
  Beta  occ. eigenvalues --   -0.54228  -0.52432  -0.49611  -0.47780  -0.44734
  Beta  occ. eigenvalues --   -0.43376  -0.41834  -0.41130  -0.41058  -0.40513
  Beta  occ. eigenvalues --   -0.40305  -0.39280  -0.39084  -0.38639  -0.38243
  Beta  occ. eigenvalues --   -0.38005  -0.37286  -0.36723  -0.36224  -0.35834
  Beta  occ. eigenvalues --   -0.35368  -0.35309  -0.33840  -0.32889  -0.31853
  Beta  occ. eigenvalues --   -0.31625  -0.31271  -0.31010  -0.30938  -0.30425
  Beta  occ. eigenvalues --   -0.29942  -0.29912  -0.29379  -0.28301  -0.27559
  Beta  occ. eigenvalues --   -0.26704  -0.26564  -0.19718  -0.17896  -0.17554
  Beta  occ. eigenvalues --   -0.15920  -0.09609
  Beta virt. eigenvalues --   -0.00314   0.00504   0.00977   0.01235   0.02024
  Beta virt. eigenvalues --    0.02374   0.02407   0.03137   0.03225   0.03420
  Beta virt. eigenvalues --    0.03975   0.04505   0.04646   0.04801   0.05761

 Mulliken charges and spin densities:
               1          2
     1  C   -1.252114   0.000000
     2  C    0.498439  -0.000000
     3  C    0.212721  -0.000000
     4  C   -0.578270   0.000000
     5  C    0.212732  -0.000000
     6  C    0.498177  -0.000000
     7  O   -0.652265  -0.000000
     8  O   -0.616354  -0.000000
     9  C    0.177464   0.000000
    10  C   -0.722992   0.000000
    11  C   -0.725673   0.000000
    12  C    0.698118  -0.000000
    13  C   -0.752322   0.000000
    14  C   -0.759366   0.000000
    15  C    0.177675   0.000000
    16  C   -0.722141  -0.000000
    17  C   -0.726591   0.000000
    18  C    0.698372  -0.000000
    19  C   -0.760034  -0.000000
    20  C   -0.751394   0.000000
    21  H    0.191331  -0.000000
    22  H    0.132063  -0.000000
    23  H    0.142627   0.000000
    24  H    0.142670  -0.000000
    25  H    0.143303   0.000000
    26  H    0.132293   0.000000
    27  H    0.141625  -0.000000
    28  H    0.093231  -0.000000
    29  H    0.106387  -0.000000
    30  H    0.128857  -0.000000
    31  H    0.165674  -0.000000
    32  H    0.166541  -0.000000
    33  H    0.129262  -0.000000
    34  H    0.106992   0.000000
    35  H    0.191241  -0.000000
    36  H    0.131962  -0.000000
    37  H    0.142878  -0.000000
    38  H    0.142629  -0.000000
    39  H    0.132403  -0.000000
    40  H    0.143354  -0.000000
    41  H    0.141510  -0.000000
    42  H    0.093268   0.000000
    43  H    0.129338   0.000000
    44  H    0.166339  -0.000000
    45  H    0.107237   0.000000
    46  H    0.128863   0.000000
    47  H    0.106227  -0.000000
    48  H    0.165713  -0.000000
 Sum of Mulliken charges =  -2.00000   0.00000

 Dipole moment (field-independent basis, Debye):
    X=              0.0034    Y=              1.4020    Z=              0.0248  Tot=              1.4022
 Quadrupole moment (field-independent basis, Debye-Ang):
   XX=           -157.2797   YY=           -201.9626   ZZ=           -145.1056
   XY=             -0.0022   XZ=             -0.0064   YZ=              0.3150

 Normal termination of Gaussian 16 at Sun Jan 21 07:57:06 2024.
