 Q-Chem 5.4, Q-Chem, Inc., Pleasanton, CA (2021)
 Q-Chem 5.4.0 for Intel X86 EM64T Linux

User input:
--------------------------------------------------------------
$molecule
-1 2
C                  5.2627680000     -2.3269510000      0.3723040000
C                  6.0194460000     -1.5014480000     -0.4381220000
C                  5.3850890000     -0.6054670000     -1.3221910000
C                  3.8526840000     -2.2925160000      0.3340880000
C                  3.2193670000     -1.3916360000     -0.5547650000
C                  4.0050380000     -0.5563890000     -1.3747140000
C                  3.0967500000     -3.1967010000      1.2219220000
C                  1.6377260000     -3.1312260000      1.1528750000
C                  1.0160040000     -2.2178730000      0.2520140000
C                  1.7587860000     -1.3193050000     -0.6303850000
C                  0.7818690000     -3.9735250000      1.9791820000
C                 -0.6419140000     -3.8631410000      1.8663250000
C                 -0.4013530000     -2.1444210000      0.1755700000
C                 -1.2067200000     -2.9288910000      0.9452880000
O                  3.7336100000     -3.9696040000      1.9847670000
O                  1.1834040000     -0.5254090000     -1.4135370000
H                  5.7252660000     -3.0243580000      1.0603400000
H                  7.1038710000     -1.5427600000     -0.3941310000
H                  5.9798250000      0.0429200000     -1.9587560000
H                 -2.2883010000     -2.8562630000      0.8706530000
H                  3.4849330000      0.1204160000     -2.0426710000
H                 -0.8118440000     -1.4303010000     -0.5284990000
C                 -1.4838040000     -4.6744510000      2.6621420000
C                 -0.9566230000     -5.5819040000      3.5565840000
C                  0.4333540000     -5.7064940000      3.6832730000
C                  1.2745930000     -4.9230100000      2.9148740000
O                 -1.7484490000     -6.3919720000      4.3513030000
H                 -2.5620770000     -4.5701300000      2.5562740000
H                  0.8356130000     -6.4236760000      4.3901130000
H                  2.3452800000     -5.0179850000      3.0114960000
H                 -2.6710040000     -6.1980960000      4.1577830000
$end

$rem
BASIS  =  6-311++G(d,p)
GUI  =  2
JOB_TYPE  =  SP
METHOD  =  B3LYP
SCF_CONVERGENCE  = 8
SOLVENT_METHOD = sm12
$end

$smx
solvent dimethylformamide
charges CM5
$end

--------------------------------------------------------------

             Standard Nuclear Orientation (Angstroms)
    I     Atom           X                Y                Z
 ----------------------------------------------------------------
    1      C       5.2627680000    -2.3269510000     0.3723040000
    2      C       6.0194460000    -1.5014480000    -0.4381220000
    3      C       5.3850890000    -0.6054670000    -1.3221910000
    4      C       3.8526840000    -2.2925160000     0.3340880000
    5      C       3.2193670000    -1.3916360000    -0.5547650000
    6      C       4.0050380000    -0.5563890000    -1.3747140000
    7      C       3.0967500000    -3.1967010000     1.2219220000
    8      C       1.6377260000    -3.1312260000     1.1528750000
    9      C       1.0160040000    -2.2178730000     0.2520140000
   10      C       1.7587860000    -1.3193050000    -0.6303850000
   11      C       0.7818690000    -3.9735250000     1.9791820000
   12      C      -0.6419140000    -3.8631410000     1.8663250000
   13      C      -0.4013530000    -2.1444210000     0.1755700000
   14      C      -1.2067200000    -2.9288910000     0.9452880000
   15      O       3.7336100000    -3.9696040000     1.9847670000
   16      O       1.1834040000    -0.5254090000    -1.4135370000
   17      H       5.7252660000    -3.0243580000     1.0603400000
   18      H       7.1038710000    -1.5427600000    -0.3941310000
   19      H       5.9798250000     0.0429200000    -1.9587560000
   20      H      -2.2883010000    -2.8562630000     0.8706530000
   21      H       3.4849330000     0.1204160000    -2.0426710000
   22      H      -0.8118440000    -1.4303010000    -0.5284990000
   23      C      -1.4838040000    -4.6744510000     2.6621420000
   24      C      -0.9566230000    -5.5819040000     3.5565840000
   25      C       0.4333540000    -5.7064940000     3.6832730000
   26      C       1.2745930000    -4.9230100000     2.9148740000
   27      O      -1.7484490000    -6.3919720000     4.3513030000
   28      H      -2.5620770000    -4.5701300000     2.5562740000
   29      H       0.8356130000    -6.4236760000     4.3901130000
   30      H       2.3452800000    -5.0179850000     3.0114960000
   31      H      -2.6710040000    -6.1980960000     4.1577830000
 ----------------------------------------------------------------

   18    -917.9406519268      4.60e-09  Convergence criterion met
 Total energy in the final basis set =     -918.0349977669

                    Orbital Energies (a.u.)
 --------------------------------------------------------------

 Alpha MOs
 -- Occupied --
-19.1626 -19.0804 -19.0775 -10.2435 -10.2301 -10.2294 -10.1955 -10.1910
-10.1861 -10.1832 -10.1827 -10.1812 -10.1810 -10.1801 -10.1800 -10.1794
-10.1789 -10.1788 -10.1781 -10.1769 -10.1747  -1.0689  -1.0078  -1.0050
 -0.8798  -0.8652  -0.8316  -0.7943  -0.7683  -0.7581  -0.7511  -0.7282
 -0.6779  -0.6456  -0.6421  -0.6193  -0.6036  -0.5696  -0.5616  -0.5406
 -0.5235  -0.5074  -0.4851  -0.4734  -0.4690  -0.4615  -0.4424  -0.4358
 -0.4319  -0.4286  -0.4184  -0.4163  -0.4125  -0.4093  -0.3996  -0.3843
 -0.3799  -0.3791  -0.3708  -0.3543  -0.3525  -0.3487  -0.3405  -0.3156
 -0.2890  -0.2674  -0.2637  -0.2483  -0.2475  -0.2366  -0.2258  -0.1500

 Beta MOs
 -- Occupied --
-19.1625 -19.0747 -19.0717 -10.2433 -10.2286 -10.2283 -10.1955 -10.1910
-10.1848 -10.1829 -10.1824 -10.1810 -10.1807 -10.1797 -10.1792 -10.1791
-10.1786 -10.1780 -10.1776 -10.1772 -10.1745  -1.0686  -0.9980  -0.9948
 -0.8785  -0.8636  -0.8297  -0.7914  -0.7668  -0.7564  -0.7496  -0.7266
 -0.6713  -0.6443  -0.6405  -0.6176  -0.6029  -0.5678  -0.5601  -0.5392
 -0.5223  -0.5064  -0.4828  -0.4721  -0.4677  -0.4607  -0.4420  -0.4351
 -0.4276  -0.4248  -0.4134  -0.4121  -0.4113  -0.4059  -0.3977  -0.3790
 -0.3770  -0.3699  -0.3617  -0.3530  -0.3480  -0.3433  -0.3391  -0.3103
 -0.2794  -0.2585  -0.2531  -0.2425  -0.2422  -0.2315  -0.2191

          Ground-State Mulliken Net Atomic Charges

     Atom                 Charge (a.u.)    Spin (a.u.)
  --------------------------------------------------------
      1 C                     0.048289       0.026909
      2 C                     1.034180       0.023716
      3 C                     1.197134       0.030183
      4 C                    -0.920272       0.005578
      5 C                    -0.845906       0.026249
      6 C                     0.090031       0.018258
      7 C                    -2.061505       0.085240
      8 C                    -1.509576       0.100269
      9 C                    -1.756585       0.096003
     10 C                    -2.490837       0.054216
     11 C                    -0.800807       0.014360
     12 C                     0.558346      -0.009221
     13 C                     0.045045      -0.015870
     14 C                     0.390353       0.080834
     15 O                    -0.258753       0.220697
     16 O                    -0.272695       0.214954
     17 H                     0.159528      -0.001854
     18 H                     0.364616      -0.001961
     19 H                     0.366267      -0.002410
     20 H                     0.284239      -0.004757
     21 H                     0.157202      -0.001483
     22 H                     0.205357       0.000587
     23 C                     2.294239       0.003150
     24 C                     1.916105       0.012019
     25 C                     0.269589       0.016064
     26 C                    -0.368529       0.012807
     27 O                    -0.165889       0.002530
     28 H                     0.312215      -0.000902
     29 H                     0.276345      -0.001683
     30 H                     0.106137      -0.004412
     31 H                     0.376138      -0.000070
  --------------------------------------------------------
  Sum of atomic charges =    -1.000000

                    Cartesian Multipole Moments
 -----------------------------------------------------------------
    Charge (ESU x 10^10)
                -4.8032
    Dipole Moment (Debye)
         X     -11.8831      Y      12.1623      Z      -2.7172
       Tot      17.2196
    Quadrupole Moments (Debye-Ang)
        XX    -147.6603     XY      37.6888     YY    -175.8763
        XZ     -14.1677     YZ      21.6113     ZZ    -146.1958

 Total job time:  1053.81s(wall), 8173.00s(cpu)
        *  Thank you very much for using Q-Chem.  Have a nice day.  *
