 Q-Chem 5.4, Q-Chem, Inc., Pleasanton, CA (2021)
 Q-Chem 5.4.0 for Intel X86 EM64T Linux

User input:
--------------------------------------------------------------
$molecule
-1 2
C                 -3.4256490000      3.5983460000      0.0758580000
C                 -4.6007520000      2.8592040000      0.1079210000
C                 -4.6002720000      1.4517700000      0.1248000000
C                 -2.1676900000      2.9088510000      0.0592150000
C                 -2.1793490000      1.4792230000      0.0764310000
C                 -3.4025600000      0.7759650000      0.1091380000
C                 -0.8917270000      3.6423760000      0.0254180000
C                  0.3544980000      2.8588130000      0.0087120000
C                  0.3100830000      1.4298310000      0.0266820000
C                 -0.9496000000      0.6903660000      0.0612890000
C                  1.6385020000      3.4977920000     -0.0256570000
C                  2.7836780000      2.7125570000     -0.0399170000
C                  2.7280080000      1.3062440000     -0.0217100000
C                  1.5047450000      0.6785430000      0.0111130000
O                 -0.8670940000      4.9006110000      0.0113370000
O                 -0.9742300000     -0.5678480000      0.0770990000
C                 -3.5589380000      5.1058900000      0.0603860000
H                 -5.5486610000      3.3902960000      0.1202190000
H                 -5.5414540000      0.9100260000      0.1499210000
H                 -3.3511530000     -0.3060410000      0.1210280000
C                  1.8309060000      4.9988590000     -0.0481320000
H                  1.4109170000     -0.4005740000      0.0260320000
H                  3.7516510000      3.2056020000     -0.0660760000
H                  3.6471950000      0.7275470000     -0.0337220000
H                 -4.6202760000      5.3777850000      0.0771110000
H                 -3.0895540000      5.5447990000     -0.8217470000
H                 -3.0569620000      5.5654260000      0.9136120000
H                  1.3444340000      5.4564710000     -0.9113040000
H                  2.9020400000      5.2282730000     -0.0742250000
H                  1.3821740000      5.4776870000      0.8239390000
$end
$rem
MAX_SCF_CYCLES=200
BASIS  =  6-311++G(d,p)
GUI  =  2
JOB_TYPE  =  SP
METHOD  =  B3LYP
SOLVENT_METHOD = PCM
$end
$pcm
theory = CPCM
$end
$solvent
dielectric 37.219
opticaldielectric 1.43
$end

--------------------------------------------------------------

             Standard Nuclear Orientation (Angstroms)
    I     Atom           X                Y                Z
 ----------------------------------------------------------------
    1      C      -3.4256490000     3.5983460000     0.0758580000
    2      C      -4.6007520000     2.8592040000     0.1079210000
    3      C      -4.6002720000     1.4517700000     0.1248000000
    4      C      -2.1676900000     2.9088510000     0.0592150000
    5      C      -2.1793490000     1.4792230000     0.0764310000
    6      C      -3.4025600000     0.7759650000     0.1091380000
    7      C      -0.8917270000     3.6423760000     0.0254180000
    8      C       0.3544980000     2.8588130000     0.0087120000
    9      C       0.3100830000     1.4298310000     0.0266820000
   10      C      -0.9496000000     0.6903660000     0.0612890000
   11      C       1.6385020000     3.4977920000    -0.0256570000
   12      C       2.7836780000     2.7125570000    -0.0399170000
   13      C       2.7280080000     1.3062440000    -0.0217100000
   14      C       1.5047450000     0.6785430000     0.0111130000
   15      O      -0.8670940000     4.9006110000     0.0113370000
   16      O      -0.9742300000    -0.5678480000     0.0770990000
   17      C      -3.5589380000     5.1058900000     0.0603860000
   18      H      -5.5486610000     3.3902960000     0.1202190000
   19      H      -5.5414540000     0.9100260000     0.1499210000
   20      H      -3.3511530000    -0.3060410000     0.1210280000
   21      C       1.8309060000     4.9988590000    -0.0481320000
   22      H       1.4109170000    -0.4005740000     0.0260320000
   23      H       3.7516510000     3.2056020000    -0.0660760000
   24      H       3.6471950000     0.7275470000    -0.0337220000
   25      H      -4.6202760000     5.3777850000     0.0771110000
   26      H      -3.0895540000     5.5447990000    -0.8217470000
   27      H      -3.0569620000     5.5654260000     0.9136120000
   28      H       1.3444340000     5.4564710000    -0.9113040000
   29      H       2.9020400000     5.2282730000    -0.0742250000
   30      H       1.3821740000     5.4776870000     0.8239390000
 ----------------------------------------------------------------

    8    -767.7369932408      7.86e-06  Convergence criterion met
 Total energy in the final basis set =     -767.7369932408

                    Orbital Energies (a.u.)
 --------------------------------------------------------------

 Alpha MOs
 -- Occupied --
-19.0718 -19.0675 -10.2247 -10.2190 -10.1815 -10.1815 -10.1727 -10.1727
-10.1684 -10.1684 -10.1675 -10.1675 -10.1632 -10.1632 -10.1624 -10.1624
-10.1510 -10.1510  -1.0002  -0.9977  -0.8580  -0.8495  -0.7831  -0.7676
 -0.7646  -0.7338  -0.6904  -0.6755  -0.6539  -0.6205  -0.6139  -0.5626
 -0.5415  -0.5231  -0.5140  -0.4679  -0.4601  -0.4582  -0.4542  -0.4285
 -0.4194  -0.4079  -0.4079  -0.4065  -0.4008  -0.3959  -0.3959  -0.3741
 -0.3713  -0.3676  -0.3547  -0.3505  -0.3427  -0.3381  -0.3340  -0.3293
 -0.2640  -0.2462  -0.2456  -0.2445  -0.2412  -0.2267  -0.1368

 Beta MOs
 -- Occupied --
-19.0667 -19.0622 -10.2232 -10.2168 -10.1816 -10.1816 -10.1719 -10.1719
-10.1677 -10.1677 -10.1672 -10.1672 -10.1625 -10.1625 -10.1622 -10.1622
-10.1510 -10.1510  -0.9910  -0.9883  -0.8555  -0.8484  -0.7792  -0.7667
 -0.7627  -0.7320  -0.6870  -0.6748  -0.6483  -0.6186  -0.6113  -0.5618
 -0.5392  -0.5204  -0.5128  -0.4653  -0.4595  -0.4572  -0.4524  -0.4208
 -0.4170  -0.4068  -0.4057  -0.4033  -0.4002  -0.3951  -0.3856  -0.3738
 -0.3697  -0.3536  -0.3479  -0.3474  -0.3419  -0.3370  -0.3280  -0.3226
 -0.2447  -0.2406  -0.2400  -0.2365  -0.2361  -0.2221

          Ground-State Mulliken Net Atomic Charges

     Atom                 Charge (a.u.)    Spin (a.u.)
  --------------------------------------------------------
      1 C                     0.561439      -0.001000
      2 C                    -0.575530       0.058113
      3 C                    -0.430468       0.023380
      4 C                     0.206088       0.052781
      5 C                     0.443276       0.026385
      6 C                     0.004375       0.045285
      7 C                    -0.848114       0.083602
      8 C                     0.203654       0.052875
      9 C                     0.441124       0.026353
     10 C                    -0.677122       0.117472
     11 C                     0.561788      -0.000972
     12 C                    -0.574107       0.058051
     13 C                    -0.432055       0.023409
     14 C                     0.008207       0.045289
     15 O                    -0.404057       0.197796
     16 O                    -0.483422       0.197051
     17 C                    -0.488720       0.007366
     18 H                     0.136875      -0.004864
     19 H                     0.207705      -0.002264
     20 H                     0.161741      -0.002375
     21 C                    -0.488600       0.007366
     22 H                     0.161564      -0.002374
     23 H                     0.136828      -0.004861
     24 H                     0.207759      -0.002266
     25 H                     0.155197      -0.000297
     26 H                     0.162248      -0.000251
     27 H                     0.162248      -0.000252
     28 H                     0.162391      -0.000250
     29 H                     0.155282      -0.000297
     30 H                     0.162407      -0.000250
  --------------------------------------------------------
  Sum of atomic charges =    -1.000000

                    Cartesian Multipole Moments
 -----------------------------------------------------------------
    Charge (ESU x 10^10)
                -4.8032
    Dipole Moment (Debye)
         X       4.4560      Y      -8.6173      Z      -0.2349
       Tot       9.7040
    Quadrupole Moments (Debye-Ang)
        XX    -108.2518     XY       7.3000     YY    -154.9150
        XZ       0.0498     YZ      -0.1076     ZZ    -112.8084

 Total job time:  182.47s(wall), 434.68s(cpu)
        *  Thank you very much for using Q-Chem.  Have a nice day.  *
