 Q-Chem 5.4, Q-Chem, Inc., Pleasanton, CA (2021)
 Q-Chem 5.4.0 for Intel X86 EM64T Linux

User input:
--------------------------------------------------------------
$molecule
-2 1
C                  5.0657980000     -2.4599560000      0.3710540000
C                  5.8242390000     -1.5115960000     -0.2696790000
C                  5.1423640000     -0.4826190000     -0.9922300000
C                  3.6461570000     -2.4688220000      0.3298980000
C                  2.9732360000     -1.4194650000     -0.4157450000
C                  3.7573240000     -0.4483210000     -1.0618680000
C                  2.9274240000     -3.5115310000      1.0214990000
C                  1.4762410000     -3.4190060000      0.8986350000
C                  0.8033320000     -2.3695730000      0.1530510000
C                  1.5220590000     -1.3268910000     -0.5385200000
C                  0.6921770000     -4.3902670000      1.5445420000
C                 -0.6163310000     -2.3783830000      0.1120240000
C                 -1.3747570000     -3.3268040000      0.7526570000
O                  3.5032960000     -4.4331610000      1.6875520000
O                  0.9461800000     -0.4052110000     -1.2045810000
H                  5.5357060000     -3.2529100000      0.9434830000
H                 -2.4564800000     -3.3230330000      0.7069480000
H                  3.2339480000      0.3282150000     -1.6082410000
H                  1.2155760000     -5.1669420000      2.0907080000
H                 -1.0862420000     -1.5852900000     -0.4602100000
C                 -0.6928920000     -4.3559840000      1.4749700000
S                  6.0731660000      0.6612650000     -1.9393240000
H                  6.9059510000     -1.5152170000     -0.2237320000
S                 -1.6235640000     -5.5000590000      2.4218490000
O                 -0.8342710000     -6.7060000000      2.7344290000
O                 -2.9841110000     -5.6894220000      1.8884920000
N                 -1.9001340000     -4.6349280000      3.9046420000
H                 -0.9973390000     -4.5017090000      4.3563680000
H                 -2.4737710000     -5.2382040000      4.4937450000
O                  5.2836090000      1.8668310000     -2.2526270000
O                  7.4335120000      0.8511520000     -1.4055770000
N                  6.3507110000     -0.2043220000     -3.4214610000
H                  6.9265440000      0.3977450000     -4.0096140000
H                  5.4486030000     -0.3364960000     -3.8748170000
$end

$rem
BASIS  =  6-311++G(d,p)
GUI  =  2
JOB_TYPE  =  SP
METHOD  =  B3LYP
SCF_CONVERGENCE  = 8
SOLVENT_METHOD = sm12
$end

$smx
solvent dimethylformamide
charges CM5
$end

--------------------------------------------------------------

             Standard Nuclear Orientation (Angstroms)
    I     Atom           X                Y                Z
 ----------------------------------------------------------------
    1      C       5.0657980000    -2.4599560000     0.3710540000
    2      C       5.8242390000    -1.5115960000    -0.2696790000
    3      C       5.1423640000    -0.4826190000    -0.9922300000
    4      C       3.6461570000    -2.4688220000     0.3298980000
    5      C       2.9732360000    -1.4194650000    -0.4157450000
    6      C       3.7573240000    -0.4483210000    -1.0618680000
    7      C       2.9274240000    -3.5115310000     1.0214990000
    8      C       1.4762410000    -3.4190060000     0.8986350000
    9      C       0.8033320000    -2.3695730000     0.1530510000
   10      C       1.5220590000    -1.3268910000    -0.5385200000
   11      C       0.6921770000    -4.3902670000     1.5445420000
   12      C      -0.6163310000    -2.3783830000     0.1120240000
   13      C      -1.3747570000    -3.3268040000     0.7526570000
   14      O       3.5032960000    -4.4331610000     1.6875520000
   15      O       0.9461800000    -0.4052110000    -1.2045810000
   16      H       5.5357060000    -3.2529100000     0.9434830000
   17      H      -2.4564800000    -3.3230330000     0.7069480000
   18      H       3.2339480000     0.3282150000    -1.6082410000
   19      H       1.2155760000    -5.1669420000     2.0907080000
   20      H      -1.0862420000    -1.5852900000    -0.4602100000
   21      C      -0.6928920000    -4.3559840000     1.4749700000
   22      S       6.0731660000     0.6612650000    -1.9393240000
   23      H       6.9059510000    -1.5152170000    -0.2237320000
   24      S      -1.6235640000    -5.5000590000     2.4218490000
   25      O      -0.8342710000    -6.7060000000     2.7344290000
   26      O      -2.9841110000    -5.6894220000     1.8884920000
   27      N      -1.9001340000    -4.6349280000     3.9046420000
   28      H      -0.9973390000    -4.5017090000     4.3563680000
   29      H      -2.4737710000    -5.2382040000     4.4937450000
   30      O       5.2836090000     1.8668310000    -2.2526270000
   31      O       7.4335120000     0.8511520000    -1.4055770000
   32      N       6.3507110000    -0.2043220000    -3.4214610000
   33      H       6.9265440000     0.3977450000    -4.0096140000
   34      H       5.4486030000    -0.3364960000    -3.8748170000
 ----------------------------------------------------------------

   16   -1897.0151347243      9.24e-09  Convergence criterion met
 Total energy in the final basis set =    -1897.2674266335

                    Orbital Energies (a.u.)
 --------------------------------------------------------------

 Alpha MOs
 -- Occupied --
-89.0628 -89.0627 -19.1148 -19.1148 -19.1144 -19.1144 -19.0373 -19.0373
-14.3353 -14.3353 -10.2039 -10.2039 -10.1998 -10.1998 -10.1875 -10.1875
-10.1821 -10.1821 -10.1752 -10.1752 -10.1667 -10.1667 -10.1624 -10.1624
 -8.1244  -8.1244  -6.0873  -6.0873  -6.0868  -6.0868  -6.0851  -6.0851
 -1.1138  -1.1137  -1.0017  -1.0017  -0.9614  -0.9583  -0.8966  -0.8966
 -0.8619  -0.8596  -0.7926  -0.7665  -0.7605  -0.7505  -0.6913  -0.6816
 -0.6378  -0.6328  -0.5944  -0.5905  -0.5581  -0.5486  -0.5342  -0.5240
 -0.5096  -0.5077  -0.4955  -0.4870  -0.4701  -0.4645  -0.4643  -0.4540
 -0.4457  -0.4349  -0.4321  -0.4202  -0.4066  -0.4004  -0.3998  -0.3767
 -0.3730  -0.3611  -0.3592  -0.3553  -0.3551  -0.3459  -0.3359  -0.3357
 -0.3336  -0.3269  -0.3153  -0.3151  -0.3057  -0.3056  -0.2794  -0.2784
 -0.2671  -0.2550  -0.2486  -0.2453  -0.2174  -0.2111  -0.1279

          Ground-State Mulliken Net Atomic Charges

     Atom                 Charge (a.u.)
  ----------------------------------------
      1 C                    -0.599734
      2 C                     1.067506
      3 C                     1.151805
      4 C                    -1.339613
      5 C                    -1.199282
      6 C                     0.265093
      7 C                    -1.968410
      8 C                    -1.198397
      9 C                    -1.340201
     10 C                    -1.968693
     11 C                     0.265340
     12 C                    -0.599971
     13 C                     1.066558
     14 O                    -0.365420
     15 O                    -0.365559
     16 H                     0.135969
     17 H                     0.305267
     18 H                     0.150830
     19 H                     0.150863
     20 H                     0.135937
     21 C                     1.152857
     22 S                     1.182614
     23 H                     0.305395
     24 S                     1.182819
     25 O                    -0.168798
     26 O                    -0.215180
     27 N                    -0.163171
     28 H                     0.328088
     29 H                     0.432116
     30 O                    -0.168929
     31 O                    -0.215310
     32 N                    -0.162638
     33 H                     0.432114
     34 H                     0.328134
  ----------------------------------------
  Sum of atomic charges =    -2.000000

                    Cartesian Multipole Moments
 -----------------------------------------------------------------
    Charge (ESU x 10^10)
                -9.6064
    Dipole Moment (Debye)
         X     -21.3636      Y      23.2403      Z      -2.3212
       Tot      31.6529
    Quadrupole Moments (Debye-Ang)
        XX    -304.8225     XY       6.0793     YY    -306.8505
        XZ      -0.0594     YZ      38.2635     ZZ    -161.8493

 Total job time:  1164.70s(wall), 9063.38s(cpu)
        *  Thank you very much for using Q-Chem.  Have a nice day.  *
