 Q-Chem 5.4, Q-Chem, Inc., Pleasanton, CA (2021)
 Q-Chem 5.4.0 for Intel X86 EM64T Linux

User input:
--------------------------------------------------------------
$molecule
-1 2
N                 -2.9306670000     -2.5453800000     -0.2116300000
C                 -2.5981760000     -1.2251160000      0.0840530000
C                 -3.6009300000     -0.3475750000      0.5006010000
C                 -3.3439430000      1.0021240000      0.7107600000
C                 -2.0710400000      1.5443990000      0.5185160000
N                 -1.8940110000      2.9187470000      0.6511860000
C                 -0.9978130000      0.6728470000      0.1552350000
C                  0.3586200000      1.2062600000      0.0584180000
O                  0.6319040000      2.4355780000      0.1720360000
C                  1.4361510000      0.2610520000     -0.1884410000
C                  1.1690750000     -1.1062480000     -0.4813870000
C                  2.2239180000     -1.9679400000     -0.8440390000
C                  3.5242170000     -1.5146070000     -0.9255090000
C                  3.8160240000     -0.1737210000     -0.6088880000
C                  2.7922950000      0.6644000000     -0.2268060000
N                  3.2378600000      2.0022260000      0.2372570000
O                  3.1791500000      2.2322620000      1.4364660000
O                  3.7560300000      2.7434130000     -0.5929530000
C                 -0.1866090000     -1.6472780000     -0.4151810000
O                 -0.3684520000     -2.8814190000     -0.6413410000
C                 -1.2659130000     -0.7297610000     -0.0692780000
H                 -3.7007960000     -2.9230280000      0.3194750000
H                 -2.1120570000     -3.1425050000     -0.3303670000
H                 -4.6108400000     -0.7285930000      0.6271140000
H                 -4.1551270000      1.6645930000      1.0008060000
H                 -2.5024270000      3.3688710000      1.3180930000
H                 -0.9129900000      3.1980340000      0.6568850000
H                  1.9670530000     -2.9972380000     -1.0620630000
H                  4.3267230000     -2.1839530000     -1.2160140000
H                  4.8327700000      0.1995570000     -0.6330040000
$end
$rem
MAX_SCF_CYCLES=200
BASIS  =  6-311++G(d,p)
GUI  =  2
JOB_TYPE  =  SP
METHOD  =  B3LYP
SOLVENT_METHOD = COSMO
$end
$solvent
dielectric 37.219
opticaldielectric 1.43
$end

--------------------------------------------------------------

             Standard Nuclear Orientation (Angstroms)
    I     Atom           X                Y                Z
 ----------------------------------------------------------------
    1      N       3.8393379287    -1.8489137582    -0.0406990539
    2      C       3.1921673381    -0.6153242235    -0.0631226508
    3      C       3.9542939381     0.5518770867    -0.1400003094
    4      C       3.3670130483     1.8093317540    -0.0638069351
    5      C       1.9874728506     1.9657741049     0.0901301051
    6      N       1.4661077897     3.2457074551     0.2566296940
    7      C       1.1591057387     0.8009265316     0.1083022304
    8      C      -0.2928296332     0.9533928865     0.1578111206
    9      O      -0.8702142375     2.0696065085     0.2974897113
   10      C      -1.0990783241    -0.2519771645     0.0461120902
   11      C      -0.5024840234    -1.5445446261     0.0470265789
   12      C      -1.3156759206    -2.6956111399     0.0691206880
   13      C      -2.6916952805    -2.6009542398     0.0922821149
   14      C      -3.3037891199    -1.3330288079     0.0593932292
   15      C      -2.5132450427    -0.2065366842     0.0092924507
   16      N      -3.2637653518     1.0593317134    -0.1855344188
   17      O      -3.1948066463     1.5933760941    -1.2830347366
   18      O      -4.0066588098     1.4200353120     0.7228207903
   19      C       0.9488689474    -1.7121004644     0.0252229465
   20      O       1.4326167384    -2.8831790370    -0.0181623218
   21      C       1.7700398349    -0.5071261026     0.0351535121
   22      H       4.7119862385    -1.8847345390    -0.5456653981
   23      H       3.1993998454    -2.6337840135    -0.1641373167
   24      H       5.0343869882     0.4672949136    -0.2256934996
   25      H       3.9930866260     2.6971774046    -0.0916154929
   26      H       1.9750411045     3.9818625109    -0.2087832473
   27      H       0.4483961343     3.2753602883     0.1948267390
   28      H      -0.8126409937    -3.6547242734     0.0742514851
   29      H      -3.3076405050    -3.4932968464     0.1200175731
   30      H      -4.3822604747    -1.2313378019     0.0436150341
 ----------------------------------------------------------------

   11   -1004.3363958115      6.16e-06  Convergence criterion met
 Total energy in the final basis set =    -1004.3363958115
    5   -1004.4220964814      6.00e-06  Convergence criterion met
 Total energy in the final basis set =    -1004.4220964814

                    Orbital Energies (a.u.)
 --------------------------------------------------------------

 Alpha MOs
 -- Occupied --
-19.1697 -19.1694 -19.0840 -19.0838 -14.5584 -14.3027 -14.3021 -10.2358
-10.2358 -10.2358 -10.2124 -10.2119 -10.1942 -10.1931 -10.1843 -10.1832
-10.1813 -10.1794 -10.1784 -10.1690 -10.1681  -1.2440  -1.0710  -1.0157
 -1.0118  -0.9155  -0.9045  -0.8857  -0.8302  -0.8059  -0.7893  -0.7505
 -0.7229  -0.7027  -0.6713  -0.6426  -0.6368  -0.5890  -0.5744  -0.5680
 -0.5405  -0.5351  -0.5316  -0.5276  -0.5080  -0.4904  -0.4809  -0.4724
 -0.4683  -0.4517  -0.4471  -0.4348  -0.4226  -0.4187  -0.3978  -0.3965
 -0.3927  -0.3855  -0.3823  -0.3688  -0.3595  -0.3576  -0.3420  -0.3303
 -0.3221  -0.3206  -0.2830  -0.2679  -0.2668  -0.2565  -0.2537  -0.2473
 -0.1982  -0.1419

 Beta MOs
 -- Occupied --
-19.1693 -19.1691 -19.0797 -19.0792 -14.5580 -14.3019 -14.3013 -10.2356
-10.2343 -10.2341 -10.2118 -10.2113 -10.1940 -10.1919 -10.1832 -10.1825
-10.1816 -10.1797 -10.1786 -10.1680 -10.1671  -1.2432  -1.0704  -1.0080
 -1.0042  -0.9137  -0.9028  -0.8838  -0.8282  -0.8041  -0.7860  -0.7489
 -0.7194  -0.7009  -0.6662  -0.6402  -0.6345  -0.5881  -0.5729  -0.5656
 -0.5392  -0.5335  -0.5309  -0.5264  -0.5067  -0.4889  -0.4787  -0.4713
 -0.4673  -0.4503  -0.4456  -0.4258  -0.4210  -0.4142  -0.3961  -0.3933
 -0.3839  -0.3815  -0.3762  -0.3669  -0.3563  -0.3494  -0.3351  -0.3272
 -0.3211  -0.3180  -0.2714  -0.2622  -0.2567  -0.2508  -0.2498  -0.2432
 -0.1867

          Ground-State Mulliken Net Atomic Charges

     Atom                 Charge (a.u.)    Spin (a.u.)
  --------------------------------------------------------
      1 N                    -0.455494       0.032647
      2 C                    -0.067978       0.047418
      3 C                    -0.421284       0.079837
      4 C                    -0.355207       0.074159
      5 C                    -0.109274       0.053978
      6 N                    -0.453567       0.035985
      7 C                     0.423925      -0.026028
      8 C                    -0.467453       0.087922
      9 O                    -0.432717       0.163793
     10 C                     0.271292       0.073759
     11 C                     0.461706       0.066321
     12 C                    -0.243777      -0.008500
     13 C                    -0.496488       0.072426
     14 C                    -0.052243       0.004725
     15 C                    -0.286230       0.027171
     16 N                    -0.118732       0.015610
     17 O                    -0.060626       0.009847
     18 O                    -0.062416       0.014313
     19 C                    -0.350948       0.072543
     20 O                    -0.480514       0.151030
     21 C                     0.493960      -0.025148
     22 H                     0.280729      -0.001062
     23 H                     0.323513      -0.002488
     24 H                     0.196473      -0.006068
     25 H                     0.199472      -0.005787
     26 H                     0.280250      -0.001115
     27 H                     0.328073      -0.002636
     28 H                     0.189203       0.001000
     29 H                     0.225388      -0.004554
     30 H                     0.240966      -0.001101
  --------------------------------------------------------
  Sum of atomic charges =    -1.000000

                    Cartesian Multipole Moments
 -----------------------------------------------------------------
    Charge (ESU x 10^10)
                -4.8032
    Dipole Moment (Debye)
         X       4.3651      Y      -2.2314      Z      -2.4039
       Tot       5.4600
    Quadrupole Moments (Debye-Ang)
        XX    -134.2127     XY      30.8858     YY    -141.4658
        XZ      -7.6620     YZ      -1.9600     ZZ    -132.6802

 Total job time:  134.70s(wall), 983.58s(cpu)
        *  Thank you very much for using Q-Chem.  Have a nice day.  *
