 Q-Chem 5.4, Q-Chem, Inc., Pleasanton, CA (2021)
 Q-Chem 5.4.0 for Intel X86 EM64T Linux

User input:
--------------------------------------------------------------
$molecule
0 1
Cl                -2.6534890000     -1.7599770000     -0.0109680000
C                 -1.2613270000     -0.7350280000     -0.0074700000
C                 -1.3594490000      0.5983880000     -0.0387160000
C                 -0.1638620000      1.4670400000     -0.0354430000
O                 -0.2721440000      2.6745540000     -0.0640700000
C                  1.1797990000      0.7962300000      0.0045820000
C                  1.2817800000     -0.5493760000      0.0361660000
Cl                 2.7917480000     -1.3764770000      0.0827690000
C                  0.0678830000     -1.4343060000      0.0328660000
O                  0.1571960000     -2.6369240000      0.0610980000
Cl                 2.5440610000      1.8442170000      0.0070890000
H                 -2.3121960000      1.1116590000     -0.0679020000
$end

$rem
BASIS  =  6-311++G(d,p)
GUI  =  2
JOB_TYPE  =  SP
METHOD  =  B3LYP
SCF_CONVERGENCE  = 8
SOLVENT_METHOD = sm12
$end

$smx
solvent dimethylformamide
charges CM5
$end

--------------------------------------------------------------

             Standard Nuclear Orientation (Angstroms)
    I     Atom           X                Y                Z
 ----------------------------------------------------------------
    1      Cl     -2.6534890000    -1.7599770000    -0.0109680000
    2      C      -1.2613270000    -0.7350280000    -0.0074700000
    3      C      -1.3594490000     0.5983880000    -0.0387160000
    4      C      -0.1638620000     1.4670400000    -0.0354430000
    5      O      -0.2721440000     2.6745540000    -0.0640700000
    6      C       1.1797990000     0.7962300000     0.0045820000
    7      C       1.2817800000    -0.5493760000     0.0361660000
    8      Cl      2.7917480000    -1.3764770000     0.0827690000
    9      C       0.0678830000    -1.4343060000     0.0328660000
   10      O       0.1571960000    -2.6369240000     0.0610980000
   11      Cl      2.5440610000     1.8442170000     0.0070890000
   12      H      -2.3121960000     1.1116590000    -0.0679020000
 ----------------------------------------------------------------

   16   -1760.4146761125      3.68e-09  Convergence criterion met
 Total energy in the final basis set =    -1760.4280046020

                    Orbital Energies (a.u.)
 --------------------------------------------------------------

 Alpha MOs
 -- Occupied --
********-101.5907-101.5874 -19.1682 -19.1621 -10.3229 -10.3155 -10.2937
-10.2925 -10.2908 -10.2354  -9.5055  -9.5052  -9.5019  -7.2705  -7.2702
 -7.2668  -7.2607  -7.2604  -7.2591  -7.2589  -7.2570  -7.2558  -1.1067
 -1.0971  -0.9479  -0.9219  -0.8915  -0.8454  -0.7772  -0.7263  -0.6485
 -0.6301  -0.5724  -0.5294  -0.5057  -0.4926  -0.4894  -0.4763  -0.4661
 -0.4516  -0.4489  -0.4172  -0.3869  -0.3697  -0.3605  -0.3485  -0.3385
 -0.3190  -0.3137  -0.3084  -0.2899

          Ground-State Mulliken Net Atomic Charges

     Atom                 Charge (a.u.)
  ----------------------------------------
      1 Cl                    0.306661
      2 C                     1.152317
      3 C                     0.458774
      4 C                    -1.288690
      5 O                    -0.226758
      6 C                     0.442149
      7 C                     0.594818
      8 Cl                    0.377000
      9 C                    -2.398423
     10 O                    -0.156186
     11 Cl                    0.388418
     12 H                     0.349921
  ----------------------------------------
  Sum of atomic charges =     0.000000

                    Cartesian Multipole Moments
 -----------------------------------------------------------------
    Charge (ESU x 10^10)
                -0.0000
    Dipole Moment (Debye)
         X      -0.9448      Y       0.3671      Z      -0.0257
       Tot       1.0139
    Quadrupole Moments (Debye-Ang)
        XX     -77.7953     XY       0.0942     YY     -97.8029
        XZ       0.0523     YZ       0.3790     ZZ     -80.7001

 Total job time:  94.79s(wall), 694.60s(cpu)
        *  Thank you very much for using Q-Chem.  Have a nice day.  *
