 Q-Chem 5.4, Q-Chem, Inc., Pleasanton, CA (2021)
 Q-Chem 5.4.0 for Intel X86 EM64T Linux

User input:
--------------------------------------------------------------
$molecule
0 1
N                 -2.8408800000      1.5534250000      1.1399060000
C                 -2.4805260000      0.5457070000      0.3189100000
C                 -3.4650460000     -0.1700460000     -0.4130880000
Br                -5.3104030000      0.3179100000     -0.2389950000
C                 -3.1424020000     -1.2053550000     -1.2520990000
C                 -1.8102600000     -1.6130150000     -1.4060980000
Br                -1.5892030000     -3.0645810000     -2.6347080000
C                 -0.7871060000     -0.9567850000     -0.7183040000
C                  0.6453580000     -1.3973420000     -0.8368510000
O                  0.9593740000     -2.4324310000     -1.3956060000
C                  1.6970190000     -0.5316390000     -0.2388470000
C                  3.0423680000     -0.8453940000     -0.4619570000
C                  4.0406770000     -0.0584480000      0.0968880000
C                  3.7040790000      1.0408520000      0.8937130000
C                  2.3708680000      1.3509200000      1.1272530000
C                  1.3601920000      0.5677430000      0.5571410000
C                 -0.0598960000      0.9112380000      0.8201050000
O                 -0.3120560000      1.8444130000      1.5894770000
C                 -1.1195790000      0.1442320000      0.1340420000
H                 -2.1069410000      2.0563440000      1.6249900000
H                 -3.8087720000      1.8225820000      1.2016170000
H                 -3.9206820000     -1.7188970000     -1.7989630000
H                  3.2783770000     -1.7065790000     -1.0740980000
H                  5.0823790000     -0.2987220000     -0.0828030000
H                  4.4852490000      1.6516080000      1.3318430000
H                  2.0878090000      2.1922610000      1.7465310000
$end
$rem
MAX_SCF_CYCLES=200
BASIS  =  6-311++G(d,p)
GUI  =  2
JOB_TYPE  =  SP
METHOD  =  B3LYP
SOLVENT_METHOD = PCM
$end
$pcm
theory = CPCM
$end
$solvent
dielectric 37.219
opticaldielectric 1.43
$end

--------------------------------------------------------------

             Standard Nuclear Orientation (Angstroms)
    I     Atom           X                Y                Z
 ----------------------------------------------------------------
    1      N      -2.8408800000     1.5534250000     1.1399060000
    2      C      -2.4805260000     0.5457070000     0.3189100000
    3      C      -3.4650460000    -0.1700460000    -0.4130880000
    4      Br     -5.3104030000     0.3179100000    -0.2389950000
    5      C      -3.1424020000    -1.2053550000    -1.2520990000
    6      C      -1.8102600000    -1.6130150000    -1.4060980000
    7      Br     -1.5892030000    -3.0645810000    -2.6347080000
    8      C      -0.7871060000    -0.9567850000    -0.7183040000
    9      C       0.6453580000    -1.3973420000    -0.8368510000
   10      O       0.9593740000    -2.4324310000    -1.3956060000
   11      C       1.6970190000    -0.5316390000    -0.2388470000
   12      C       3.0423680000    -0.8453940000    -0.4619570000
   13      C       4.0406770000    -0.0584480000     0.0968880000
   14      C       3.7040790000     1.0408520000     0.8937130000
   15      C       2.3708680000     1.3509200000     1.1272530000
   16      C       1.3601920000     0.5677430000     0.5571410000
   17      C      -0.0598960000     0.9112380000     0.8201050000
   18      O      -0.3120560000     1.8444130000     1.5894770000
   19      C      -1.1195790000     0.1442320000     0.1340420000
   20      H      -2.1069410000     2.0563440000     1.6249900000
   21      H      -3.8087720000     1.8225820000     1.2016170000
   22      H      -3.9206820000    -1.7188970000    -1.7989630000
   23      H       3.2783770000    -1.7065790000    -1.0740980000
   24      H       5.0823790000    -0.2987220000    -0.0828030000
   25      H       4.4852490000     1.6516080000     1.3318430000
   26      H       2.0878090000     2.1922610000     1.7465310000
 ----------------------------------------------------------------

    9   -5891.4174907914      2.53e-06  Convergence criterion met
 Total energy in the final basis set =    -5891.4174907914

                    Orbital Energies (a.u.)
 --------------------------------------------------------------

 Alpha MOs
 -- Occupied --
********-482.8403 -62.5040 -62.4931 -56.3245 -56.3206 -56.3204 -56.3137
-56.3098 -56.3093 -19.1315 -19.1306 -14.3408 -10.2871 -10.2846 -10.2650
-10.2558 -10.2536 -10.2272 -10.2177 -10.2161 -10.2070 -10.2063 -10.1961
-10.1958 -10.1953 -10.1950  -8.7127  -8.7019  -6.5442  -6.5337  -6.5312
 -6.5309  -6.5207  -6.5194  -2.6551  -2.6515  -2.6512  -2.6445  -2.6411
 -2.6409  -2.6408  -2.6402  -2.6297  -2.6297  -1.0706  -1.0656  -0.9600
 -0.8980  -0.8861  -0.8429  -0.8250  -0.7910  -0.7773  -0.7638  -0.7451
 -0.6914  -0.6678  -0.6522  -0.6142  -0.5922  -0.5825  -0.5549  -0.5423
 -0.5167  -0.5042  -0.4832  -0.4808  -0.4734  -0.4638  -0.4580  -0.4495
 -0.4476  -0.4390  -0.4271  -0.4193  -0.4070  -0.3952  -0.3803  -0.3780
 -0.3674  -0.3654  -0.3368  -0.3165  -0.3133  -0.3084  -0.2865  -0.2846
 -0.2777  -0.2743  -0.2653  -0.2316

          Ground-State Mulliken Net Atomic Charges

     Atom                 Charge (a.u.)
  ----------------------------------------
      1 N                    -0.340825
      2 C                    -0.477269
      3 C                     0.419333
      4 Br                   -0.194358
      5 C                    -0.189278
      6 C                     0.094834
      7 Br                   -0.212569
      8 C                     0.784521
      9 C                    -1.123115
     10 O                    -0.215858
     11 C                    -0.030417
     12 C                     0.176783
     13 C                    -0.453671
     14 C                    -0.564198
     15 C                     0.134952
     16 C                     0.268007
     17 C                    -0.274738
     18 O                    -0.316124
     19 C                     0.698341
     20 H                     0.362184
     21 H                     0.296147
     22 H                     0.300475
     23 H                     0.209369
     24 H                     0.218980
     25 H                     0.221680
     26 H                     0.206817
  ----------------------------------------
  Sum of atomic charges =     0.000000

                    Cartesian Multipole Moments
 -----------------------------------------------------------------
    Charge (ESU x 10^10)
                -0.0000
    Dipole Moment (Debye)
         X      -0.1502      Y       3.4062      Z       1.6692
       Tot       3.7961
    Quadrupole Moments (Debye-Ang)
        XX    -104.8417     XY       0.0018     YY    -142.6150
        XZ       0.9993     YZ      -3.0504     ZZ    -138.9028

 Total job time:  69.44s(wall), 462.54s(cpu)
        *  Thank you very much for using Q-Chem.  Have a nice day.  *
