 Q-Chem 5.4, Q-Chem, Inc., Pleasanton, CA (2021)
 Q-Chem 5.4.0 for Intel X86 EM64T Linux

User input:
--------------------------------------------------------------
$molecule
0 1
C                 -1.3791820000      1.8895790000     -4.2654010000
C                 -1.3403730000      0.5042610000     -4.3356110000
C                 -1.0592070000     -0.2491370000     -3.1897280000
C                 -1.1373920000      2.5401110000     -3.0483200000
C                 -0.8558980000      1.7858270000     -1.9011150000
C                 -0.8184950000      0.3873960000     -1.9804820000
C                 -1.1828260000      4.0216790000     -2.9940460000
C                 -0.5974950000      2.4475620000     -0.5998030000
C                 -0.9281930000      4.6844710000     -1.7136340000
C                 -0.6433780000      3.9098210000     -0.5343840000
C                 -0.9646970000      6.1061770000     -1.6451040000
C                 -0.7086410000      6.7169510000     -0.3859030000
C                 -0.4388050000      5.9811000000      0.7336770000
C                 -0.3990300000      4.5595880000      0.7080250000
O                 -1.4349430000      4.6506300000     -4.0370570000
O                 -0.3497580000      1.7392130000      0.3927720000
H                 -1.5943390000      2.4935720000     -5.1376070000
H                 -1.5282860000      0.0049500000     -5.2795970000
H                 -1.0295920000     -1.3315330000     -3.2467150000
H                 -0.5994140000     -0.1735120000     -1.0809200000
H                 -0.2514590000      6.4993290000      1.6648970000
H                 -0.7268610000      7.7960500000     -0.3079440000
N                 -1.2302780000      6.8817240000     -2.7293760000
C                 -1.2836430000      8.3273580000     -2.7206860000
H                 -1.4008100000      6.3634930000     -3.5872460000
H                 -0.3262210000      8.7768790000     -2.4304610000
H                 -2.0611240000      8.7104780000     -2.0486410000
H                 -1.5185590000      8.6639940000     -3.7301560000
N                 -0.1347030000      3.8689380000      1.8511070000
C                  0.1549870000      4.4660960000      3.1385770000
C                  0.3181840000      3.3715700000      4.1953380000
O                  0.5874790000      3.9178580000      5.4807460000
H                 -0.1039110000      2.8576060000      1.7281950000
H                 -0.6523300000      5.1355560000      3.4583730000
H                  1.0773600000      5.0660090000      3.0967380000
H                  1.1027510000      2.6672140000      3.8898930000
H                 -0.6129420000      2.8105530000      4.2955810000
H                  1.4793550000      4.2795580000      5.4867470000
$end
$rem
MAX_SCF_CYCLES=200
BASIS  =  6-311++G(d,p)
GUI  =  2
JOB_TYPE  =  SP
METHOD  =  B3LYP
SOLVENT_METHOD = PCM
$end
$pcm
theory = CPCM
$end
$solvent
dielectric 37.219
opticaldielectric 1.43
$end

--------------------------------------------------------------

             Standard Nuclear Orientation (Angstroms)
    I     Atom           X                Y                Z
 ----------------------------------------------------------------
    1      C      -1.3791820000     1.8895790000    -4.2654010000
    2      C      -1.3403730000     0.5042610000    -4.3356110000
    3      C      -1.0592070000    -0.2491370000    -3.1897280000
    4      C      -1.1373920000     2.5401110000    -3.0483200000
    5      C      -0.8558980000     1.7858270000    -1.9011150000
    6      C      -0.8184950000     0.3873960000    -1.9804820000
    7      C      -1.1828260000     4.0216790000    -2.9940460000
    8      C      -0.5974950000     2.4475620000    -0.5998030000
    9      C      -0.9281930000     4.6844710000    -1.7136340000
   10      C      -0.6433780000     3.9098210000    -0.5343840000
   11      C      -0.9646970000     6.1061770000    -1.6451040000
   12      C      -0.7086410000     6.7169510000    -0.3859030000
   13      C      -0.4388050000     5.9811000000     0.7336770000
   14      C      -0.3990300000     4.5595880000     0.7080250000
   15      O      -1.4349430000     4.6506300000    -4.0370570000
   16      O      -0.3497580000     1.7392130000     0.3927720000
   17      H      -1.5943390000     2.4935720000    -5.1376070000
   18      H      -1.5282860000     0.0049500000    -5.2795970000
   19      H      -1.0295920000    -1.3315330000    -3.2467150000
   20      H      -0.5994140000    -0.1735120000    -1.0809200000
   21      H      -0.2514590000     6.4993290000     1.6648970000
   22      H      -0.7268610000     7.7960500000    -0.3079440000
   23      N      -1.2302780000     6.8817240000    -2.7293760000
   24      C      -1.2836430000     8.3273580000    -2.7206860000
   25      H      -1.4008100000     6.3634930000    -3.5872460000
   26      H      -0.3262210000     8.7768790000    -2.4304610000
   27      H      -2.0611240000     8.7104780000    -2.0486410000
   28      H      -1.5185590000     8.6639940000    -3.7301560000
   29      N      -0.1347030000     3.8689380000     1.8511070000
   30      C       0.1549870000     4.4660960000     3.1385770000
   31      C       0.3181840000     3.3715700000     4.1953380000
   32      O       0.5874790000     3.9178580000     5.4807460000
   33      H      -0.1039110000     2.8576060000     1.7281950000
   34      H      -0.6523300000     5.1355560000     3.4583730000
   35      H       1.0773600000     5.0660090000     3.0967380000
   36      H       1.1027510000     2.6672140000     3.8898930000
   37      H      -0.6129420000     2.8105530000     4.2955810000
   38      H       1.4793550000     4.2795580000     5.4867470000
 ----------------------------------------------------------------

    9    -992.9343495499      4.57e-06  Convergence criterion met
 Total energy in the final basis set =     -992.9343495499

                    Orbital Energies (a.u.)
 --------------------------------------------------------------

 Alpha MOs
 -- Occupied --
-19.1340 -19.1123 -19.1116 -14.3366 -14.3358 -10.2643 -10.2637 -10.2386
-10.2374 -10.2235 -10.2083 -10.2001 -10.1961 -10.1955 -10.1943 -10.1942
-10.1936 -10.1936 -10.1889 -10.1884 -10.1870 -10.1868  -1.0466  -1.0444
 -1.0347  -0.9555  -0.9487  -0.8803  -0.8561  -0.8039  -0.7758  -0.7683
 -0.7647  -0.7318  -0.6935  -0.6807  -0.6592  -0.6458  -0.6285  -0.6060
 -0.5887  -0.5528  -0.5491  -0.5330  -0.5226  -0.5105  -0.4988  -0.4827
 -0.4806  -0.4765  -0.4684  -0.4549  -0.4536  -0.4446  -0.4413  -0.4385
 -0.4365  -0.4241  -0.4186  -0.4102  -0.4033  -0.4004  -0.3971  -0.3873
 -0.3784  -0.3689  -0.3626  -0.3581  -0.3471  -0.3310  -0.2937  -0.2842
 -0.2744  -0.2740  -0.2700  -0.2628  -0.2617  -0.1932

          Ground-State Mulliken Net Atomic Charges

     Atom                 Charge (a.u.)
  ----------------------------------------
      1 C                     0.064191
      2 C                    -0.562313
      3 C                    -0.523778
      4 C                     0.206279
      5 C                     0.200202
      6 C                     0.019425
      7 C                    -0.189652
      8 C                    -0.168690
      9 C                     0.229122
     10 C                     0.226236
     11 C                    -0.170300
     12 C                    -0.058050
     13 C                    -0.092967
     14 C                    -0.536171
     15 O                    -0.360792
     16 O                    -0.343886
     17 H                     0.191667
     18 H                     0.214349
     19 H                     0.214456
     20 H                     0.182994
     21 H                     0.245145
     22 H                     0.251869
     23 N                    -0.297950
     24 C                    -0.387081
     25 H                     0.416275
     26 H                     0.175384
     27 H                     0.176255
     28 H                     0.178516
     29 N                    -0.136051
     30 C                    -0.193367
     31 C                    -0.347943
     32 O                    -0.343246
     33 H                     0.479948
     34 H                     0.179852
     35 H                     0.189473
     36 H                     0.173443
     37 H                     0.202003
     38 H                     0.295147
  ----------------------------------------
  Sum of atomic charges =    -0.000003

                    Cartesian Multipole Moments
 -----------------------------------------------------------------
    Charge (ESU x 10^10)
                -0.0000
    Dipole Moment (Debye)
         X       1.9070      Y       4.7611      Z       1.1308
       Tot       5.2520
    Quadrupole Moments (Debye-Ang)
        XX    -129.5306     XY       6.3106     YY     -63.4670
        XZ       8.0772     YZ      11.9377     ZZ    -139.5825

 Total job time:  131.69s(wall), 669.03s(cpu)
        *  Thank you very much for using Q-Chem.  Have a nice day.  *
