 Gaussian 16, Revision A.03,
 Gaussian 16:  ES64L-G16RevA.03 25-Dec-2016

 ----------------------------------------------------------------
 #P UB3LYP/6-311++G(d,p) SCRF=(PCM,Solvent=n,n-DiMethylFormamide)
 ----------------------------------------------------------------

 ------------------
 Quinone PCM in DMF
 ------------------
 Symbolic Z-matrix:
 Charge =  0 Multiplicity = 1

                         Standard orientation:
 ---------------------------------------------------------------------
 Center     Atomic      Atomic             Coordinates (Angstroms)
 Number     Number       Type             X           Y           Z
 ---------------------------------------------------------------------
      1          8           0        0.000071    2.792525   -0.000101
      2          6           0        0.000052    1.580006   -0.000040
      3          6           0        1.189561    0.666640   -0.000052
      4          6           0        2.538599    0.981197    0.000007
      5          6           0        3.464047   -0.068201    0.000075
      6          6           0        3.025912   -1.393517    0.000089
      7          6           0        1.660551   -1.707848    0.000009
      8          6           0        0.741633   -0.667303   -0.000060
      9          6           0       -0.741719   -0.667304   -0.000086
     10          6           0       -1.660378   -1.707812   -0.000143
     11          6           0       -3.026041   -1.393348   -0.000022
     12          6           0       -3.464115   -0.068359    0.000148
     13          6           0       -2.538571    0.981250    0.000127
     14          6           0       -1.189646    0.666724   -0.000009
     15          1           0        2.858858    2.017024    0.000002
     16          1           0        4.526573    0.145606    0.000136
     17          1           0        3.755818   -2.195489    0.000172
     18          1           0        1.340494   -2.743766    0.000036
     19          1           0       -1.340862   -2.743871   -0.000245
     20          1           0       -3.755704   -2.195557   -0.000038
     21          1           0       -4.526555    0.145923    0.000266
     22          1           0       -2.858505    2.017179    0.000215
 ---------------------------------------------------------------------

 SCF Done:  E(UB3LYP) =  -575.589118438     A.U. after   14 cycles

 The electronic state is 1-A.
 Alpha  occ. eigenvalues --  -19.13514 -10.27903 -10.20506 -10.20477 -10.19761
 Alpha  occ. eigenvalues --  -10.19759 -10.19578 -10.19577 -10.19364 -10.19363
 Alpha  occ. eigenvalues --  -10.19302 -10.19302 -10.19092 -10.19092  -1.06618
 Alpha  occ. eigenvalues --   -0.90765  -0.86875  -0.81581  -0.78076  -0.76556
 Alpha  occ. eigenvalues --   -0.73847  -0.68117  -0.64750  -0.60934  -0.59702
 Alpha  occ. eigenvalues --   -0.57594  -0.52584  -0.52015  -0.49524  -0.46794
 Alpha  occ. eigenvalues --   -0.46722  -0.45359  -0.44794  -0.44677  -0.44300
 Alpha  occ. eigenvalues --   -0.43497  -0.38834  -0.38751  -0.38168  -0.37899
 Alpha  occ. eigenvalues --   -0.36576  -0.35658  -0.30748  -0.28150  -0.27555
 Alpha  occ. eigenvalues --   -0.27395  -0.24252
 Alpha virt. eigenvalues --   -0.10263  -0.05583  -0.01987  -0.00712   0.00245
 Alpha virt. eigenvalues --    0.00762   0.00925   0.02035   0.02299   0.03228
 Alpha virt. eigenvalues --    0.04088   0.04354   0.04491   0.04512   0.06238

  Beta  occ. eigenvalues --  -19.13514 -10.27903 -10.20506 -10.20477 -10.19761
  Beta  occ. eigenvalues --  -10.19759 -10.19578 -10.19577 -10.19364 -10.19363
  Beta  occ. eigenvalues --  -10.19302 -10.19302 -10.19092 -10.19092  -1.06618
  Beta  occ. eigenvalues --   -0.90765  -0.86875  -0.81581  -0.78076  -0.76556
  Beta  occ. eigenvalues --   -0.73847  -0.68117  -0.64750  -0.60934  -0.59702
  Beta  occ. eigenvalues --   -0.57594  -0.52584  -0.52015  -0.49524  -0.46794
  Beta  occ. eigenvalues --   -0.46722  -0.45359  -0.44794  -0.44677  -0.44300
  Beta  occ. eigenvalues --   -0.43497  -0.38834  -0.38751  -0.38168  -0.37899
  Beta  occ. eigenvalues --   -0.36576  -0.35658  -0.30748  -0.28150  -0.27555
  Beta  occ. eigenvalues --   -0.27395  -0.24252
  Beta virt. eigenvalues --   -0.10263  -0.05583  -0.01987  -0.00712   0.00245
  Beta virt. eigenvalues --    0.00762   0.00925   0.02035   0.02299   0.03228
  Beta virt. eigenvalues --    0.04088   0.04354   0.04491   0.04512   0.06238

 Mulliken charges and spin densities:
               1          2
     1  O   -0.318134  -0.000000
     2  C   -0.196062   0.000000
     3  C    0.777382   0.000000
     4  C   -0.111006   0.000000
     5  C   -0.346651   0.000000
     6  C   -0.284187  -0.000000
     7  C   -0.463231   0.000000
     8  C   -0.052334  -0.000000
     9  C   -0.052803  -0.000000
    10  C   -0.463148  -0.000000
    11  C   -0.284147  -0.000000
    12  C   -0.346623   0.000000
    13  C   -0.110481   0.000000
    14  C    0.777400  -0.000000
    15  H    0.178802   0.000000
    16  H    0.196941  -0.000000
    17  H    0.209943  -0.000000
    18  H    0.151303   0.000000
    19  H    0.151378  -0.000000
    20  H    0.209913  -0.000000
    21  H    0.196948  -0.000000
    22  H    0.178795  -0.000000
 Sum of Mulliken charges =  -0.00000  -0.00000

 Dipole moment (field-independent basis, Debye):
    X=              0.0002    Y=             -5.0604    Z=              0.0004  Tot=              5.0604
 Quadrupole moment (field-independent basis, Debye-Ang):
   XX=            -60.8461   YY=            -83.0119   ZZ=            -85.2082
   XY=             -0.0013   XZ=             -0.0000   YZ=              0.0010

 Normal termination of Gaussian 16 at Sat Jan 13 19:18:07 2024.
